INSANE! Membrane UpperLeaflet>loPI:POPI:DPPI:PYPI:ERGO=30.0:5.0:3.0:2.0:10.0 LowerLeaflet>PSPI:POPI:POPS:YOPS:POPE:YOPE:POPC:YOPC:ERGO=6.0:14.0:21.0:9.0:9.0:21.0:12.0:48.0:60.0
49074
    1loPI    C1    1  10.051   6.379  11.337  0.0553 -0.0933 -0.0949
    1loPI    C2    2   9.992   6.069  11.091  0.0456 -0.2328  0.0814
    1loPI    C3    3  10.250   6.036  11.394 -0.1315 -0.1490  0.2430
    1loPI   PO4    4   9.806   6.527  11.165 -0.4757  0.1646  0.1598
    1loPI   GL1    5   9.522   6.388  10.837 -0.0327  0.1588  0.1083
    1loPI   GL2    6   9.257   6.168  10.600 -0.0548  0.1818 -0.2812
    1loPI   C1A    7   9.598   6.494  10.457  0.1467 -0.1759 -0.2306
    1loPI   C2A    8   9.554   6.389  10.088 -0.0632 -0.2303  0.0503
    1loPI   C3A    9   9.621   6.451   9.642 -0.1178 -0.2618 -0.0459
    1loPI   C4A   10   9.632   6.467   9.269 -0.0844  0.1251 -0.0443
    1loPI   C5A   11   9.636   6.468   8.820 -0.2184  0.1373 -0.3948
    1loPI   C6A   12   9.319   6.425   8.559 -0.0064 -0.0193 -0.1825
    1loPI   C1B   13   9.145   6.069  10.145  0.0733 -0.0247  0.1344
    1loPI   C2B   14   9.157   6.054   9.716 -0.1868  0.1587 -0.0123
    1loPI   C3B   15   9.302   6.083   9.271 -0.1281 -0.2023  0.1929
    1loPI   C4B   16   9.364   5.995   8.818  0.1896  0.2790  0.2317
    2loPI    C1   17   1.695   5.750  10.475 -0.0178 -0.1543 -0.0290
    2loPI    C2   18   1.597   5.537  10.799  0.0023  0.1278  0.1657
    2loPI    C3   19   1.945   5.734  10.787 -0.1321  0.3659  0.0991
    2loPI   PO4   20   1.641   5.608  10.280  0.2401  0.0659  0.1398
    2loPI   GL1   21   1.658   5.825   9.892  0.0169  0.1612  0.1645
    2loPI   GL2   22   1.412   5.631   9.774 -0.0253 -0.0238 -0.1733
    2loPI   C1A   23   1.770   5.835   9.438  0.0741 -0.0829 -0.0035
    2loPI   C2A   24   1.904   5.920   9.030  0.3141  0.0620  0.1040
    2loPI   C3A   25   1.727   5.948   8.711 -0.0275  0.0098  0.1428
    2loPI   C4A   26   1.738   5.820   8.414  0.2335 -0.0367 -0.0236
    2loPI   C5A   27   1.599   5.832   8.069 -0.0905 -0.1509  0.1086
    2loPI   C6A   28   1.728   6.201   7.859 -0.2329 -0.2667  0.0702
    2loPI   C1B   29   1.325   5.680   9.457 -0.0199 -0.0941  0.0533
    2loPI   C2B   30   1.452   5.675   9.096  0.1332 -0.0436  0.0938
    2loPI   C3B   31   1.350   5.639   8.745 -0.0501  0.0686  0.0085
    2loPI   C4B   32   1.288   5.443   8.335  0.2843 -0.3320  0.0435
    3loPI    C1   33   9.892   5.480  11.506 -0.2011 -0.1628  0.0554
    3loPI    C2   34  10.135   5.696  11.740 -0.1275 -0.0474 -0.1257
    3loPI    C3   35   9.746   5.668  11.828 -0.1251  0.1061 -0.0644
    3loPI   PO4   36   9.940   5.606  11.271 -0.1820  0.0430  0.1107
    3loPI   GL1   37  10.050   5.526  10.838 -0.3934  0.0085 -0.1906
    3loPI   GL2   38  10.204   5.828  10.695  0.1159  0.2544  0.1673
    3loPI   C1A   39   9.727   5.787  10.595 -0.1318  0.0433  0.1182
    3loPI   C2A   40   9.745   5.866  10.221 -0.0252 -0.2725 -0.0951
    3loPI   C3A   41   9.746   5.886   9.708  0.0586  0.0697  0.0968
    3loPI   C4A   42   9.821   5.986   9.271 -0.0112 -0.5300 -0.1225
    3loPI   C5A   43   9.899   5.918   8.819  0.4706 -0.3029 -0.0798
    3loPI   C6A   44  10.288   6.115   8.674 -0.0893 -0.0846  0.1791
    3loPI   C1B   45  10.173   5.648  10.384  0.0483 -0.1093  0.2937
    3loPI   C2B   46  10.166   5.697   9.976 -0.0444  0.0419  0.0821
    3loPI   C3B   47  10.257   5.694   9.515 -0.2065  0.1841  0.2032
    3loPI   C4B   48  10.399   5.790   9.071 -0.0154 -0.0981 -0.0107
    4loPI    C1   49   5.086  17.527  11.015  0.1452 -0.0030 -0.2175
    4loPI    C2   50   5.053  17.905  11.140 -0.0226 -0.0874 -0.0011
    4loPI    C3   51   5.301  17.653  11.327  0.0096 -0.1133 -0.0782
    4loPI   PO4   52   4.977  17.622  10.718  0.1986  0.1734 -0.0748
    4loPI   GL1   53   5.144  17.734  10.367  0.1122 -0.3160  0.2133
    4loPI   GL2   54   5.412  17.824  10.369  0.0160  0.1761  0.2537
    4loPI   C1A   55   5.240  17.943   9.888 -0.3700 -0.1324 -0.2251
    4loPI   C2A   56   5.316  17.903   9.443 -0.2210 -0.1975 -0.1690
    4loPI   C3A   57   5.427  17.860   9.044 -0.1414 -0.3277  0.0452
    4loPI   C4A   58   5.480  17.808   8.626  0.2618 -0.0238 -0.1082
    4loPI   C5A   59   5.770  17.533   8.354 -0.3408 -0.1591  0.2851
    4loPI   C6A   60   5.797  17.253   8.072 -0.1357  0.0969 -0.0060
    4loPI   C1B   61   5.581  18.150  10.167  0.2111  0.0196  0.0212
    4loPI   C2B   62   5.589  18.294   9.712  0.2081  0.0654 -0.0018
    4loPI   C3B   63   5.748  18.193   9.310 -0.1348  0.0066  0.0674
    4loPI   C4B   64   5.744  18.264   8.912  0.0163  0.1494  0.0111
    5loPI    C1   65  13.641   5.175  11.137 -0.0409 -0.0730  0.0908
    5loPI    C2   66  13.703   5.488  11.378  0.0878 -0.1544  0.1646
    5loPI    C3   67  13.392   5.246  11.442  0.0736 -0.1274  0.1981
    5loPI   PO4   68  13.747   5.304  10.861 -0.1057 -0.2718 -0.0230
    5loPI   GL1   69  13.727   5.110  10.452 -0.2972 -0.1313 -0.4157
    5loPI   GL2   70  13.407   5.010  10.402  0.2729 -0.0307 -0.1800
    5loPI   C1A   71  13.717   5.050   9.994  0.0559 -0.1433  0.2322
    5loPI   C2A   72  13.598   5.027   9.566  0.1143  0.2572 -0.1148
    5loPI   C3A   73  13.528   5.175   9.224 -0.4582 -0.1478 -0.2830
    5loPI   C4A   74  13.450   5.154   8.786  0.3185 -0.1276  0.0730
    5loPI   C5A   75  13.148   5.126   8.474 -0.5343  0.1432 -0.1628
    5loPI   C6A   76  12.861   5.438   8.250  0.1619  0.0416  0.1604
    5loPI   C1B   77  13.185   4.773  10.072 -0.0323  0.0957  0.2444
    5loPI   C2B   78  13.238   4.716   9.679  0.2260  0.0315 -0.1656
    5loPI   C3B   79  13.162   4.791   9.275 -0.1489  0.2382  0.0444
    5loPI   C4B   80  13.123   4.759   8.813  0.1380 -0.0080 -0.0145
    6loPI    C1   81   8.594   9.189  11.066 -0.2792 -0.2754  0.0642
    6loPI    C2   82   8.771   9.133  11.420  0.1171  0.3031 -0.0277
    6loPI    C3   83   8.407   9.299  11.402  0.0238  0.1183  0.1104
    6loPI   PO4   84   8.770   9.035  10.913  0.0306  0.0056  0.0407
    6loPI   GL1   85   8.899   8.905  10.461 -0.0521  0.0095  0.0663
    6loPI   GL2   86   8.627   8.653  10.589  0.1873 -0.0419 -0.2400
    6loPI   C1A   87   8.962   8.922  10.004 -0.2110 -0.0472 -0.0544
    6loPI   C2A   88   8.977   9.049   9.624  0.0836 -0.1325  0.3684
    6loPI   C3A   89   9.098   9.086   9.277  0.2241  0.0138  0.1555
    6loPI   C4A   90   9.012   9.007   8.772  0.2332  0.2686  0.0765
    6loPI   C5A   91   8.709   8.773   8.508  0.2316 -0.0766 -0.0264
    6loPI   C6A   92   8.548   8.479   8.294 -0.0168  0.0268 -0.1109
    6loPI   C1B   93   8.495   8.700  10.152  0.0616  0.0387 -0.0816
    6loPI   C2B   94   8.548   8.811   9.735  0.1328  0.1374 -0.1931
    6loPI   C3B   95   8.652   8.691   9.395 -0.1657  0.2057  0.1257
    6loPI   C4B   96   8.717   8.574   8.985  0.1875  0.1998  0.1106
    7loPI    C1   97  14.333   3.865  11.089 -0.0949  0.0886 -0.0505
    7loPI    C2   98  14.631   3.792  11.345 -0.1654 -0.0452 -0.0063
    7loPI    C3   99  14.506   4.167  11.287  0.0530  0.0188 -0.0719
    7loPI   PO4  100  14.258   3.646  10.986 -0.0219 -0.0424  0.3496
    7loPI   GL1  101  14.154   3.491  10.579 -0.1904  0.4091 -0.2059
    7loPI   GL2  102  14.092   3.220  10.495  0.3254  0.2749  0.1015
    7loPI   C1A  103  14.114   3.674  10.160 -0.0517 -0.1334 -0.0199
    7loPI   C2A  104  13.995   3.582   9.790  0.1354  0.2548 -0.0246
    7loPI   C3A  105  13.933   3.527   9.433  0.0269 -0.1746  0.2263
    7loPI   C4A  106  13.931   3.612   9.033 -0.3422 -0.1146 -0.1146
    7loPI   C5A  107  14.072   3.588   8.595 -0.0736  0.0297  0.0968
    7loPI   C6A  108  13.776   3.570   8.234 -0.0666  0.0915  0.0947
    7loPI   C1B  109  14.088   3.041  10.066 -0.0065 -0.2184 -0.2238
    7loPI   C2B  110  14.028   3.081   9.639  0.1966 -0.2614 -0.0389
    7loPI   C3B  111  14.021   3.096   9.138 -0.0784 -0.4871 -0.0558
    7loPI   C4B  112  13.953   3.069   8.713 -0.0574 -0.1911  0.1946
    8loPI    C1  113  11.009   7.596  11.218 -0.1743 -0.0792  0.0868
    8loPI    C2  114  10.960   7.967  11.359 -0.1502 -0.0369 -0.0158
    8loPI    C3  115  10.897   7.653  11.598  0.1473  0.0387  0.1673
    8loPI   PO4  116  11.164   7.522  10.992  0.0139  0.4113  0.1310
    8loPI   GL1  117  11.131   7.480  10.605  0.2594 -0.1442 -0.1141
    8loPI   GL2  118  11.417   7.374  10.532  0.0666 -0.1058 -0.0624
    8loPI   C1A  119  11.328   7.858  10.369 -0.3332  0.1285 -0.0557
    8loPI   C2A  120  11.187   7.991  10.009 -0.1262 -0.0635 -0.1042
    8loPI   C3A  121  11.140   7.853   9.605 -0.2063 -0.2346  0.1758
    8loPI   C4A  122  11.142   7.925   9.139 -0.1366 -0.2531  0.0649
    8loPI   C5A  123  11.173   7.820   8.731 -0.0853 -0.0414  0.3966
    8loPI   C6A  124  11.567   7.825   8.316 -0.1716 -0.0878 -0.0690
    8loPI   C1B  125  11.322   7.370  10.143 -0.0406 -0.1125  0.1607
    8loPI   C2B  126  11.318   7.419   9.754  0.0749 -0.0769  0.2467
    8loPI   C3B  127  11.275   7.416   9.305  0.2396 -0.3040  0.0741
    8loPI   C4B  128  11.240   7.269   8.882  0.0510 -0.1176 -0.1994
    9loPI    C1  129  13.797   3.378  11.275 -0.0194 -0.0604  0.1009
    9loPI    C2  130  14.021   3.679  11.415  0.0767 -0.0275 -0.1193
    9loPI    C3  131  13.930   3.370  11.652  0.3298 -0.0263 -0.0173
    9loPI   PO4  132  13.891   3.332  11.061 -0.3741  0.1341 -0.1134
    9loPI   GL1  133  13.684   3.366  10.728 -0.2612 -0.0411 -0.0461
    9loPI   GL2  134  13.557   3.106  10.612 -0.0546  0.3239 -0.5545
    9loPI   C1A  135  13.700   3.349  10.192  0.0390 -0.2399 -0.1088
    9loPI   C2A  136  13.540   3.244   9.781 -0.1702  0.0519  0.0930
    9loPI   C3A  137  13.503   3.282   9.381  0.1225  0.1426 -0.0221
    9loPI   C4A  138  13.560   3.289   8.931 -0.1207  0.2863 -0.2177
    9loPI   C5A  139  13.491   3.163   8.447  0.2091 -0.0867  0.1699
    9loPI   C6A  140  13.198   2.822   8.344 -0.0315 -0.0447 -0.1210
    9loPI   C1B  141  13.379   2.908  10.162  0.1564  0.2880 -0.1101
    9loPI   C2B  142  13.099   2.952   9.782 -0.0195  0.1430  0.0749
    9loPI   C3B  143  13.028   2.902   9.332 -0.0659 -0.1733  0.0342
    9loPI   C4B  144  13.057   2.872   8.917 -0.0481  0.2042 -0.0065
   10loPI    C1  145  15.635   8.388  10.916 -0.0564  0.1730  0.3099
   10loPI    C2  146  15.507   8.185  11.236  0.0971 -0.1990  0.1423
   10loPI    C3  147  15.626   7.988  10.909  0.0039  0.1739 -0.1236
   10loPI   PO4  148  15.434   8.493  10.817 -0.2023 -0.1910  0.4216
   10loPI   GL1  149  15.321   8.546  10.486  0.1166  0.3709  0.0062
   10loPI   GL2  150  15.179   8.773  10.246  0.1271 -0.0918 -0.0827
   10loPI   C1A  151  15.342   8.309  10.034  0.1791  0.0493 -0.1067
   10loPI   C2A  152  15.097   8.183   9.666 -0.1683  0.0049 -0.1468
   10loPI   C3A  153  14.968   8.166   9.269  0.2755  0.0793  0.0001
   10loPI   C4A  154  14.892   7.963   8.975  0.1610 -0.0019 -0.0804
   10loPI   C5A  155  14.843   7.800   8.615 -0.3032  0.0715  0.0468
   10loPI   C6A  156  14.751   7.930   8.232  0.0875 -0.2915  0.3277
   10loPI   C1B  157  15.096   8.971   9.878 -0.1726 -0.1166 -0.0862
   10loPI   C2B  158  15.027   9.070   9.483 -0.0854  0.2659 -0.0019
   10loPI   C3B  159  15.020   9.031   9.061  0.1661  0.1532  0.1241
   10loPI   C4B  160  15.167   8.698   8.735 -0.4052  0.2607 -0.0560
   11loPI    C1  161   6.330   8.767  11.107  0.0295  0.0740 -0.0713
   11loPI    C2  162   6.074   8.478  11.212  0.0394 -0.0197 -0.3001
   11loPI    C3  163   6.388   8.562  11.445 -0.0235 -0.1203 -0.1784
   11loPI   PO4  164   6.413   8.758  10.867  0.0768  0.0226  0.4043
   11loPI   GL1  165   6.627   8.656  10.487  0.1478 -0.0618  0.1804
   11loPI   GL2  166   6.847   8.463  10.565 -0.0339 -0.1908 -0.3375
   11loPI   C1A  167   6.300   8.511  10.196 -0.2844  0.0499  0.0473
   11loPI   C2A  168   6.309   8.417   9.822  0.1497 -0.0721 -0.2640
   11loPI   C3A  169   6.456   8.424   9.450  0.3030 -0.0631 -0.2171
   11loPI   C4A  170   6.474   8.436   9.022 -0.0533 -0.2299  0.0889
   11loPI   C5A  171   6.591   8.464   8.619  0.0398 -0.2214 -0.3843
   11loPI   C6A  172   6.945   8.243   8.376  0.3741  0.0630 -0.0145
   11loPI   C1B  173   6.753   8.314  10.165  0.2115  0.0215  0.0204
   11loPI   C2B  174   6.811   8.234   9.841  0.2310  0.1093 -0.1007
   11loPI   C3B  175   6.938   8.286   9.397  0.2302 -0.2888 -0.1296
   11loPI   C4B  176   6.943   8.316   8.923  0.0245 -0.0781 -0.0682
   12loPI    C1  177  15.975   5.911  11.170 -0.0824 -0.0650  0.0124
   12loPI    C2  178  15.988   5.513  11.208  0.0338 -0.0642 -0.0121
   12loPI    C3  179  16.213   5.743  11.445  0.1023 -0.0211 -0.1190
   12loPI   PO4  180  15.942   6.014  10.911 -0.0195  0.0333 -0.1105
   12loPI   GL1  181  15.824   5.958  10.467 -0.2725 -0.2687  0.1807
   12loPI   GL2  182  15.733   6.201  10.378 -0.2648 -0.0680  0.1646
   12loPI   C1A  183  15.801   5.702  10.145  0.1129  0.1822  0.2745
   12loPI   C2A  184  15.859   5.753   9.683  0.1459  0.0474 -0.3624
   12loPI   C3A  185  15.776   5.756   9.251 -0.1188 -0.1191 -0.2721
   12loPI   C4A  186  15.781   5.851   8.971 -0.0329  0.1088  0.0959
   12loPI   C5A  187  15.730   5.850   8.511 -0.0032 -0.0279  0.0227
   12loPI   C6A  188  15.428   5.690   8.167  0.1227  0.0187  0.1066
   12loPI   C1B  189  15.826   6.227   9.985 -0.0271  0.0990 -0.0175
   12loPI   C2B  190  15.719   6.207   9.621 -0.1080 -0.3734  0.1898
   12loPI   C3B  191  15.652   6.301   9.182 -0.0946 -0.0422  0.0422
   12loPI   C4B  192  15.624   6.297   8.766 -0.0216  0.1911 -0.0590
   13loPI    C1  193  15.685   3.414  10.943  0.0931 -0.1283  0.0481
   13loPI    C2  194  15.641   3.106  11.195  0.0113 -0.1515  0.0056
   13loPI    C3  195  15.625   3.481  11.333  0.0035 -0.1647  0.0408
   13loPI   PO4  196  15.546   3.300  10.682 -0.0010 -0.3000  0.3620
   13loPI   GL1  197  15.553   3.104  10.344  0.1666  0.1748  0.0855
   13loPI   GL2  198  15.229   3.087  10.371 -0.0451 -0.0865  0.0038
   13loPI   C1A  199  15.497   2.994   9.888  0.0013 -0.0528 -0.1778
   13loPI   C2A  200  15.403   3.109   9.491  0.2433  0.1573  0.5118
   13loPI   C3A  201  15.396   2.992   9.030 -0.0942  0.0154 -0.0984
   13loPI   C4A  202  15.384   3.058   8.647 -0.1011  0.2142  0.1945
   13loPI   C5A  203  15.129   3.285   8.364  0.0678 -0.2257 -0.1244
   13loPI   C6A  204  14.890   3.629   8.108  0.2189  0.0225  0.1419
   13loPI   C1B  205  15.055   3.097  10.059 -0.3503  0.1580 -0.0800
   13loPI   C2B  206  14.972   3.258   9.659 -0.0940  0.0455 -0.1067
   13loPI   C3B  207  14.892   3.228   9.218 -0.1148  0.0373  0.0248
   13loPI   C4B  208  14.916   3.259   8.825  0.1428  0.0573 -0.1331
   14loPI    C1  209   9.805  15.537  11.202 -0.1341  0.1645 -0.0842
   14loPI    C2  210   9.891  15.809  11.483 -0.2628  0.1562 -0.0358
   14loPI    C3  211   9.539  15.619  11.489 -0.1382 -0.0786 -0.0162
   14loPI   PO4  212   9.926  15.616  10.975 -0.0462  0.0942 -0.0798
   14loPI   GL1  213  10.232  15.520  10.688  0.0816 -0.0051 -0.2203
   14loPI   GL2  214  10.244  15.249  10.781 -0.0875  0.4721  0.0366
   14loPI   C1A  215  10.547  15.771  10.318 -0.2356  0.0061 -0.1013
   14loPI   C2A  216  10.524  15.695   9.871 -0.0552 -0.2570 -0.0797
   14loPI   C3A  217  10.490  15.757   9.478 -0.0855 -0.1644 -0.1600
   14loPI   C4A  218  10.475  15.852   9.058  0.0816 -0.2951  0.2946
   14loPI   C5A  219  10.529  15.714   8.754 -0.2490 -0.0863 -0.1125
   14loPI   C6A  220  10.907  15.471   8.612 -0.2689  0.0937  0.1958
   14loPI   C1B  221  10.223  15.342  10.259  0.0884  0.0111  0.2546
   14loPI   C2B  222  10.142  15.304   9.893 -0.0558 -0.1040 -0.1624
   14loPI   C3B  223  10.131  15.352   9.499  0.0572  0.0900 -0.3034
   14loPI   C4B  224  10.106  15.528   9.161  0.1324 -0.0777  0.0153
   15loPI    C1  225   7.517   0.031  11.081  0.0539 -0.2153 -0.1056
   15loPI    C2  226   7.556  -0.176  11.421 -0.0038  0.0052  0.0376
   15loPI    C3  227   7.224  -0.212  11.202 -0.1459  0.1759  0.2217
   15loPI   PO4  228   7.627  -0.010  10.938  0.0738 -0.0384 -0.1486
   15loPI   GL1  229   7.731   0.185  10.537 -0.1281  0.1549 -0.1721
   15loPI   GL2  230   7.639  -0.028  10.353  0.0091  0.0559  0.1399
   15loPI   C1A  231   7.616   0.413  10.158 -0.1778  0.0465  0.0326
   15loPI   C2A  232   7.533   0.514   9.777 -0.1125 -0.0058  0.0875
   15loPI   C3A  233   7.538   0.479   9.318  0.0099  0.1324 -0.3760
   15loPI   C4A  234   7.719   0.454   8.982  0.2478 -0.0630 -0.0763
   15loPI   C5A  235   7.720   0.435   8.616  0.1367 -0.1611 -0.2178
   15loPI   C6A  236   7.543   0.184   8.309 -0.0612  0.0024 -0.0470
   15loPI   C1B  237   7.708  -0.231   9.987 -0.0120 -0.0761 -0.0362
   15loPI   C2B  238   7.719  -0.295   9.666  0.2810  0.2270 -0.1508
   15loPI   C3B  239   7.813  -0.156   9.210  0.0828  0.0901 -0.0077
   15loPI   C4B  240   7.787  -0.073   8.787  0.0980  0.2164 -0.2210
   16loPI    C1  241   2.149   7.388  10.082  0.2624 -0.2072  0.1678
   16loPI    C2  242   2.516   7.361   9.925  0.0845  0.4029 -0.3960
   16loPI    C3  243   2.460   7.554  10.271  0.3498 -0.1239 -0.0460
   16loPI   PO4  244   2.038   7.085   9.993 -0.1114  0.1190  0.0378
   16loPI   GL1  245   2.042   6.851   9.564 -0.0074 -0.0242  0.0784
   16loPI   GL2  246   2.322   6.868   9.708 -0.1073  0.1877  0.3081
   16loPI   C1A  247   2.158   6.777   9.170 -0.0960  0.0598 -0.0060
   16loPI   C2A  248   2.043   6.844   8.728  0.1688  0.0254 -0.0483
   16loPI   C3A  249   2.046   7.068   8.357 -0.0358  0.1771 -0.0431
   16loPI   C4A  250   2.217   7.034   7.980 -0.1225 -0.0061 -0.3337
   16loPI   C5A  251   2.459   6.847   7.639 -0.2001 -0.2289 -0.2713
   16loPI   C6A  252   2.487   6.817   7.213  0.1401  0.0067  0.2142
   16loPI   C1B  253   2.460   7.152   9.326 -0.0386 -0.0705 -0.1686
   16loPI   C2B  254   2.518   7.196   8.901 -0.1143  0.0647  0.0673
   16loPI   C3B  255   2.753   7.148   8.564 -0.5158  0.2018  0.1781
   16loPI   C4B  256   2.733   7.101   8.046 -0.0200 -0.2299  0.3030
   17loPI    C1  257   5.314  16.950  10.961  0.1466 -0.2699 -0.1501
   17loPI    C2  258   5.560  17.244  11.075  0.0612 -0.1686 -0.2256
   17loPI    C3  259   5.574  16.890  11.259 -0.1115  0.0092  0.1392
   17loPI   PO4  260   5.393  16.839  10.755 -0.0308  0.0467  0.0444
   17loPI   GL1  261   5.325  16.707  10.333 -0.0872 -0.0613 -0.1570
   17loPI   GL2  262   5.439  16.798  10.132 -0.2074  0.0376 -0.0507
   17loPI   C1A  263   5.023  16.492  10.059  0.0421 -0.2384 -0.1441
   17loPI   C2A  264   4.953  16.512   9.678  0.0410  0.1404 -0.1395
   17loPI   C3A  265   5.057  16.509   9.303 -0.0724  0.0751 -0.0088
   17loPI   C4A  266   5.166  16.475   8.927 -0.0706  0.1818 -0.1263
   17loPI   C5A  267   5.274  16.531   8.569  0.2108 -0.0385  0.0699
   17loPI   C6A  268   5.113  16.458   8.209  0.1138  0.0993  0.1419
   17loPI   C1B  269   5.327  16.814   9.860  0.2796  0.1305  0.0652
   17loPI   C2B  270   5.433  16.774   9.431  0.1936  0.2683 -0.0939
   17loPI   C3B  271   5.589  16.824   8.985  0.1635 -0.5489  0.1869
   17loPI   C4B  272   5.431  16.986   8.614 -0.2694 -0.1339 -0.1645
   18loPI    C1  273  10.292  15.389  11.278  0.1099 -0.1027  0.2243
   18loPI    C2  274  10.377  15.637  11.580 -0.2150  0.2886  0.0048
   18loPI    C3  275  10.080  15.372  11.617  0.0714 -0.0117  0.2052
   18loPI   PO4  276  10.508  15.274  11.227  0.0090 -0.0552 -0.0374
   18loPI   GL1  277  10.812  15.310  10.908  0.0537  0.2269  0.0847
   18loPI   GL2  278  10.938  15.564  10.766  0.0262 -0.1470  0.4305
   18loPI   C1A  279  10.637  15.239  10.466 -0.0430  0.1359 -0.1520
   18loPI   C2A  280  10.690  15.274  10.033 -0.0109 -0.0227  0.0217
   18loPI   C3A  281  10.643  15.197   9.606  0.2162  0.4528  0.0045
   18loPI   C4A  282  10.585  15.353   9.148 -0.1718 -0.0014  0.1088
   18loPI   C5A  283  10.455  15.211   8.696  0.0285  0.1598  0.0532
   18loPI   C6A  284  10.288  15.113   8.217  0.0140  0.1744 -0.1376
   18loPI   C1B  285  11.002  15.575  10.279  0.0579 -0.2281  0.1164
   18loPI   C2B  286  11.021  15.682   9.862  0.0816 -0.0685  0.1414
   18loPI   C3B  287  10.926  15.597   9.452  0.0218  0.3286  0.1552
   18loPI   C4B  288  10.972  15.679   9.056 -0.0093  0.1714  0.0098
   19loPI    C1  289   9.962  15.021  11.092  0.0463  0.0505  0.0017
   19loPI    C2  290   9.794  14.999  11.455 -0.0644 -0.0660 -0.0560
   19loPI    C3  291  10.177  14.894  11.405 -0.0294  0.0154  0.0398
   19loPI   PO4  292   9.772  14.912  10.956  0.1955  0.1307 -0.1010
   19loPI   GL1  293   9.676  14.977  10.552  0.0598  0.1707  0.0832
   19loPI   GL2  294   9.737  15.354  10.643  0.0539  0.2090  0.2289
   19loPI   C1A  295   9.731  15.025  10.061  0.0950 -0.2096  0.1010
   19loPI   C2A  296   9.721  15.035   9.562 -0.2234  0.1690 -0.2318
   19loPI   C3A  297   9.768  15.018   9.191  0.2165 -0.2517 -0.0738
   19loPI   C4A  298   9.883  15.225   8.784 -0.1699 -0.1190 -0.2902
   19loPI   C5A  299  10.002  15.573   8.676  0.0371  0.0228 -0.0657
   19loPI   C6A  300  10.160  16.081   8.714 -0.3739  0.0429  0.0571
   19loPI   C1B  301   9.694  15.429  10.236  0.2428  0.1748  0.0826
   19loPI   C2B  302   9.687  15.512   9.751 -0.3242  0.1338 -0.2961
   19loPI   C3B  303   9.625  15.493   9.429  0.2535  0.0129 -0.1535
   19loPI   C4B  304   9.604  15.548   9.084 -0.2449 -0.0957  0.0110
   20loPI    C1  305   1.726   5.179  10.081 -0.0531 -0.0556  0.1092
   20loPI    C2  306   1.499   4.858  10.154 -0.0932 -0.0755 -0.0976
   20loPI    C3  307   1.341   5.178   9.974 -0.0591  0.0706  0.1282
   20loPI   PO4  308   1.979   5.055   9.981  0.2554  0.0643  0.1617
   20loPI   GL1  309   2.237   5.012   9.693 -0.1490  0.0976  0.2938
   20loPI   GL2  310   2.311   5.293   9.640 -0.0521  0.0116  0.0274
   20loPI   C1A  311   1.925   4.924   9.364 -0.1197  0.1002 -0.0931
   20loPI   C2A  312   1.946   4.828   9.000  0.1914  0.2424  0.0650
   20loPI   C3A  313   1.947   4.764   8.625  0.1304  0.0499 -0.0246
   20loPI   C4A  314   1.980   4.786   8.241  0.1952 -0.1826  0.2629
   20loPI   C5A  315   1.957   4.983   7.902 -0.0772  0.1848  0.0169
   20loPI   C6A  316   1.992   5.342   7.606 -0.0270  0.2422 -0.3520
   20loPI   C1B  317   2.290   5.214   9.231  0.0536 -0.0712  0.1648
   20loPI   C2B  318   2.317   5.119   8.780  0.2426 -0.0318  0.0538
   20loPI   C3B  319   2.411   5.118   8.326 -0.1851 -0.0076 -0.2486
   20loPI   C4B  320   2.428   5.484   7.975  0.1536  0.4301  0.0897
   21loPI    C1  321  11.187   5.269  11.323 -0.0515  0.0686  0.0473
   21loPI    C2  322  10.835   5.270  11.512 -0.1029 -0.1357 -0.0454
   21loPI    C3  323  10.951   5.591  11.304 -0.1012  0.0441  0.2284
   21loPI   PO4  324  11.249   4.967  11.233  0.1366 -0.0946 -0.3624
   21loPI   GL1  325  11.181   4.836  10.804  0.2280  0.1718 -0.0424
   21loPI   GL2  326  11.448   4.823  10.624  0.0992  0.2001 -0.0681
   21loPI   C1A  327  10.870   4.864  10.538 -0.4009  0.0517  0.0446
   21loPI   C2A  328  10.806   5.095  10.165 -0.2955  0.1414 -0.0792
   21loPI   C3A  329  10.822   5.008   9.704 -0.0646  0.1850 -0.1179
   21loPI   C4A  330  10.733   5.074   9.248 -0.0338  0.1073 -0.2210
   21loPI   C5A  331  10.699   5.119   8.778  0.0605  0.3001 -0.2263
   21loPI   C6A  332  10.639   5.196   8.418  0.1644 -0.3504  0.1259
   21loPI   C1B  333  11.281   4.889  10.234 -0.0647 -0.0145  0.0493
   21loPI   C2B  334  11.304   4.878   9.846 -0.1231  0.1107  0.2339
   21loPI   C3B  335  11.344   4.867   9.435  0.0859  0.0827 -0.0384
   21loPI   C4B  336  11.218   4.997   9.008  0.1106 -0.0295 -0.0886
   22loPI    C1  337   6.669  13.010  11.128  0.2474  0.0571 -0.0576
   22loPI    C2  338   6.437  13.272  11.321  0.0807  0.0376 -0.2279
   22loPI    C3  339   6.835  13.298  11.349  0.0668 -0.2949  0.5616
   22loPI   PO4  340   6.573  12.891  10.861  0.0348  0.1300  0.0219
   22loPI   GL1  341   6.574  12.968  10.468  0.0703  0.2132 -0.0411
   22loPI   GL2  342   6.634  13.159  10.252  0.0905 -0.1433 -0.1455
   22loPI   C1A  343   6.692  12.687  10.101 -0.1701  0.1190 -0.0898
   22loPI   C2A  344   6.772  12.661   9.726  0.0873  0.0264 -0.0757
   22loPI   C3A  345   6.820  12.713   9.236  0.0249  0.1121 -0.3151
   22loPI   C4A  346   6.965  12.704   8.850 -0.1530 -0.0558  0.1084
   22loPI   C5A  347   6.864  12.831   8.507  0.0270 -0.0818 -0.3472
   22loPI   C6A  348   6.611  13.171   8.363  0.0949 -0.1609  0.0478
   22loPI   C1B  349   6.694  13.168   9.816  0.1809 -0.0907  0.4361
   22loPI   C2B  350   6.690  13.100   9.400  0.0436 -0.1330  0.0983
   22loPI   C3B  351   6.818  13.127   8.951 -0.0886 -0.0628  0.0257
   22loPI   C4B  352   7.021  13.262   8.570 -0.1887 -0.0685  0.0642
   23loPI    C1  353  11.437  15.714  11.234 -0.0272  0.1862  0.1881
   23loPI    C2  354  11.436  15.450  11.535  0.0189 -0.0286  0.0018
   23loPI    C3  355  11.768  15.657  11.452  0.0076  0.0276  0.0954
   23loPI   PO4  356  11.339  15.558  11.036  0.2129 -0.5156  0.2081
   23loPI   GL1  357  11.399  15.792  10.682  0.2695 -0.2989 -0.4883
   23loPI   GL2  358  11.472  15.524  10.515 -0.1540  0.0414  0.4343
   23loPI   C1A  359  11.472  16.056  10.307  0.3367  0.4403  0.1572
   23loPI   C2A  360  11.412  16.005   9.912 -0.0067 -0.1694  0.1259
   23loPI   C3A  361  11.292  15.949   9.452  0.1618 -0.1538  0.0450
   23loPI   C4A  362  11.316  16.033   9.028  0.3291  0.2534 -0.1850
   23loPI   C5A  363  11.610  16.081   8.666 -0.1481 -0.2507  0.0052
   23loPI   C6A  364  11.610  15.757   8.413 -0.0924 -0.2209 -0.2108
   23loPI   C1B  365  11.555  15.453  10.081 -0.0145 -0.0840  0.2093
   23loPI   C2B  366  11.565  15.535   9.616  0.1230 -0.0693 -0.2584
   23loPI   C3B  367  11.426  15.489   9.134 -0.0065 -0.2891  0.3059
   23loPI   C4B  368  11.408  15.501   8.792  0.1865 -0.1489  0.1588
   24loPI    C1  369   0.289   7.275  10.264  0.1172 -0.0311 -0.0049
   24loPI    C2  370   0.165   6.995  10.521  0.0496  0.0051  0.0022
   24loPI    C3  371   0.249   7.364  10.652  0.0376  0.0171 -0.0238
   24loPI   PO4  372   0.055   7.269  10.068  0.0064  0.0150 -0.0636
   24loPI   GL1  373  -0.076   7.407   9.793  0.3672 -0.1542 -0.0699
   24loPI   GL2  374  -0.287   7.625   9.618  0.1878  0.2210  0.0814
   24loPI   C1A  375   0.001   7.433   9.321 -0.1856 -0.3865 -0.3871
   24loPI   C2A  376  -0.064   7.475   8.884 -0.1995  0.0582 -0.1343
   24loPI   C3A  377   0.013   7.508   8.427 -0.2182 -0.0145 -0.1308
   24loPI   C4A  378   0.069   7.748   8.088 -0.0770  0.1443 -0.2701
   24loPI   C5A  379   0.157   7.818   7.675  0.2219  0.2393 -0.0959
   24loPI   C6A  380   0.259   7.642   7.272  0.2308  0.0035  0.0696
   24loPI   C1B  381  -0.485   7.552   9.264 -0.0702  0.1572  0.0514
   24loPI   C2B  382  -0.558   7.631   8.869 -0.1444  0.0715  0.0317
   24loPI   C3B  383  -0.421   7.687   8.445 -0.2082  0.0773 -0.2342
   24loPI   C4B  384  -0.529   7.849   8.053  0.0519  0.1170 -0.1159
   25loPI    C1  385  10.860   6.572  11.295 -0.1813  0.0392 -0.0299
   25loPI    C2  386  10.662   6.358  11.570 -0.1194  0.1199  0.0780
   25loPI    C3  387  10.782   6.731  11.654 -0.0640  0.1301 -0.0441
   25loPI   PO4  388  10.959   6.438  11.188  0.0625 -0.1633 -0.0757
   25loPI   GL1  389  11.013   6.275  10.810 -0.1873  0.1818 -0.1742
   25loPI   GL2  390  10.920   6.498  10.659 -0.0414 -0.1293 -0.0831
   25loPI   C1A  391  11.165   5.998  10.461 -0.1166 -0.0734 -0.1459
   25loPI   C2A  392  11.102   5.849  10.078  0.1196  0.0608 -0.0093
   25loPI   C3A  393  11.088   5.859   9.719 -0.1840  0.0363  0.1237
   25loPI   C4A  394  11.155   6.037   9.395 -0.0584  0.0403 -0.1061
   25loPI   C5A  395  11.114   6.015   9.019  0.3472  0.0216 -0.0700
   25loPI   C6A  396  11.224   5.868   8.600  0.0862 -0.0437 -0.2235
   25loPI   C1B  397  10.997   6.433  10.256  0.1475  0.1794 -0.1463
   25loPI   C2B  398  11.036   6.360   9.792  0.3825  0.1747  0.1093
   25loPI   C3B  399  11.003   6.454   9.308 -0.0722 -0.3426  0.0699
   25loPI   C4B  400  10.917   6.488   8.861  0.0094  0.0897 -0.0691
   26loPI    C1  401  12.615   6.695  11.200 -0.0776 -0.1872 -0.0196
   26loPI    C2  402  12.898   6.489  11.393  0.0021 -0.0153  0.0488
   26loPI    C3  403  12.554   6.579  11.578 -0.0156 -0.0502  0.0330
   26loPI   PO4  404  12.651   6.612  10.981  0.1262  0.1318 -0.2973
   26loPI   GL1  405  12.276   6.520  10.757 -0.2227  0.1578 -0.3809
   26loPI   GL2  406  12.302   6.865  10.649 -0.0029 -0.0680  0.0904
   26loPI   C1A  407  12.315   6.456  10.294 -0.0078 -0.2844 -0.1003
   26loPI   C2A  408  12.386   6.397   9.975 -0.0780 -0.0785  0.1205
   26loPI   C3A  409  12.401   6.427   9.524  0.3563 -0.1500  0.0722
   26loPI   C4A  410  12.421   6.518   9.159 -0.0527  0.4021  0.3027
   26loPI   C5A  411  12.355   6.480   8.744  0.0772 -0.0043  0.0618
   26loPI   C6A  412  11.951   6.545   8.495  0.1301 -0.1436  0.2171
   26loPI   C1B  413  12.386   7.000  10.297  0.2149 -0.3409  0.0452
   26loPI   C2B  414  12.374   6.921   9.876  0.2795 -0.0949 -0.1242
   26loPI   C3B  415  12.357   6.963   9.413 -0.2811  0.1755  0.1852
   26loPI   C4B  416  12.238   6.989   9.011  0.1910 -0.2917  0.1633
   27loPI    C1  417  17.294  11.567  10.487 -0.2716 -0.0539  0.0451
   27loPI    C2  418  17.564  11.694  10.753  0.0165 -0.1176 -0.2112
   27loPI    C3  419  17.287  11.427  10.862 -0.1104  0.1431  0.1235
   27loPI   PO4  420  17.454  11.556  10.266  0.0576  0.0838  0.0830
   27loPI   GL1  421  17.388  11.469   9.903 -0.1856 -0.0276 -0.0958
   27loPI   GL2  422  17.669  11.550   9.696  0.0604  0.1169  0.0244
   27loPI   C1A  423  17.151  11.364   9.566 -0.0921 -0.0034  0.0999
   27loPI   C2A  424  17.059  11.324   9.071 -0.0166  0.1093  0.1316
   27loPI   C3A  425  17.140  11.205   8.583 -0.1069  0.2378  0.0495
   27loPI   C4A  426  17.236  11.110   8.166  0.4235 -0.1381 -0.2809
   27loPI   C5A  427  17.310  11.260   7.692 -0.0899  0.2222  0.2405
   27loPI   C6A  428  17.529  11.635   7.545 -0.0053 -0.2198  0.0407
   27loPI   C1B  429  17.556  11.333   9.304 -0.4364  0.0802  0.0913
   27loPI   C2B  430  17.559  11.305   8.957  0.0309  0.0549  0.0416
   27loPI   C3B  431  17.662  11.372   8.551  0.2606  0.2917  0.3893
   27loPI   C4B  432  17.633  11.372   8.049  0.0587  0.0596  0.2241
   28loPI    C1  433  16.689  10.575  10.023  0.2470  0.0492 -0.1150
   28loPI    C2  434  16.611  10.342  10.339  0.0108  0.0228 -0.1905
   28loPI    C3  435  16.796  10.190  10.019  0.3714  0.0821 -0.0155
   28loPI   PO4  436  16.408  10.694   9.996 -0.0862 -0.0766  0.0307
   28loPI   GL1  437  16.025  10.583   9.789  0.0285 -0.1745  0.2666
   28loPI   GL2  438  15.970  10.275   9.690  0.2742 -0.1130  0.4395
   28loPI   C1A  439  16.340  10.458   9.421  0.3367 -0.1710  0.1512
   28loPI   C2A  440  16.356  10.375   9.008 -0.0477  0.3403 -0.0721
   28loPI   C3A  441  16.121  10.462   8.607 -0.0033  0.2056  0.2313
   28loPI   C4A  442  16.249  10.545   8.230 -0.1086  0.0689 -0.1150
   28loPI   C5A  443  16.455  10.589   7.772  0.0614 -0.4817  0.0352
   28loPI   C6A  444  16.575  10.315   7.499  0.1674  0.0849  0.0883
   28loPI   C1B  445  15.838  10.470   9.277 -0.1223 -0.2885  0.2293
   28loPI   C2B  446  15.738  10.566   8.923 -0.3272 -0.3322  0.1114
   28loPI   C3B  447  15.676  10.638   8.528 -0.0612  0.2234  0.0443
   28loPI   C4B  448  15.763  10.707   8.151 -0.1149  0.0457 -0.0171
   29loPI    C1  449   5.569   6.371  11.283  0.0634 -0.1525 -0.1917
   29loPI    C2  450   5.399   6.068  11.482 -0.2754  0.1171 -0.0603
   29loPI    C3  451   5.566   6.371  11.683 -0.0890  0.1031 -0.1909
   29loPI   PO4  452   5.415   6.454  11.088 -0.2278 -0.1585 -0.1609
   29loPI   GL1  453   5.545   6.387  10.644 -0.1963  0.0688 -0.1976
   29loPI   GL2  454   5.638   6.747  10.642  0.1997 -0.0738 -0.1306
   29loPI   C1A  455   5.329   6.259  10.216 -0.2260 -0.0831 -0.1691
   29loPI   C2A  456   5.344   6.406   9.768  0.1029  0.0382 -0.3540
   29loPI   C3A  457   5.386   6.326   9.319  0.0225  0.1754  0.0536
   29loPI   C4A  458   5.451   6.444   8.913 -0.0872  0.0664 -0.1298
   29loPI   C5A  459   5.557   6.438   8.573  0.0197 -0.0609  0.1108
   29loPI   C6A  460   5.714   6.663   8.181 -0.2588  0.0970  0.1648
   29loPI   C1B  461   5.851   6.779  10.210 -0.1538 -0.2370 -0.1621
   29loPI   C2B  462   5.797   6.723   9.750 -0.1674  0.0302 -0.0693
   29loPI   C3B  463   5.852   6.708   9.352 -0.2682  0.0438  0.2763
   29loPI   C4B  464   5.933   6.658   8.913 -0.0799  0.1054  0.1343
   30loPI    C1  465  15.493   0.887  10.684  0.0538  0.0640  0.1276
   30loPI    C2  466  15.361   0.511  10.717  0.0296  0.0630  0.0220
   30loPI    C3  467  15.596   0.666  11.001 -0.0049 -0.0136  0.0928
   30loPI   PO4  468  15.274   1.010  10.649 -0.1375 -0.2627 -0.0535
   30loPI   GL1  469  15.175   1.292  10.350 -0.1606 -0.0634  0.0516
   30loPI   GL2  470  14.797   1.336  10.380  0.0784  0.1128  0.0265
   30loPI   C1A  471  15.034   1.413   9.896 -0.0658  0.0736 -0.0955
   30loPI   C2A  472  14.940   1.306   9.547  0.0719  0.0102  0.0362
   30loPI   C3A  473  14.835   1.360   9.147 -0.2068 -0.4285  0.1375
   30loPI   C4A  474  14.827   1.365   8.714  0.1137 -0.0762  0.0063
   30loPI   C5A  475  14.695   1.303   8.370  0.1978 -0.1479  0.0862
   30loPI   C6A  476  14.978   1.291   8.111 -0.2009  0.1286  0.0185
   30loPI   C1B  477  14.657   1.162   9.939  0.1205  0.1568  0.0955
   30loPI   C2B  478  14.466   1.042   9.551  0.2774 -0.1624 -0.1835
   30loPI   C3B  479  14.530   0.976   9.082  0.1951  0.0039 -0.2068
   30loPI   C4B  480  14.407   1.001   8.642 -0.1256  0.1460 -0.4468
   31loPI    C1  481  10.422  14.015  11.483 -0.0443  0.0709 -0.0410
   31loPI    C2  482  10.309  14.396  11.528  0.0476  0.1084 -0.1243
   31loPI    C3  483  10.609  14.249  11.748 -0.0916  0.0385  0.0216
   31loPI   PO4  484  10.377  13.971  11.251  0.0772 -0.0638  0.0395
   31loPI   GL1  485  10.253  14.217  10.974  0.0030  0.0445  0.0805
   31loPI   GL2  486  10.094  13.882  10.889  0.0943  0.0826 -0.0322
   31loPI   C1A  487  10.373  14.330  10.500 -0.3121 -0.2085 -0.1950
   31loPI   C2A  488  10.534  14.365  10.110  0.1202 -0.1571  0.1476
   31loPI   C3A  489  10.287  14.395   9.771  0.0478 -0.2699  0.0012
   31loPI   C4A  490  10.305  14.373   9.353 -0.2771  0.1096  0.0441
   31loPI   C5A  491  10.262  14.205   8.901 -0.0800 -0.0235  0.3032
   31loPI   C6A  492  10.368  14.341   8.588  0.2022  0.4673 -0.0713
   31loPI   C1B  493   9.995  14.033  10.397  0.1036 -0.0427  0.0334
   31loPI   C2B  494  10.018  14.073  10.098  0.0620 -0.0507  0.4410
   31loPI   C3B  495   9.945  14.078   9.652  0.2535  0.0527  0.0933
   31loPI   C4B  496   9.933  13.991   9.231 -0.0250 -0.2074 -0.0902
   32loPI    C1  497  15.679   2.394  10.691 -0.0449  0.2259  0.1231
   32loPI    C2  498  15.415   2.628  10.502 -0.2228  0.0866  0.1966
   32loPI    C3  499  15.570   2.744  10.852 -0.0796  0.2320  0.0867
   32loPI   PO4  500  15.917   2.204  10.552  0.1700 -0.0865 -0.0113
   32loPI   GL1  501  16.067   2.238  10.063  0.1795 -0.0238 -0.0112
   32loPI   GL2  502  16.302   1.997   9.970 -0.2772  0.1947 -0.0595
   32loPI   C1A  503  16.455   2.485   9.876 -0.1340  0.0206  0.1054
   32loPI   C2A  504  16.480   2.598   9.431 -0.1108 -0.0487 -0.5001
   32loPI   C3A  505  16.494   2.638   9.025  0.0894 -0.3286  0.0396
   32loPI   C4A  506  16.556   2.814   8.552  0.1994  0.2578 -0.1473
   32loPI   C5A  507  16.709   2.676   8.266 -0.0435 -0.2232  0.0298
   32loPI   C6A  508  16.447   2.751   7.931 -0.0437 -0.2297  0.0691
   32loPI   C1B  509  16.119   2.069   9.558  0.0422 -0.0042 -0.0566
   32loPI   C2B  510  16.067   2.358   9.137 -0.0531 -0.1726 -0.3126
   32loPI   C3B  511  15.904   2.438   8.796 -0.0098  0.0869  0.1044
   32loPI   C4B  512  15.684   2.612   8.328  0.2239  0.4531  0.0523
   33loPI    C1  513  10.358  16.291  11.286 -0.0776 -0.2400  0.0254
   33loPI    C2  514  10.377  16.120  11.647  0.2641 -0.0369  0.1085
   33loPI    C3  515  10.244  16.495  11.610 -0.0430 -0.1546 -0.0158
   33loPI   PO4  516  10.168  16.171  11.183  0.0518 -0.0400  0.0275
   33loPI   GL1  517   9.945  16.336  10.776 -0.0840 -0.1473 -0.1497
   33loPI   GL2  518  10.199  16.034  10.715  0.0464 -0.4449  0.1648
   33loPI   C1A  519   9.772  16.421  10.434 -0.1018 -0.3271 -0.2187
   33loPI   C2A  520   9.881  16.489  10.018  0.1781  0.3206 -0.1122
   33loPI   C3A  521   9.896  16.442   9.695 -0.1361 -0.2072  0.1508
   33loPI   C4A  522   9.754  16.377   9.277  0.0642  0.2715 -0.0819
   33loPI   C5A  523   9.882  16.484   8.933  0.2522 -0.0189  0.1499
   33loPI   C6A  524   9.776  16.774   8.644 -0.1125  0.1991  0.0343
   33loPI   C1B  525  10.383  16.240  10.315  0.1168  0.1798  0.0981
   33loPI   C2B  526  10.343  16.325   9.887 -0.0856 -0.0221 -0.0632
   33loPI   C3B  527  10.318  16.259   9.505  0.0913 -0.2620 -0.2294
   33loPI   C4B  528  10.320  16.335   9.139  0.0292 -0.0486  0.0473
   34loPI    C1  529  12.833  13.782  11.093  0.2086 -0.0221 -0.0325
   34loPI    C2  530  12.807  14.076  11.363  0.0417  0.1404 -0.2225
   34loPI    C3  531  12.738  13.698  11.472 -0.1283  0.2169 -0.0592
   34loPI   PO4  532  12.668  13.901  10.854 -0.0715 -0.3462  0.0890
   34loPI   GL1  533  12.800  14.179  10.516  0.0532  0.0337  0.1082
   34loPI   GL2  534  12.865  13.868  10.353 -0.1648 -0.0761  0.2319
   34loPI   C1A  535  12.978  14.339  10.050  0.1854 -0.0950  0.2724
   34loPI   C2A  536  13.028  14.515   9.542 -0.1093  0.0259 -0.1223
   34loPI   C3A  537  13.070  14.405   9.076 -0.1418 -0.1066  0.1922
   34loPI   C4A  538  12.962  14.548   8.667 -0.0106 -0.1166 -0.3047
   34loPI   C5A  539  13.150  14.677   8.335  0.1572 -0.1769 -0.1801
   34loPI   C6A  540  13.617  15.016   8.287  0.2214 -0.2059 -0.0942
   34loPI   C1B  541  12.821  13.864   9.992  0.1484  0.0013 -0.1149
   34loPI   C2B  542  12.896  14.037   9.654 -0.0786 -0.1168 -0.0833
   34loPI   C3B  543  12.662  14.191   9.290 -0.0976  0.1695  0.0801
   34loPI   C4B  544  12.659  14.086   8.873 -0.0849 -0.2518 -0.3730
   35loPI    C1  545   0.282  17.211  10.521  0.0645  0.1833  0.2426
   35loPI    C2  546   0.139  17.471  10.789  0.0155  0.2311  0.1704
   35loPI    C3  547   0.376  17.170  10.908  0.2058  0.4034  0.2330
   35loPI   PO4  548   0.393  17.415  10.319 -0.2128  0.0697  0.1103
   35loPI   GL1  549   0.608  17.319   9.914  0.4136  0.0031 -0.0119
   35loPI   GL2  550   0.882  17.084   9.818  0.0757 -0.0314  0.0082
   35loPI   C1A  551   0.520  17.548   9.539 -0.1630  0.0925  0.1326
   35loPI   C2A  552   0.536  17.554   9.076 -0.0331 -0.0610  0.2138
   35loPI   C3A  553   0.705  17.594   8.755 -0.1972 -0.1620 -0.0323
   35loPI   C4A  554   0.846  17.642   8.380  0.0081  0.0800  0.0526
   35loPI   C5A  555   0.951  17.709   7.978  0.0777  0.2916 -0.1127
   35loPI   C6A  556   0.772  17.837   7.615 -0.1096 -0.1483 -0.0421
   35loPI   C1B  557   0.796  17.054   9.327  0.1009  0.0135 -0.1276
   35loPI   C2B  558   0.690  17.110   8.924 -0.0497  0.3105 -0.0186
   35loPI   C3B  559   0.569  17.205   8.507  0.0776 -0.0259  0.0042
   35loPI   C4B  560   0.501  16.975   8.065 -0.0926  0.1740 -0.1931
   36loPI    C1  561   9.497  16.565  11.332 -0.0685 -0.0861  0.1740
   36loPI    C2  562   9.750  16.301  11.494  0.1728 -0.0020 -0.0578
   36loPI    C3  563   9.707  16.663  11.658 -0.0227 -0.1188  0.1545
   36loPI   PO4  564   9.492  16.541  11.127  0.1755 -0.2327 -0.3511
   36loPI   GL1  565   9.622  16.772  10.815  0.2488  0.1237 -0.0225
   36loPI   GL2  566   9.506  17.060  10.847  0.0605  0.1294 -0.0917
   36loPI   C1A  567   9.671  16.944  10.386 -0.1310 -0.1068 -0.2490
   36loPI   C2A  568   9.709  16.986   9.932 -0.0577  0.0488  0.0516
   36loPI   C3A  569   9.762  16.904   9.536  0.0794  0.1910  0.4703
   36loPI   C4A  570   9.637  16.948   9.129 -0.0113  0.0993  0.0377
   36loPI   C5A  571   9.316  17.015   8.865 -0.0918 -0.1714 -0.0094
   36loPI   C6A  572   9.517  17.188   8.523 -0.1694 -0.0565 -0.0460
   36loPI   C1B  573   9.298  17.212  10.573  0.0857 -0.0072 -0.1974
   36loPI   C2B  574   9.174  17.096  10.259 -0.2413 -0.0414  0.0057
   36loPI   C3B  575   9.213  17.139   9.817  0.1749 -0.0003  0.2644
   36loPI   C4B  576   9.256  17.166   9.347  0.2676 -0.3729 -0.0960
   37loPI    C1  577   4.585  13.705  10.918  0.1950 -0.0403 -0.1910
   37loPI    C2  578   4.902  13.487  11.029  0.1123 -0.0450  0.0423
   37loPI    C3  579   4.816  13.826  11.222 -0.0662 -0.0808  0.0279
   37loPI   PO4  580   4.646  13.711  10.637 -0.0618 -0.0491  0.3490
   37loPI   GL1  581   4.778  13.551  10.249  0.0912 -0.2187  0.3645
   37loPI   GL2  582   5.081  13.641  10.155 -0.0817 -0.2484  0.1485
   37loPI   C1A  583   4.715  13.803   9.853 -0.2357  0.0393  0.0262
   37loPI   C2A  584   4.848  13.786   9.431  0.1429 -0.0636 -0.2135
   37loPI   C3A  585   4.857  13.808   8.966 -0.1455  0.2033 -0.0892
   37loPI   C4A  586   4.816  13.846   8.593  0.0399 -0.1327 -0.2653
   37loPI   C5A  587   5.034  13.949   8.312  0.3425  0.0893 -0.2888
   37loPI   C6A  588   5.488  14.061   8.202  0.1189  0.2751 -0.0588
   37loPI   C1B  589   5.232  13.652   9.707 -0.0433 -0.2024 -0.1728
   37loPI   C2B  590   5.276  13.603   9.296  0.1631 -0.0949 -0.0051
   37loPI   C3B  591   5.307  13.695   8.926 -0.1693 -0.3066  0.0102
   37loPI   C4B  592   5.442  13.672   8.487  0.0572 -0.1015 -0.2598
   38loPI    C1  593   0.950   2.973  10.308 -0.0644  0.0569  0.0196
   38loPI    C2  594   1.167   3.032  10.639 -0.0634 -0.0443  0.0373
   38loPI    C3  595   0.774   3.109  10.641 -0.0367  0.0959  0.0183
   38loPI   PO4  596   1.101   2.779  10.208  0.0149  0.1401 -0.1104
   38loPI   GL1  597   1.262   2.470   9.921 -0.2989 -0.0318  0.2767
   38loPI   GL2  598   1.156   2.217   9.740  0.0319 -0.2712 -0.0622
   38loPI   C1A  599   1.310   2.592   9.481 -0.0138  0.0061 -0.0425
   38loPI   C2A  600   1.341   2.557   9.050 -0.0725  0.0504  0.2104
   38loPI   C3A  601   1.351   2.599   8.696  0.0390 -0.0417  0.1592
   38loPI   C4A  602   1.339   2.552   8.211  0.1603  0.0633 -0.0183
   38loPI   C5A  603   1.213   2.613   7.807 -0.1368 -0.1805 -0.3268
   38loPI   C6A  604   1.326   2.799   7.417 -0.0566 -0.4257  0.1607
   38loPI   C1B  605   1.222   2.108   9.328  0.0836  0.1719 -0.0623
   38loPI   C2B  606   1.280   2.078   8.866 -0.2821 -0.0418 -0.0797
   38loPI   C3B  607   1.147   2.087   8.500 -0.2198  0.3302 -0.0195
   38loPI   C4B  608   1.063   2.130   8.130 -0.0845 -0.0943  0.2108
   39loPI    C1  609  17.597  17.049  10.683  0.0091 -0.0265  0.0735
   39loPI    C2  610  17.363  16.850  10.938  0.1239 -0.2772 -0.0135
   39loPI    C3  611  17.660  17.080  11.076 -0.1646  0.0365  0.0970
   39loPI   PO4  612  17.644  16.865  10.438 -0.2515  0.1077  0.0214
   39loPI   GL1  613  17.733  16.922  10.016 -0.0813  0.1706  0.1686
   39loPI   GL2  614  17.995  16.970  10.006 -0.0663  0.2216  0.0373
   39loPI   C1A  615  17.542  17.002   9.665  0.0387  0.1495 -0.1209
   39loPI   C2A  616  17.548  17.144   9.177 -0.1980 -0.0596  0.1417
   39loPI   C3A  617  17.480  17.329   8.754 -0.1712  0.1025 -0.1890
   39loPI   C4A  618  17.586  17.547   8.473  0.2140  0.1649 -0.0457
   39loPI   C5A  619  17.737  17.676   8.101 -0.1416  0.0412 -0.0579
   39loPI   C6A  620  17.605  17.606   7.581 -0.0781 -0.0262  0.0878
   39loPI   C1B  621  18.129  17.043   9.594 -0.0758 -0.1680 -0.2952
   39loPI   C2B  622  18.067  17.165   9.168 -0.2882  0.1842 -0.1219
   39loPI   C3B  623  17.972  17.361   8.775  0.0366  0.3767 -0.2438
   39loPI   C4B  624  18.075  17.605   8.455  0.0356 -0.0390  0.1020
   40loPI    C1  625  15.957   0.939  10.842  0.0131 -0.0202  0.1970
   40loPI    C2  626  16.051   1.310  10.959 -0.0104  0.0189  0.0934
   40loPI    C3  627  15.702   1.147  11.070  0.0014  0.0263  0.1415
   40loPI   PO4  628  15.939   0.992  10.593  0.0149 -0.1375  0.1771
   40loPI   GL1  629  15.632   0.732  10.248 -0.0259 -0.1986 -0.1046
   40loPI   GL2  630  15.566   1.071  10.199 -0.3345 -0.1676 -0.0035
   40loPI   C1A  631  15.576   0.656   9.902 -0.2660 -0.2513  0.0502
   40loPI   C2A  632  15.536   0.678   9.393 -0.1705  0.1176  0.0248
   40loPI   C3A  633  15.422   0.610   9.057  0.2481 -0.1848 -0.0572
   40loPI   C4A  634  15.357   0.697   8.635  0.0419  0.1447 -0.1585
   40loPI   C5A  635  15.408   0.433   8.189  0.1978  0.1420  0.1160
   40loPI   C6A  636  15.222   0.457   7.740  0.2972 -0.1574 -0.0666
   40loPI   C1B  637  15.492   1.163   9.774  0.2940  0.0961  0.2009
   40loPI   C2B  638  15.376   1.209   9.364 -0.4140 -0.0590  0.4627
   40loPI   C3B  639  15.310   1.208   8.933 -0.1632 -0.1875 -0.0410
   40loPI   C4B  640  15.268   1.245   8.517  0.1542 -0.2133  0.0842
   41loPI    C1  641   5.212   4.284  10.983 -0.0569 -0.0628 -0.0231
   41loPI    C2  642   5.357   3.915  11.035 -0.2268 -0.0999  0.2064
   41loPI    C3  643   5.408   4.192  11.319 -0.0936  0.0576  0.0318
   41loPI   PO4  644   5.275   4.348  10.761  0.0681 -0.0905  0.1861
   41loPI   GL1  645   5.310   4.229  10.339  0.0323 -0.0060  0.3389
   41loPI   GL2  646   5.022   4.059  10.197  0.1860 -0.0731  0.3902
   41loPI   C1A  647   5.274   4.499  10.006  0.2019 -0.0863  0.2484
   41loPI   C2A  648   5.367   4.523   9.590 -0.1712  0.1387 -0.0185
   41loPI   C3A  649   5.362   4.461   9.090 -0.0832  0.0997  0.0669
   41loPI   C4A  650   5.521   4.390   8.703  0.1072  0.0433  0.0123
   41loPI   C5A  651   5.854   4.380   8.440  0.3703 -0.1542 -0.1551
   41loPI   C6A  652   6.119   3.964   8.431  0.0127  0.1371 -0.0179
   41loPI   C1B  653   5.011   4.182   9.795  0.2212 -0.1203  0.0070
   41loPI   C2B  654   5.117   4.136   9.381 -0.1114 -0.2422  0.0903
   41loPI   C3B  655   5.225   4.009   8.937 -0.1651 -0.0597  0.0784
   41loPI   C4B  656   5.580   3.881   8.679 -0.0147 -0.2364 -0.0728
   42loPI    C1  657  11.165  14.661  11.323  0.0486 -0.1293  0.0113
   42loPI    C2  658  11.080  14.326  11.524  0.0575  0.0202  0.2680
   42loPI    C3  659  11.461  14.432  11.465  0.0556 -0.0535  0.1204
   42loPI   PO4  660  11.119  14.664  11.117  0.0802 -0.1346  0.1418
   42loPI   GL1  661  11.121  14.701  10.673  0.1465 -0.0361 -0.1132
   42loPI   GL2  662  11.222  15.064  10.697 -0.0791  0.3091  0.2655
   42loPI   C1A  663  11.371  14.578  10.339 -0.7183 -0.0847  0.2200
   42loPI   C2A  664  11.285  14.585   9.848 -0.0480  0.1968  0.1278
   42loPI   C3A  665  11.179  14.591   9.425 -0.1389 -0.1355 -0.0379
   42loPI   C4A  666  11.161  14.577   9.024  0.1186 -0.1468  0.0329
   42loPI   C5A  667  10.878  14.309   8.681 -0.1033 -0.0386  0.0415
   42loPI   C6A  668  10.757  13.966   8.675 -0.0497  0.1779 -0.2051
   42loPI   C1B  669  11.251  15.071  10.280 -0.0011 -0.1973  0.1693
   42loPI   C2B  670  11.116  15.120   9.857  0.0130  0.0826 -0.3861
   42loPI   C3B  671  11.066  15.120   9.409  0.0546 -0.0815  0.2237
   42loPI   C4B  672  10.939  15.039   8.872  0.1181  0.0417 -0.1243
   43loPI    C1  673   4.027  10.916  10.445 -0.0671 -0.0021  0.0230
   43loPI    C2  674   4.218  11.153  10.704 -0.1466  0.2702 -0.1630
   43loPI    C3  675   3.834  11.060  10.764 -0.0222 -0.1009  0.0953
   43loPI   PO4  676   4.175  10.835  10.327 -0.1915 -0.0854 -0.3264
   43loPI   GL1  677   4.534  10.693   9.915  0.2832  0.1728 -0.0008
   43loPI   GL2  678   4.146  10.730   9.844  0.1345  0.0121 -0.3760
   43loPI   C1A  679   4.500  10.672   9.482  0.1047  0.1553  0.1303
   43loPI   C2A  680   4.520  10.589   9.076  0.0628  0.1151 -0.3773
   43loPI   C3A  681   4.563  10.356   8.651  0.0382  0.1020  0.1979
   43loPI   C4A  682   4.654  10.347   8.246  0.0128 -0.0152 -0.0460
   43loPI   C5A  683   4.344  10.160   7.890  0.2958 -0.0922  0.0942
   43loPI   C6A  684   3.905  10.086   7.916 -0.2691  0.0866  0.1214
   43loPI   C1B  685   3.968  10.703   9.422 -0.1448 -0.1385  0.2344
   43loPI   C2B  686   4.038  10.738   9.060  0.1335  0.2424  0.0665
   43loPI   C3B  687   4.298  10.747   8.596  0.3249  0.0529  0.2959
   43loPI   C4B  688   4.410  10.757   8.153 -0.0802  0.0775  0.0750
   44loPI    C1  689  15.849   9.379  10.692  0.0579  0.1149 -0.1149
   44loPI    C2  690  16.148   9.435  10.952  0.0376  0.3044 -0.1309
   44loPI    C3  691  15.791   9.312  11.082  0.1441 -0.0057 -0.1219
   44loPI   PO4  692  15.734   9.582  10.558 -0.1751 -0.2771 -0.2212
   44loPI   GL1  693  15.445   9.695  10.226 -0.0647 -0.1185 -0.0224
   44loPI   GL2  694  15.473   9.477  10.018  0.4082  0.3888  0.1236
   44loPI   C1A  695  15.183   9.884   9.887 -0.0977  0.2522  0.0399
   44loPI   C2A  696  14.974   9.966   9.523 -0.1141  0.1325  0.1576
   44loPI   C3A  697  14.939   9.912   9.066 -0.0113 -0.0715  0.6731
   44loPI   C4A  698  14.869   9.893   8.611 -0.3282 -0.0300 -0.1197
   44loPI   C5A  699  14.779   9.682   8.374  0.2249 -0.0793  0.3966
   44loPI   C6A  700  14.774   9.381   7.978  0.1995 -0.0257  0.2869
   44loPI   C1B  701  15.299   9.432   9.646 -0.1008  0.2525  0.1924
   44loPI   C2B  702  15.186   9.491   9.225 -0.2079  0.1062 -0.0462
   44loPI   C3B  703  15.074   9.431   8.827  0.1006  0.0190  0.1917
   44loPI   C4B  704  14.938   9.258   8.472  0.0830  0.0424 -0.1312
   45loPI    C1  705  13.426   0.271  10.914 -0.0630  0.1874 -0.1502
   45loPI    C2  706  13.804   0.357  11.011 -0.0009 -0.1781 -0.0500
   45loPI    C3  707  13.550   0.231  11.292 -0.2257  0.1484 -0.0999
   45loPI   PO4  708  13.403   0.119  10.781 -0.0986 -0.0477 -0.0450
   45loPI   GL1  709  13.309   0.151  10.382  0.1742 -0.1654 -0.2008
   45loPI   GL2  710  13.260  -0.185  10.415  0.1876  0.1389  0.3012
   45loPI   C1A  711  13.063   0.344  10.116 -0.0950 -0.1855  0.1972
   45loPI   C2A  712  12.894   0.360   9.697 -0.0408 -0.0039  0.0393
   45loPI   C3A  713  12.722   0.519   9.290  0.2554  0.3227  0.1816
   45loPI   C4A  714  12.724   0.737   8.997 -0.3531  0.1587  0.1397
   45loPI   C5A  715  12.612   0.660   8.583  0.2689  0.1732 -0.0137
   45loPI   C6A  716  12.951   0.587   8.382 -0.0132 -0.2283 -0.0269
   45loPI   C1B  717  12.968  -0.106  10.124  0.0493  0.0416  0.2704
   45loPI   C2B  718  12.827  -0.103   9.632 -0.2721  0.2376 -0.2457
   45loPI   C3B  719  12.888   0.111   9.169 -0.0133  0.0395 -0.0580
   45loPI   C4B  720  12.833   0.237   8.751  0.0967  0.0270  0.1809
   46loPI    C1  721  14.759   1.882  11.143  0.1214 -0.0264  0.1389
   46loPI    C2  722  14.467   1.751  11.382  0.0671 -0.3386 -0.0920
   46loPI    C3  723  14.670   2.081  11.478 -0.4000 -0.0810  0.0426
   46loPI   PO4  724  14.646   1.936  10.847 -0.1469  0.0607  0.0998
   46loPI   GL1  725  14.388   1.705  10.550  0.1220  0.1731  0.0915
   46loPI   GL2  726  14.319   2.016  10.442 -0.0183  0.3517  0.1756
   46loPI   C1A  727  14.269   1.544  10.143 -0.2282  0.0158 -0.0618
   46loPI   C2A  728  14.300   1.519   9.693 -0.2035  0.0170  0.0891
   46loPI   C3A  729  14.306   1.488   9.200  0.0556 -0.0886  0.1002
   46loPI   C4A  730  14.354   1.449   8.829  0.1763 -0.2824 -0.0001
   46loPI   C5A  731  14.299   1.682   8.352 -0.1191 -0.0001 -0.1161
   46loPI   C6A  732  14.650   1.763   8.122 -0.0604  0.1977 -0.0480
   46loPI   C1B  733  14.314   2.070   9.964 -0.0775  0.0737  0.1067
   46loPI   C2B  734  14.255   1.999   9.580 -0.0148  0.2773 -0.0498
   46loPI   C3B  735  14.187   2.090   9.175 -0.2245  0.1574 -0.3349
   46loPI   C4B  736  14.237   2.046   8.792  0.0442  0.0185  0.1675
   47loPI    C1  737   6.306   6.182  11.135  0.2725 -0.0447 -0.1090
   47loPI    C2  738   6.062   5.900  11.280  0.2145  0.1299  0.1384
   47loPI    C3  739   6.401   5.990  11.473  0.1060  0.4084  0.2040
   47loPI   PO4  740   6.306   6.156  10.903  0.1166  0.1846 -0.1002
   47loPI   GL1  741   6.582   6.301  10.589 -0.0163  0.0460  0.0925
   47loPI   GL2  742   6.832   6.436  10.465 -0.2394 -0.2724 -0.2451
   47loPI   C1A  743   6.376   6.001  10.261  0.0185 -0.0592  0.0507
   47loPI   C2A  744   6.344   6.055   9.825 -0.0723  0.0126  0.4196
   47loPI   C3A  745   6.404   6.121   9.442  0.1821  0.0960 -0.3356
   47loPI   C4A  746   6.515   6.092   8.956 -0.1690  0.3573  0.3399
   47loPI   C5A  747   6.488   6.131   8.504 -0.1421  0.1809  0.2034
   47loPI   C6A  748   6.646   6.152   8.143 -0.1448 -0.2162 -0.2258
   47loPI   C1B  749   6.742   6.393  10.125 -0.2543 -0.0373  0.1241
   47loPI   C2B  750   6.770   6.474   9.665 -0.1594  0.0061  0.0400
   47loPI   C3B  751   6.820   6.405   9.268  0.1600  0.0607 -0.2790
   47loPI   C4B  752   6.895   6.516   8.838 -0.1924  0.0171  0.3672
   48loPI    C1  753  10.203   7.278  11.177 -0.0097 -0.0445  0.2454
   48loPI    C2  754  10.462   7.524  11.357 -0.1042  0.2117  0.0391
   48loPI    C3  755  10.069   7.573  11.412 -0.1173 -0.0915  0.2434
   48loPI   PO4  756  10.245   7.335  10.913  0.2328  0.0142 -0.2154
   48loPI   GL1  757  10.327   7.278  10.509 -0.0343  0.0593  0.2984
   48loPI   GL2  758  10.192   7.005  10.464  0.1527 -0.2332 -0.0109
   48loPI   C1A  759  10.428   7.210  10.038 -0.2573  0.0652 -0.2153
   48loPI   C2A  760  10.383   7.045   9.562  0.0354 -0.2071  0.3606
   48loPI   C3A  761  10.357   7.223   9.111 -0.0927 -0.0242  0.0703
   48loPI   C4A  762  10.371   7.330   8.669  0.1666 -0.0951  0.2846
   48loPI   C5A  763  10.214   7.470   8.303 -0.1012  0.0148 -0.4690
   48loPI   C6A  764  10.323   7.305   7.918 -0.1240 -0.0286  0.0564
   48loPI   C1B  765  10.024   6.681  10.215  0.1834 -0.3638 -0.0907
   48loPI   C2B  766  10.086   6.697   9.758  0.1958 -0.0030  0.2937
   48loPI   C3B  767  10.045   6.747   9.394  0.1349  0.1360 -0.1327
   48loPI   C4B  768  10.004   6.802   9.019 -0.0793  0.0005  0.1877
   49loPI    C1  769  14.409   8.864  11.001 -0.1376 -0.2740 -0.0091
   49loPI    C2  770  14.619   8.664  11.276  0.0724 -0.0462 -0.0008
   49loPI    C3  771  14.478   9.029  11.358 -0.1682 -0.1209 -0.0728
   49loPI   PO4  772  14.302   8.637  10.780  0.4431  0.1425  0.0748
   49loPI   GL1  773  14.288   8.379  10.398 -0.1404  0.1317 -0.0679
   49loPI   GL2  774  14.548   8.599  10.348  0.0117 -0.1641  0.3341
   49loPI   C1A  775  13.969   8.217  10.066 -0.0722 -0.0697  0.0437
   49loPI   C2A  776  13.849   8.262   9.615 -0.2428 -0.0967 -0.0053
   49loPI   C3A  777  13.855   8.358   9.201  0.3368  0.0788  0.1101
   49loPI   C4A  778  14.000   8.300   8.815 -0.1426 -0.1730 -0.3860
   49loPI   C5A  779  13.933   8.097   8.637  0.4499  0.0141 -0.3217
   49loPI   C6A  780  13.595   8.037   8.371 -0.1374  0.2952  0.0136
   49loPI   C1B  781  14.312   8.525   9.911  0.3005  0.2270 -0.1748
   49loPI   C2B  782  14.240   8.597   9.408  0.3076 -0.2448  0.2649
   49loPI   C3B  783  14.208   8.726   8.981  0.1581 -0.2809 -0.3198
   49loPI   C4B  784  14.136   8.835   8.590  0.0472 -0.2139 -0.1207
   50loPI    C1  785   0.224   0.132  10.611 -0.1268 -0.1894  0.0999
   50loPI    C2  786  -0.141   0.157  10.772 -0.0209  0.2245  0.2900
   50loPI    C3  787   0.182   0.158  11.007  0.1093 -0.0657  0.1187
   50loPI   PO4  788   0.153   0.129  10.366 -0.1587  0.2371  0.3817
   50loPI   GL1  789  -0.026   0.222   9.954 -0.1062 -0.4318  0.0356
   50loPI   GL2  790  -0.366   0.415   9.927 -0.1795  0.1284  0.4019
   50loPI   C1A  791   0.264   0.225   9.575  0.1786 -0.0505  0.1657
   50loPI   C2A  792   0.314   0.189   9.227  0.2145 -0.0060 -0.1165
   50loPI   C3A  793   0.396   0.271   8.905 -0.2534 -0.0765  0.1167
   50loPI   C4A  794   0.537   0.237   8.606 -0.1444  0.1069 -0.1437
   50loPI   C5A  795   0.476   0.270   8.174 -0.1603  0.1163  0.0030
   50loPI   C6A  796   0.315   0.090   7.738  0.0492  0.0388 -0.3772
   50loPI   C1B  797  -0.170   0.512   9.606 -0.3768 -0.1792  0.2210
   50loPI   C2B  798  -0.004   0.582   9.246 -0.0932 -0.1348 -0.0268
   50loPI   C3B  799  -0.140   0.568   8.848 -0.0568 -0.0976  0.1277
   50loPI   C4B  800  -0.461   0.634   8.743 -0.0664  0.2774 -0.0130
   51loPI    C1  801   3.872   0.782  10.879  0.0314 -0.1541 -0.0363
   51loPI    C2  802   4.076   1.008  11.138 -0.1178 -0.0953  0.0309
   51loPI    C3  803   3.833   0.719  11.272 -0.1025 -0.1447 -0.0475
   51loPI   PO4  804   4.072   0.649  10.686 -0.0854 -0.0114 -0.2043
   51loPI   GL1  805   4.390   0.414  10.427 -0.0455  0.1046 -0.2114
   51loPI   GL2  806   4.561   0.064  10.447  0.1822  0.1325  0.2248
   51loPI   C1A  807   4.308   0.493   9.930  0.3239 -0.2409  0.3128
   51loPI   C2A  808   4.244   0.586   9.461  0.1060 -0.3242  0.1575
   51loPI   C3A  809   4.401   0.447   9.159 -0.1334  0.1872 -0.0399
   51loPI   C4A  810   4.423   0.245   8.785  0.1056 -0.1806 -0.0499
   51loPI   C5A  811   4.317   0.479   8.409  0.2182  0.3004  0.1257
   51loPI   C6A  812   4.513   0.563   8.004 -0.1116 -0.0050 -0.0676
   51loPI   C1B  813   4.765   0.231  10.152  0.0803 -0.0360 -0.1319
   51loPI   C2B  814   4.839   0.366   9.695  0.1901  0.0332 -0.0333
   51loPI   C3B  815   4.856   0.267   9.311 -0.1233 -0.1864 -0.2202
   51loPI   C4B  816   4.970   0.236   8.839 -0.2461 -0.0703  0.2520
   52loPI    C1  817  14.941   5.775  11.112 -0.1560  0.0445  0.0523
   52loPI    C2  818  15.073   6.066  11.352 -0.1560  0.0684  0.0232
   52loPI    C3  819  15.049   5.691  11.488 -0.0541  0.0633  0.0273
   52loPI   PO4  820  14.986   5.825  10.871 -0.0434 -0.1939  0.1889
   52loPI   GL1  821  15.308   5.678  10.549  0.1919 -0.0794 -0.0709
   52loPI   GL2  822  15.415   5.476  10.325  0.3189 -0.1578 -0.1652
   52loPI   C1A  823  15.324   5.913  10.220  0.1343  0.3814  0.0157
   52loPI   C2A  824  15.379   5.886   9.813  0.3311 -0.1747 -0.1428
   52loPI   C3A  825  15.270   5.936   9.343  0.0626  0.0804  0.2599
   52loPI   C4A  826  15.195   5.946   8.928  0.0497  0.0806  0.0808
   52loPI   C5A  827  15.219   5.990   8.539 -0.0127 -0.1410  0.1490
   52loPI   C6A  828  15.431   6.200   8.317  0.0404 -0.0356  0.0923
   52loPI   C1B  829  15.502   5.387   9.942  0.2635 -0.3785  0.1253
   52loPI   C2B  830  15.489   5.396   9.525  0.2145 -0.0385 -0.0882
   52loPI   C3B  831  15.318   5.480   9.101 -0.0445  0.3751 -0.1479
   52loPI   C4B  832  15.274   5.402   8.573  0.2176 -0.1445 -0.2575
   53loPI    C1  833  12.742   2.663  11.376  0.2790  0.2038 -0.0735
   53loPI    C2  834  12.588   2.414  11.649  0.1243  0.2870 -0.0840
   53loPI    C3  835  12.957   2.562  11.698  0.2227  0.0459 -0.0844
   53loPI   PO4  836  12.654   2.568  11.134 -0.2092 -0.0779 -0.0024
   53loPI   GL1  837  12.597   2.505  10.761 -0.0811  0.0343 -0.2037
   53loPI   GL2  838  12.883   2.291  10.813  0.0018 -0.0387 -0.0959
   53loPI   C1A  839  12.434   2.675  10.344  0.0411 -0.1642 -0.1668
   53loPI   C2A  840  12.331   2.802   9.921 -0.1424 -0.0807  0.0635
   53loPI   C3A  841  12.222   2.791   9.472 -0.1086 -0.0122  0.0203
   53loPI   C4A  842  12.164   2.702   9.045  0.0528  0.2190 -0.1396
   53loPI   C5A  843  12.228   2.468   8.688  0.1720 -0.0950  0.2737
   53loPI   C6A  844  12.282   2.386   8.237  0.0147  0.0971  0.2172
   53loPI   C1B  845  12.643   2.191  10.395  0.2736  0.0962  0.1473
   53loPI   C2B  846  12.517   2.210   9.887 -0.0177 -0.1995 -0.1703
   53loPI   C3B  847  12.353   2.201   9.520  0.0781 -0.1487  0.0156
   53loPI   C4B  848  12.319   2.209   9.063  0.1586  0.3972 -0.1644
   54loPI    C1  849   5.306   8.655  11.021  0.0076 -0.0447  0.2526
   54loPI    C2  850   4.909   8.627  11.063 -0.0060 -0.1452  0.0673
   54loPI    C3  851   5.144   8.325  11.181 -0.0051 -0.2003 -0.0734
   54loPI   PO4  852   5.396   8.769  10.689 -0.0048 -0.1793  0.1336
   54loPI   GL1  853   5.662   8.573  10.454  0.3007  0.0110 -0.2005
   54loPI   GL2  854   5.566   8.257  10.541  0.3089  0.0023  0.1625
   54loPI   C1A  855   5.814   8.604   9.976 -0.2208 -0.0136  0.0001
   54loPI   C2A  856   5.855   8.601   9.530 -0.0754  0.1795 -0.2591
   54loPI   C3A  857   5.881   8.592   9.167  0.0614 -0.2463 -0.0211
   54loPI   C4A  858   6.039   8.515   8.785  0.1937  0.0934  0.2338
   54loPI   C5A  859   6.091   8.624   8.302  0.1473 -0.0162  0.0408
   54loPI   C6A  860   6.474   8.483   8.022  0.1455 -0.0695 -0.3745
   54loPI   C1B  861   5.404   8.269  10.119 -0.2083  0.0498 -0.0123
   54loPI   C2B  862   5.423   8.287   9.755  0.2973 -0.1970 -0.0943
   54loPI   C3B  863   5.489   8.246   9.287 -0.3090 -0.1761  0.1567
   54loPI   C4B  864   5.535   8.279   8.874 -0.1640 -0.1089  0.0949
   55loPI    C1  865   4.727   9.133  10.988 -0.0605 -0.2121 -0.0272
   55loPI    C2  866   4.839   9.408  11.256  0.0678 -0.0975 -0.1961
   55loPI    C3  867   4.598   9.109  11.366 -0.0664  0.0767 -0.0084
   55loPI   PO4  868   5.008   9.145  10.872  0.0840 -0.0849  0.2424
   55loPI   GL1  869   5.028   9.088  10.414  0.0323 -0.1589 -0.0751
   55loPI   GL2  870   4.736   8.998  10.177 -0.1075  0.0792  0.1167
   55loPI   C1A  871   5.342   9.240  10.103 -0.3220 -0.1066 -0.2009
   55loPI   C2A  872   5.522   9.591   9.876  0.0402  0.0501  0.0477
   55loPI   C3A  873   5.603   9.621   9.410  0.1821  0.1638 -0.1042
   55loPI   C4A  874   5.708   9.639   9.014 -0.1437  0.0688 -0.1017
   55loPI   C5A  875   5.785   9.605   8.577  0.1511 -0.0788  0.0088
   55loPI   C6A  876   6.000   9.662   8.120  0.0553  0.5581 -0.0328
   55loPI   C1B  877   4.976   9.168   9.792 -0.1735  0.0059 -0.2351
   55loPI   C2B  878   5.287   9.238   9.499  0.1152  0.2844  0.1185
   55loPI   C3B  879   5.279   9.317   9.081  0.3412 -0.0676  0.1149
   55loPI   C4B  880   5.103   9.201   8.717 -0.2134 -0.0452 -0.3347
   56loPI    C1  881  14.873  11.063  10.942 -0.2938  0.1984  0.1157
   56loPI    C2  882  15.246  11.141  11.064 -0.1722  0.0491 -0.1504
   56loPI    C3  883  14.970  11.017  11.327 -0.0194  0.1022  0.0372
   56loPI   PO4  884  14.867  10.936  10.657 -0.2963 -0.1057  0.2103
   56loPI   GL1  885  14.978  11.013  10.165 -0.0770  0.1105  0.0944
   56loPI   GL2  886  14.888  11.332  10.171 -0.0925 -0.0610  0.0053
   56loPI   C1A  887  14.905  10.925   9.810  0.0555 -0.1122 -0.2681
   56loPI   C2A  888  14.834  10.928   9.232  0.5105 -0.0195 -0.2504
   56loPI   C3A  889  14.731  10.932   8.779 -0.1345 -0.1483  0.1785
   56loPI   C4A  890  14.654  11.151   8.337 -0.0414  0.1698  0.0228
   56loPI   C5A  891  14.281  11.439   8.250  0.3255  0.0534  0.1421
   56loPI   C6A  892  13.945  11.128   8.288 -0.0504 -0.1152  0.0208
   56loPI   C1B  893  14.849  11.503   9.819  0.2833 -0.0003  0.0673
   56loPI   C2B  894  14.757  11.330   9.510  0.4263  0.3514  0.1238
   56loPI   C3B  895  14.702  11.371   9.039 -0.0310  0.2993 -0.0656
   56loPI   C4B  896  14.543  11.513   8.630 -0.1210 -0.1417 -0.0201
   57loPI    C1  897   2.729   0.020  10.804  0.4877  0.0011  0.1450
   57loPI    C2  898   2.432   0.231  10.638  0.3677 -0.2120  0.0836
   57loPI    C3  899   2.666   0.398  10.917  0.5143  0.1223 -0.2315
   57loPI   PO4  900   2.816  -0.158  10.535  0.1513  0.1542 -0.0809
   57loPI   GL1  901   3.079  -0.101  10.121 -0.2347  0.0728 -0.0410
   57loPI   GL2  902   3.387  -0.168  10.019  0.3405 -0.1401  0.3214
   57loPI   C1A  903   2.843  -0.011   9.718  0.0632 -0.2514 -0.0929
   57loPI   C2A  904   2.889  -0.024   9.301  0.1279 -0.1523  0.0330
   57loPI   C3A  905   3.107   0.033   8.941  0.0304 -0.2709 -0.0014
   57loPI   C4A  906   3.242   0.058   8.480  0.2418  0.0564  0.0156
   57loPI   C5A  907   3.369   0.322   8.144  0.1588  0.1504 -0.2353
   57loPI   C6A  908   3.351   0.322   7.619  0.2006 -0.0959 -0.1868
   57loPI   C1B  909   3.319  -0.169   9.627 -0.2411 -0.2223  0.0294
   57loPI   C2B  910   3.566  -0.252   9.255  0.0443  0.1019  0.3778
   57loPI   C3B  911   3.549  -0.172   8.774 -0.0748  0.2272 -0.3239
   57loPI   C4B  912   3.665  -0.254   8.310  0.0338  0.1165  0.2011
   58loPI    C1  913   1.543   3.533  10.410 -0.0758 -0.1963  0.0103
   58loPI    C2  914   1.543   3.844  10.661  0.2182  0.0395 -0.2740
   58loPI    C3  915   1.660   3.484  10.789  0.1571  0.1087 -0.0188
   58loPI   PO4  916   1.635   3.603  10.125 -0.1447  0.0014  0.2771
   58loPI   GL1  917   1.649   3.877   9.806  0.0037 -0.0309 -0.0211
   58loPI   GL2  918   1.845   4.026   9.776 -0.1756 -0.2636 -0.2003
   58loPI   C1A  919   1.690   3.820   9.358  0.1597  0.0526 -0.0099
   58loPI   C2A  920   1.702   3.759   8.995 -0.2522  0.2696 -0.5176
   58loPI   C3A  921   1.771   3.751   8.579  0.2610  0.1520  0.0545
   58loPI   C4A  922   1.867   3.509   8.229  0.0084  0.0771  0.0451
   58loPI   C5A  923   1.794   3.712   7.821 -0.1439  0.0735  0.1794
   58loPI   C6A  924   1.717   4.110   7.712 -0.2325  0.1751  0.0382
   58loPI   C1B  925   2.148   3.831   9.454  0.1126  0.1178 -0.2593
   58loPI   C2B  926   2.210   3.827   9.057  0.0116  0.4028  0.3079
   58loPI   C3B  927   2.340   3.820   8.618  0.1589  0.1018  0.1528
   58loPI   C4B  928   2.207   3.868   8.284 -0.3087  0.0924  0.1098
   59loPI    C1  929  14.375   6.666  11.115  0.0589  0.0485  0.0111
   59loPI    C2  930  14.062   6.778  11.336  0.0123  0.0389 -0.0498
   59loPI    C3  931  14.267   6.449  11.433 -0.1152 -0.0626 -0.1224
   59loPI   PO4  932  14.277   6.617  10.810 -0.2252 -0.2814 -0.0349
   59loPI   GL1  933  14.198   6.301  10.530 -0.1638 -0.0547 -0.0344
   59loPI   GL2  934  13.955   6.540  10.438 -0.1510  0.1618  0.1046
   59loPI   C1A  935  14.421   6.369  10.133  0.0742  0.0547 -0.0341
   59loPI   C2A  936  14.467   6.242   9.736  0.0162 -0.0585 -0.1076
   59loPI   C3A  937  14.287   6.313   9.359  0.1836 -0.0261 -0.2483
   59loPI   C4A  938  14.315   6.263   8.996 -0.0539  0.0767 -0.1360
   59loPI   C5A  939  14.181   6.249   8.691 -0.0534 -0.2403  0.1650
   59loPI   C6A  940  14.066   6.399   8.263  0.0065  0.0324  0.2224
   59loPI   C1B  941  13.935   6.480   9.962  0.1511  0.2200  0.1730
   59loPI   C2B  942  13.813   6.480   9.542 -0.0195 -0.1330 -0.0659
   59loPI   C3B  943  13.861   6.332   9.170  0.2529 -0.0927  0.0443
   59loPI   C4B  944  13.707   6.339   8.828  0.2242  0.1098  0.1919
   60loPI    C1  945  13.003   9.750  11.105  0.0674  0.1239  0.1035
   60loPI    C2  946  13.367   9.855  11.232  0.0934 -0.0033  0.1355
   60loPI    C3  947  13.248   9.474  11.257 -0.0779  0.0539  0.2139
   60loPI   PO4  948  12.913   9.902  10.855 -0.1232 -0.1110 -0.1154
   60loPI   GL1  949  13.154   9.946  10.575  0.0313  0.1408  0.0620
   60loPI   GL2  950  13.174  10.169  10.337 -0.1270  0.0128  0.0850
   60loPI   C1A  951  13.311   9.638  10.289 -0.0319  0.0369  0.0453
   60loPI   C2A  952  13.245   9.560   9.842 -0.0632 -0.1989  0.0949
   60loPI   C3A  953  13.170   9.543   9.435 -0.2134 -0.0445 -0.0664
   60loPI   C4A  954  13.167   9.621   9.061 -0.1585 -0.2742  0.0534
   60loPI   C5A  955  13.199   9.751   8.669  0.3564 -0.1696  0.1417
   60loPI   C6A  956  13.262  10.025   8.360 -0.1121  0.3478 -0.0519
   60loPI   C1B  957  12.981   9.885  10.066 -0.0382  0.0764 -0.2200
   60loPI   C2B  958  12.917   9.970   9.645 -0.1143  0.0562  0.0608
   60loPI   C3B  959  13.019  10.062   9.224  0.1805 -0.0805 -0.1890
   60loPI   C4B  960  13.139  10.174   8.920 -0.2133  0.0480  0.0758
   61loPI    C1  961  13.878   6.347  11.114 -0.0037 -0.0337 -0.1291
   61loPI    C2  962  13.499   6.450  11.191  0.0991  0.1988  0.0814
   61loPI    C3  963  13.746   6.356  11.491  0.0839 -0.4170 -0.0856
   61loPI   PO4  964  13.863   6.318  10.889  0.0403  0.0903 -0.1473
   61loPI   GL1  965  13.492   6.511  10.676  0.2068  0.1012 -0.2215
   61loPI   GL2  966  13.525   6.966  10.520  0.3900 -0.2016  0.0180
   61loPI   C1A  967  13.298   6.409  10.220  0.1587 -0.2411  0.0599
   61loPI   C2A  968  13.361   6.572   9.845 -0.2892 -0.0699 -0.0491
   61loPI   C3A  969  13.229   6.681   9.389  0.0746  0.2039 -0.1042
   61loPI   C4A  970  13.233   6.539   8.985 -0.2989 -0.1739 -0.0682
   61loPI   C5A  971  13.345   6.592   8.542  0.0435 -0.1838 -0.0013
   61loPI   C6A  972  13.581   6.604   8.224 -0.1230  0.2643 -0.1523
   61loPI   C1B  973  13.664   6.832  10.218  0.2843  0.0041  0.1355
   61loPI   C2B  974  13.751   6.926   9.825 -0.0136 -0.0573 -0.2232
   61loPI   C3B  975  13.673   6.945   9.422  0.2759 -0.0070 -0.0991
   61loPI   C4B  976  13.718   6.803   9.087  0.0062 -0.3810 -0.3487
   62loPI    C1  977  11.907  13.578  11.221  0.0722 -0.1315 -0.1396
   62loPI    C2  978  12.050  13.241  11.382  0.2807  0.0124 -0.0189
   62loPI    C3  979  12.148  13.595  11.540  0.0705  0.1308 -0.1504
   62loPI   PO4  980  11.868  13.448  10.905 -0.0946 -0.0387 -0.4192
   62loPI   GL1  981  12.066  13.620  10.673  0.1486  0.2792  0.1884
   62loPI   GL2  982  12.297  13.544  10.534 -0.1855  0.2169 -0.2776
   62loPI   C1A  983  11.944  13.878  10.273 -0.0124 -0.1404  0.1121
   62loPI   C2A  984  11.868  13.919   9.817  0.0241  0.2592 -0.4403
   62loPI   C3A  985  11.785  13.896   9.403 -0.1383 -0.1605  0.1734
   62loPI   C4A  986  11.794  13.887   8.978 -0.1495  0.2035 -0.2240
   62loPI   C5A  987  11.911  13.873   8.553  0.1433 -0.0030 -0.1636
   62loPI   C6A  988  11.943  13.432   8.530  0.2822  0.1726 -0.2373
   62loPI   C1B  989  12.408  13.696  10.209  0.3849 -0.3081 -0.1310
   62loPI   C2B  990  12.377  13.675   9.897  0.0272 -0.0625 -0.5375
   62loPI   C3B  991  12.448  13.623   9.534 -0.1947 -0.0985 -0.1144
   62loPI   C4B  992  12.258  13.714   9.070 -0.0490 -0.2470 -0.0291
   63loPI    C1  993  11.427   0.741  11.013 -0.2112  0.1519  0.0046
   63loPI    C2  994  11.383   1.138  11.003  0.0326  0.1781 -0.0788
   63loPI    C3  995  11.728   0.972  10.888 -0.0516 -0.0555  0.0007
   63loPI   PO4  996  11.156   0.661  10.968  0.3961  0.0790 -0.0377
   63loPI   GL1  997  11.008   0.429  10.594 -0.0168  0.1124 -0.3423
   63loPI   GL2  998  11.269   0.611  10.500 -0.1434 -0.1075  0.0010
   63loPI   C1A  999  10.831   0.299  10.234 -0.0494  0.0238  0.2860
   63loPI   C2A 1000  10.899   0.238   9.805  0.0238  0.1697  0.0369
   63loPI   C3A 1001  10.793   0.224   9.345  0.0673  0.1225 -0.2702
   63loPI   C4A 1002  10.899   0.377   8.874  0.4655  0.1733 -0.0783
   63loPI   C5A 1003  11.099   0.050   8.618 -0.3211  0.0498 -0.4208
   63loPI   C6A 1004  11.551  -0.179   8.523 -0.1138 -0.1377 -0.1109
   63loPI   C1B 1005  11.245   0.659  10.050  0.2251  0.0001  0.0038
   63loPI   C2B 1006  11.255   0.661   9.632  0.1749  0.0373  0.1068
   63loPI   C3B 1007  11.284   0.592   9.201  0.2460 -0.0533  0.0909
   63loPI   C4B 1008  11.200   0.759   8.713  0.0361  0.0158 -0.0717
   64loPI    C1 1009  10.094  17.211  11.183 -0.1093 -0.0585 -0.0122
   64loPI    C2 1010  10.395  16.948  11.194  0.0757  0.1448 -0.1058
   64loPI    C3 1011  10.156  16.993  11.512  0.1951  0.0405 -0.0001
   64loPI   PO4 1012   9.949  17.157  10.996  0.1722  0.4441 -0.2153
   64loPI   GL1 1013  10.122  16.922  10.656  0.3308 -0.0725  0.0527
   64loPI   GL2 1014  10.506  16.998  10.694  0.1112 -0.0415 -0.2073
   64loPI   C1A 1015  10.161  16.775  10.258 -0.2106  0.1807 -0.1279
   64loPI   C2A 1016  10.212  16.836   9.862  0.1304 -0.0052 -0.0794
   64loPI   C3A 1017  10.287  16.732   9.457  0.0257 -0.2809  0.2143
   64loPI   C4A 1018  10.116  16.919   9.024  0.1685  0.1148  0.1741
   64loPI   C5A 1019  10.096  17.170   8.712  0.1160 -0.1108 -0.1969
   64loPI   C6A 1020  10.365  17.425   8.624  0.1921 -0.3932  0.0378
   64loPI   C1B 1021  10.529  17.043  10.275 -0.0685 -0.2272  0.3213
   64loPI   C2B 1022  10.629  17.235   9.824 -0.0151 -0.1367 -0.1421
   64loPI   C3B 1023  10.673  17.068   9.419  0.0698 -0.1250  0.1057
   64loPI   C4B 1024  10.621  17.090   9.031 -0.1827 -0.0408  0.0566
   65loPI    C1 1025   2.697  11.175  10.414  0.2197  0.2150 -0.0193
   65loPI    C2 1026   2.418  11.424  10.272 -0.1081 -0.0401  0.1606
   65loPI    C3 1027   2.593  11.499  10.624  0.0473  0.1142  0.0529
   65loPI   PO4 1028   2.785  11.062  10.181 -0.3189 -0.0467 -0.3153
   65loPI   GL1 1029   2.813  10.886   9.809 -0.0528 -0.0664 -0.0943
   65loPI   GL2 1030   2.472  10.776   9.760  0.0184  0.1143  0.0162
   65loPI   C1A 1031   2.978  10.965   9.440  0.1162 -0.1998  0.2012
   65loPI   C2A 1032   3.209  10.964   9.018  0.2434  0.3315  0.3427
   65loPI   C3A 1033   3.445  10.984   8.722 -0.0015  0.1454 -0.1749
   65loPI   C4A 1034   3.490  10.903   8.219 -0.0380 -0.0381  0.1693
   65loPI   C5A 1035   3.303  10.609   8.010  0.0538  0.1849 -0.0120
   65loPI   C6A 1036   3.044  10.292   7.773 -0.1966  0.0793  0.2726
   65loPI   C1B 1037   2.613  10.606   9.346  0.1197  0.0566  0.0729
   65loPI   C2B 1038   2.765  10.703   9.016  0.2186  0.0484 -0.1182
   65loPI   C3B 1039   2.876  10.790   8.624 -0.2343 -0.0851 -0.0883
   65loPI   C4B 1040   2.988  10.890   8.304  0.0920  0.1686 -0.0220
   66loPI    C1 1041   3.529   6.263  10.723  0.1453 -0.1258  0.0051
   66loPI    C2 1042   3.602   6.495  11.041 -0.1512  0.1352 -0.1124
   66loPI    C3 1043   3.422   6.141  11.089 -0.1420  0.1478  0.0169
   66loPI   PO4 1044   3.569   6.487  10.577 -0.1515  0.0359  0.2875
   66loPI   GL1 1045   3.525   6.708  10.224  0.0661 -0.0851 -0.0977
   66loPI   GL2 1046   3.736   6.901   9.987  0.1433  0.0819 -0.1819
   66loPI   C1A 1047   3.524   6.476   9.846  0.0630  0.0176 -0.1957
   66loPI   C2A 1048   3.639   6.432   9.413 -0.3094  0.2061  0.0667
   66loPI   C3A 1049   3.717   6.357   9.028  0.2377  0.0374 -0.2805
   66loPI   C4A 1050   4.084   6.281   8.821  0.0237 -0.0580 -0.1574
   66loPI   C5A 1051   4.330   6.360   8.536 -0.2237 -0.1595  0.1849
   66loPI   C6A 1052   4.485   6.393   8.177  0.0585  0.0924  0.0605
   66loPI   C1B 1053   3.811   6.885   9.582  0.0077 -0.0516 -0.1613
   66loPI   C2B 1054   3.986   6.739   9.114 -0.2909 -0.3199 -0.0584
   66loPI   C3B 1055   3.949   6.781   8.666 -0.1969  0.1692  0.2275
   66loPI   C4B 1056   4.202   6.879   8.336 -0.4620 -0.1621 -0.1945
   67loPI    C1 1057   3.057   8.328  10.335  0.1758 -0.3236  0.1300
   67loPI    C2 1058   2.982   8.536  10.668 -0.1253 -0.2815  0.0389
   67loPI    C3 1059   2.753   8.223  10.572 -0.4901  0.1265 -0.4819
   67loPI   PO4 1060   3.167   8.582  10.175  0.2540  0.1895  0.1937
   67loPI   GL1 1061   3.151   8.725   9.788  0.0866  0.1072 -0.2440
   67loPI   GL2 1062   3.482   8.753   9.794  0.1516 -0.2994  0.0739
   67loPI   C1A 1063   3.156   8.702   9.301 -0.0573  0.3779  0.5945
   67loPI   C2A 1064   3.130   8.687   8.875 -0.2945  0.0621 -0.0776
   67loPI   C3A 1065   3.224   8.521   8.467 -0.0379  0.1193 -0.0884
   67loPI   C4A 1066   3.482   8.348   8.001  0.1061  0.1083  0.1377
   67loPI   C5A 1067   3.580   8.296   7.523 -0.0388 -0.0761 -0.0003
   67loPI   C6A 1068   3.594   8.217   7.092 -0.1022  0.0054 -0.2880
   67loPI   C1B 1069   3.629   8.576   9.395 -0.4723 -0.0647 -0.0228
   67loPI   C2B 1070   3.594   8.549   8.861  0.1097  0.2713 -0.1724
   67loPI   C3B 1071   3.721   8.385   8.460 -0.1335 -0.2444  0.1594
   67loPI   C4B 1072   3.863   7.949   8.443 -0.0563  0.0546 -0.0437
   68loPI    C1 1073  16.399   4.821  10.628 -0.0728 -0.0308 -0.1133
   68loPI    C2 1074  16.729   4.845  10.403 -0.0942  0.1413 -0.1278
   68loPI    C3 1075  16.737   4.645  10.750 -0.0202  0.0040 -0.2078
   68loPI   PO4 1076  16.209   4.882  10.459 -0.1512  0.2033 -0.1595
   68loPI   GL1 1077  16.249   4.869  10.093  0.3436  0.0458  0.4482
   68loPI   GL2 1078  16.478   5.033  10.070 -0.0834 -0.0827 -0.0208
   68loPI   C1A 1079  16.101   4.720   9.763 -0.2865  0.1466 -0.1009
   68loPI   C2A 1080  15.973   4.715   9.322 -0.2916 -0.0438  0.4522
   68loPI   C3A 1081  15.962   4.735   8.974 -0.1351 -0.1096 -0.0550
   68loPI   C4A 1082  15.903   4.836   8.558  0.1149 -0.0754  0.0551
   68loPI   C5A 1083  15.592   4.717   8.301 -0.1877  0.1271  0.2073
   68loPI   C6A 1084  15.213   4.488   8.467 -0.0956 -0.1034  0.0318
   68loPI   C1B 1085  16.431   5.035   9.612 -0.0195  0.0110 -0.0058
   68loPI   C2B 1086  16.412   5.028   9.249 -0.0470 -0.0473 -0.0147
   68loPI   C3B 1087  16.292   5.163   8.895 -0.0619  0.2333 -0.1844
   68loPI   C4B 1088  16.353   5.104   8.427 -0.0016 -0.1943  0.2517
   69loPI    C1 1089   6.290   2.165  11.091 -0.0819 -0.0308 -0.2221
   69loPI    C2 1090   6.143   1.812  11.208 -0.0207  0.0309  0.0488
   69loPI    C3 1091   6.017   2.148  11.384 -0.1480  0.1546 -0.2717
   69loPI   PO4 1092   6.360   2.108  10.812 -0.5017 -0.0056 -0.2277
   69loPI   GL1 1093   6.491   2.277  10.482  0.0156  0.0451  0.2386
   69loPI   GL2 1094   6.370   2.496  10.311 -0.1662 -0.4942  0.1673
   69loPI   C1A 1095   6.757   2.054  10.105 -0.0613  0.0327 -0.1381
   69loPI   C2A 1096   6.797   2.164   9.761  0.1459  0.2214  0.3619
   69loPI   C3A 1097   6.821   1.986   9.372  0.0229 -0.1868 -0.0127
   69loPI   C4A 1098   6.802   2.033   9.025 -0.3312 -0.1089  0.0987
   69loPI   C5A 1099   6.718   1.909   8.676  0.0314  0.2213 -0.0828
   69loPI   C6A 1100   6.254   1.806   8.465 -0.2582  0.0816  0.2461
   69loPI   C1B 1101   6.363   2.345   9.924  0.2594  0.0381  0.0753
   69loPI   C2B 1102   6.435   2.405   9.486 -0.1770 -0.1426  0.1559
   69loPI   C3B 1103   6.718   2.462   9.210 -0.0862  0.0229  0.2074
   69loPI   C4B 1104   6.814   2.448   8.778 -0.1371  0.0280  0.1619
   70loPI    C1 1105  15.204   3.476  11.018  0.0681 -0.0826  0.0693
   70loPI    C2 1106  15.114   3.225  11.317 -0.3482 -0.0404 -0.0148
   70loPI    C3 1107  15.106   3.620  11.379 -0.1563 -0.0369 -0.0082
   70loPI   PO4 1108  15.058   3.443  10.754 -0.0210  0.0590  0.0449
   70loPI   GL1 1109  15.044   3.553  10.296 -0.0481  0.4629 -0.1059
   70loPI   GL2 1110  15.388   3.507  10.126 -0.3910 -0.0603 -0.0946
   70loPI   C1A 1111  14.938   3.725   9.931  0.0358 -0.1353 -0.1699
   70loPI   C2A 1112  14.880   3.687   9.473 -0.2550  0.0579  0.0344
   70loPI   C3A 1113  14.796   3.708   9.109  0.0104  0.0226 -0.1115
   70loPI   C4A 1114  14.764   3.720   8.721 -0.1647 -0.1507  0.0371
   70loPI   C5A 1115  14.603   3.397   8.402  0.1940 -0.1549 -0.0636
   70loPI   C6A 1116  14.210   3.268   8.280  0.4235  0.2611  0.0587
   70loPI   C1B 1117  15.346   3.642   9.650 -0.2524  0.0240 -0.0035
   70loPI   C2B 1118  15.312   3.520   9.230  0.1448  0.0261 -0.2311
   70loPI   C3B 1119  15.254   3.636   8.799  0.0485 -0.4527 -0.1116
   70loPI   C4B 1120  15.467   3.696   8.396  0.0245  0.1364  0.2512
   71loPI    C1 1121  17.041   8.432   9.989  0.1633 -0.1209 -0.1055
   71loPI    C2 1122  17.392   8.486  10.173  0.1152 -0.0483 -0.0343
   71loPI    C3 1123  17.199   8.137  10.209  0.1398 -0.0590 -0.0051
   71loPI   PO4 1124  17.036   8.415   9.778  0.0569 -0.3575 -0.0638
   71loPI   GL1 1125  16.828   8.428   9.422 -0.1952  0.2462  0.1942
   71loPI   GL2 1126  17.090   8.279   9.340 -0.1735 -0.0793  0.2888
   71loPI   C1A 1127  16.735   8.440   8.934  0.0192 -0.0990 -0.3031
   71loPI   C2A 1128  16.966   8.579   8.590 -0.3182  0.1228 -0.1122
   71loPI   C3A 1129  17.132   8.889   8.334  0.2514 -0.0292  0.2812
   71loPI   C4A 1130  17.253   9.103   7.915  0.1559  0.2338  0.0359
   71loPI   C5A 1131  17.615   9.388   7.803 -0.5105  0.1093  0.1389
   71loPI   C6A 1132  17.630   9.738   7.756 -0.0585  0.2584  0.1276
   71loPI   C1B 1133  17.167   8.124   8.926 -0.2814 -0.1923  0.0227
   71loPI   C2B 1134  17.222   8.185   8.487  0.2598 -0.1632  0.1609
   71loPI   C3B 1135  17.283   8.335   8.048  0.0344 -0.0824 -0.0312
   71loPI   C4B 1136  17.171   8.606   7.616  0.1626 -0.0921  0.0839
   72loPI    C1 1137   6.120  13.556  11.035 -0.1217  0.2913 -0.2884
   72loPI    C2 1138   5.799  13.745  11.182 -0.0890  0.0266  0.1398
   72loPI    C3 1139   5.801  13.346  11.154  0.0834  0.0456 -0.1623
   72loPI   PO4 1140   6.188  13.730  10.860 -0.0966 -0.0185  0.0337
   72loPI   GL1 1141   6.142  13.879  10.417 -0.1370 -0.0689 -0.1832
   72loPI   GL2 1142   6.038  14.269  10.273  0.2936 -0.4074 -0.2653
   72loPI   C1A 1143   6.113  13.808   9.926 -0.0766 -0.1614  0.2114
   72loPI   C2A 1144   6.114  13.786   9.551  0.1443 -0.1048 -0.0861
   72loPI   C3A 1145   6.296  13.771   9.175  0.1588  0.2526  0.0430
   72loPI   C4A 1146   6.244  13.834   8.700  0.2760  0.0222  0.1367
   72loPI   C5A 1147   6.252  13.545   8.368  0.2196  0.0344 -0.1653
   72loPI   C6A 1148   6.188  13.162   8.024 -0.1323  0.1092  0.2551
   72loPI   C1B 1149   6.058  14.369   9.843 -0.0670 -0.1241  0.1896
   72loPI   C2B 1150   5.860  14.342   9.468  0.1118  0.2214 -0.4331
   72loPI   C3B 1151   6.082  14.337   9.034 -0.2477  0.1432 -0.0031
   72loPI   C4B 1152   6.120  14.284   8.586  0.2602  0.1980  0.0404
   73loPI    C1 1153  17.199   9.268  10.014  0.4849 -0.0332 -0.2122
   73loPI    C2 1154  17.140   8.943  10.239 -0.3047  0.1487 -0.1280
   73loPI    C3 1155  17.360   9.246  10.379  0.0917 -0.1706 -0.0415
   73loPI   PO4 1156  16.951   9.193   9.831 -0.1773 -0.1901  0.1661
   73loPI   GL1 1157  16.675   9.323   9.584 -0.0990  0.0327  0.0655
   73loPI   GL2 1158  16.753   8.938   9.435 -0.0412 -0.1455  0.1311
   73loPI   C1A 1159  16.862   9.432   9.172 -0.3463  0.1032 -0.0084
   73loPI   C2A 1160  16.561   9.395   8.857 -0.0410 -0.2906 -0.0632
   73loPI   C3A 1161  16.491   9.496   8.398 -0.1032 -0.1353 -0.0679
   73loPI   C4A 1162  16.261   9.627   8.048 -0.2810  0.3867 -0.0746
   73loPI   C5A 1163  16.031   9.691   7.705 -0.1593 -0.0461  0.3333
   73loPI   C6A 1164  15.756   9.940   7.403 -0.0308 -0.1326  0.1135
   73loPI   C1B 1165  16.668   8.943   9.056 -0.1172 -0.2250 -0.1107
   73loPI   C2B 1166  16.568   8.907   8.631  0.2081  0.0063 -0.1669
   73loPI   C3B 1167  16.644   9.092   8.177 -0.1417 -0.1087 -0.0508
   73loPI   C4B 1168  16.823   9.436   7.965 -0.2130  0.1539 -0.1326
   74loPI    C1 1169   3.867  12.979  10.881  0.0852  0.3336 -0.0112
   74loPI    C2 1170   3.712  13.293  11.074 -0.1229  0.1495  0.1263
   74loPI    C3 1171   3.999  13.074  11.246 -0.2047  0.0731  0.1664
   74loPI   PO4 1172   3.777  12.989  10.686 -0.4222 -0.2001  0.2015
   74loPI   GL1 1173   3.949  13.153  10.352  0.1561  0.2178  0.0570
   74loPI   GL2 1174   3.673  12.894  10.236  0.1115  0.0225  0.1747
   74loPI   C1A 1175   3.969  13.093   9.916  0.1194  0.6078  0.0744
   74loPI   C2A 1176   3.955  13.086   9.421 -0.0151  0.1711  0.2262
   74loPI   C3A 1177   4.089  13.207   9.009  0.0019  0.2015 -0.0161
   74loPI   C4A 1178   3.919  13.301   8.587 -0.2441  0.1121 -0.2614
   74loPI   C5A 1179   3.967  13.370   8.226 -0.0711  0.0777  0.3222
   74loPI   C6A 1180   4.248  13.167   7.967  0.2158 -0.1145  0.3423
   74loPI   C1B 1181   3.564  12.754   9.833 -0.0681 -0.3805  0.1109
   74loPI   C2B 1182   3.491  12.810   9.554 -0.2491 -0.2067  0.1671
   74loPI   C3B 1183   3.569  12.887   9.112 -0.1556 -0.1834  0.2349
   74loPI   C4B 1184   3.507  12.857   8.657 -0.1483  0.0134 -0.2791
   75loPI    C1 1185  16.667  12.837  10.129  0.3517  0.1226  0.1742
   75loPI    C2 1186  16.925  12.845  10.434  0.1997 -0.2807  0.3210
   75loPI    C3 1187  16.631  12.574  10.429  0.0498 -0.1174 -0.0649
   75loPI   PO4 1188  16.613  13.051  10.103  0.0532 -0.0706  0.2749
   75loPI   GL1 1189  16.506  13.212   9.680  0.0411 -0.2992 -0.1877
   75loPI   GL2 1190  16.375  12.929   9.706 -0.0963  0.0871  0.1285
   75loPI   C1A 1191  16.486  13.161   9.258 -0.0521  0.1613 -0.2783
   75loPI   C2A 1192  16.484  13.188   8.859  0.0024  0.1299 -0.0692
   75loPI   C3A 1193  16.392  13.064   8.426 -0.1903  0.1535 -0.1056
   75loPI   C4A 1194  16.402  12.893   7.994  0.1305  0.0733  0.1786
   75loPI   C5A 1195  16.663  12.800   7.666  0.0800  0.0724  0.0619
   75loPI   C6A 1196  16.968  12.463   7.588 -0.2544  0.2891  0.2505
   75loPI   C1B 1197  16.033  12.964   9.415 -0.1266  0.0044 -0.0708
   75loPI   C2B 1198  16.024  12.944   9.007  0.0634  0.1259  0.1906
   75loPI   C3B 1199  15.908  12.931   8.573 -0.0488 -0.2022 -0.0237
   75loPI   C4B 1200  15.602  13.042   8.240 -0.4338 -0.0545 -0.3133
   76loPI    C1 1201  17.128   5.606  10.240 -0.1815  0.1667  0.0633
   76loPI    C2 1202  17.313   5.261  10.156 -0.0017  0.2902 -0.0560
   76loPI    C3 1203  16.941   5.258  10.303 -0.0430  0.0493 -0.1608
   76loPI   PO4 1204  17.261   5.797  10.084  0.1664 -0.3227 -0.1066
   76loPI   GL1 1205  17.265   5.671   9.740 -0.0333 -0.0209  0.0370
   76loPI   GL2 1206  17.237   5.700   9.372  0.0825  0.3419  0.0375
   76loPI   C1A 1207  17.300   5.242   9.676 -0.0870  0.2524  0.0445
   76loPI   C2A 1208  17.295   5.147   9.300 -0.0887 -0.0013  0.2297
   76loPI   C3A 1209  17.293   5.200   8.931  0.0749  0.0243 -0.0744
   76loPI   C4A 1210  17.207   5.245   8.586 -0.1264  0.0457  0.3274
   76loPI   C5A 1211  17.057   5.273   8.169 -0.0168 -0.1043  0.0233
   76loPI   C6A 1212  16.734   5.196   7.875  0.0835 -0.0919 -0.0416
   76loPI   C1B 1213  17.110   5.664   8.931  0.2722 -0.3100 -0.0739
   76loPI   C2B 1214  17.116   5.771   8.589  0.0662  0.0364  0.2156
   76loPI   C3B 1215  17.343   5.689   8.188  0.1198 -0.2269 -0.1616
   76loPI   C4B 1216  17.531   5.443   7.806  0.2174  0.0011  0.1709
   77loPI    C1 1217  10.088   1.632  10.980 -0.0931  0.0080  0.0844
   77loPI    C2 1218  10.090   1.713  11.372  0.1824  0.0071  0.0857
   77loPI    C3 1219  10.372   1.868  11.135  0.0829 -0.0836 -0.0944
   77loPI   PO4 1220  10.017   1.343  10.964  0.0821 -0.3459 -0.0770
   77loPI   GL1 1221   9.988   1.112  10.678 -0.0990  0.2400 -0.2015
   77loPI   GL2 1222   9.952   0.826  10.694 -0.1258 -0.0733 -0.0526
   77loPI   C1A 1223   9.838   1.164  10.257  0.2321  0.0624 -0.1350
   77loPI   C2A 1224   9.781   1.194   9.815 -0.1331  0.3572  0.0450
   77loPI   C3A 1225   9.783   1.111   9.431  0.0155 -0.2652  0.1686
   77loPI   C4A 1226   9.831   1.136   9.006 -0.0512 -0.0986 -0.1015
   77loPI   C5A 1227   9.678   1.392   8.573 -0.0203 -0.3254  0.1097
   77loPI   C6A 1228   9.594   1.752   8.392 -0.0924 -0.1019  0.1329
   77loPI   C1B 1229   9.940   0.625  10.265 -0.1161 -0.2389 -0.0234
   77loPI   C2B 1230   9.897   0.492   9.779 -0.1102 -0.3390  0.1416
   77loPI   C3B 1231   9.980   0.560   9.376  0.3476 -0.1233  0.1231
   77loPI   C4B 1232   9.962   0.472   8.957 -0.1528 -0.1250 -0.2898
   78loPI    C1 1233   7.272   0.497  11.263 -0.1516 -0.0019  0.0268
   78loPI    C2 1234   7.046   0.223  11.447 -0.2895  0.3088  0.3312
   78loPI    C3 1235   7.421   0.288  11.571 -0.0816 -0.0847 -0.0626
   78loPI   PO4 1236   7.228   0.455  11.023  0.2299 -0.0566 -0.0483
   78loPI   GL1 1237   7.357   0.539  10.583 -0.2954  0.0051 -0.0738
   78loPI   GL2 1238   7.216   0.160  10.554 -0.1334  0.1725  0.0691
   78loPI   C1A 1239   7.448   0.859  10.226  0.0583 -0.1056  0.2264
   78loPI   C2A 1240   7.545   1.020   9.905 -0.0437 -0.0226 -0.1158
   78loPI   C3A 1241   7.527   0.914   9.497 -0.0909 -0.1922  0.0519
   78loPI   C4A 1242   7.655   0.890   9.041  0.1512  0.1925  0.0360
   78loPI   C5A 1243   7.882   0.900   8.607 -0.1454  0.0430 -0.2675
   78loPI   C6A 1244   7.912   0.669   8.186  0.0032  0.0914 -0.1820
   78loPI   C1B 1245   7.105   0.440  10.141  0.0701  0.2486 -0.2195
   78loPI   C2B 1246   7.064   0.487   9.683 -0.1810 -0.1699  0.1010
   78loPI   C3B 1247   7.089   0.549   9.177  0.0996  0.6010  0.0582
   78loPI   C4B 1248   7.269   0.667   8.762 -0.2516 -0.2642 -0.0157
   79loPI    C1 1249  10.201   4.572  11.226 -0.3115  0.1003  0.1200
   79loPI    C2 1250  10.121   4.789  11.552 -0.0606  0.0246  0.2344
   79loPI    C3 1251  10.460   4.577  11.531 -0.1193 -0.0457 -0.0377
   79loPI   PO4 1252  10.251   4.694  11.055 -0.1858 -0.2572  0.3073
   79loPI   GL1 1253  10.543   4.531  10.681 -0.0538 -0.1209  0.0606
   79loPI   GL2 1254  10.615   4.246  10.599 -0.1891  0.2421  0.3578
   79loPI   C1A 1255  10.486   4.622  10.262 -0.1641  0.2898 -0.1330
   79loPI   C2A 1256  10.441   4.763   9.775  0.3042  0.1979  0.1467
   79loPI   C3A 1257  10.356   4.726   9.285  0.1618 -0.1177 -0.2183
   79loPI   C4A 1258  10.301   4.821   8.862 -0.0470 -0.0391  0.1225
   79loPI   C5A 1259  10.384   4.694   8.472  0.2617 -0.1156  0.1773
   79loPI   C6A 1260  10.391   4.294   8.395  0.0932 -0.0520 -0.0418
   79loPI   C1B 1261  10.657   4.123  10.123  0.2231  0.3253  0.2154
   79loPI   C2B 1262  10.613   4.247   9.676  0.2685  0.0256  0.3149
   79loPI   C3B 1263  10.574   4.216   9.270 -0.3064  0.0823 -0.3580
   79loPI   C4B 1264  10.486   4.165   8.878 -0.0111 -0.0584  0.2006
   80loPI    C1 1265  16.782   7.793  10.510 -0.0385 -0.0772 -0.3316
   80loPI    C2 1266  17.113   7.580  10.579 -0.0692 -0.0163  0.0216
   80loPI    C3 1267  17.071   7.944  10.741 -0.3104 -0.0250 -0.0172
   80loPI   PO4 1268  16.751   7.769  10.235  0.0989  0.1341 -0.2243
   80loPI   GL1 1269  16.465   7.696   9.921  0.0792 -0.1603  0.1470
   80loPI   GL2 1270  16.405   7.412   9.843 -0.0536 -0.0446 -0.1556
   80loPI   C1A 1271  16.265   7.970   9.572  0.1972 -0.0365 -0.1847
   80loPI   C2A 1272  16.198   8.009   9.108 -0.1569  0.4132 -0.0849
   80loPI   C3A 1273  16.305   8.045   8.697  0.0284  0.0659 -0.3179
   80loPI   C4A 1274  16.165   8.018   8.308 -0.1120 -0.3325 -0.0117
   80loPI   C5A 1275  16.323   7.814   7.958  0.1004 -0.1103  0.3082
   80loPI   C6A 1276  16.293   7.638   7.574  0.2051  0.1574  0.0421
   80loPI   C1B 1277  16.383   7.583   9.370 -0.0075 -0.2679 -0.1094
   80loPI   C2B 1278  16.328   7.530   8.953 -0.0682 -0.1200 -0.0618
   80loPI   C3B 1279  16.400   7.588   8.521 -0.0105  0.1994  0.3249
   80loPI   C4B 1280  16.089   7.440   8.279  0.0645  0.2451  0.1247
   81loPI    C1 1281  12.068   4.937  11.160  0.2726  0.0952 -0.0672
   81loPI    C2 1282  12.407   4.770  11.292 -0.0388 -0.1617  0.4394
   81loPI    C3 1283  12.134   4.902  11.553 -0.4886 -0.2831  0.0456
   81loPI   PO4 1284  12.149   5.146  10.999  0.1925  0.1598 -0.2412
   81loPI   GL1 1285  12.258   5.199  10.527  0.2313  0.0779 -0.1616
   81loPI   GL2 1286  12.259   5.554  10.539 -0.3415 -0.1229 -0.1245
   81loPI   C1A 1287  12.218   5.120  10.070 -0.1264 -0.1533  0.1443
   81loPI   C2A 1288  12.124   5.092   9.696  0.0865 -0.1250 -0.1131
   81loPI   C3A 1289  12.222   5.135   9.337  0.0811 -0.1639 -0.1448
   81loPI   C4A 1290  12.133   5.102   9.000  0.1488 -0.1794 -0.0209
   81loPI   C5A 1291  12.038   4.916   8.632  0.1171  0.2869  0.0898
   81loPI   C6A 1292  11.860   4.548   8.514  0.3911 -0.0805  0.1259
   81loPI   C1B 1293  12.096   5.553  10.147 -0.0736 -0.0475  0.1648
   81loPI   C2B 1294  12.049   5.603   9.663  0.0497  0.0295 -0.1316
   81loPI   C3B 1295  12.025   5.613   9.191 -0.2696  0.0717  0.0607
   81loPI   C4B 1296  12.095   5.536   8.756 -0.0903  0.1596 -0.2417
   82loPI    C1 1297   5.615  15.196  11.044  0.0105  0.1159  0.1824
   82loPI    C2 1298   5.605  15.061  11.420 -0.1713  0.2228  0.2175
   82loPI    C3 1299   5.438  15.412  11.330 -0.1661  0.1775  0.0283
   82loPI   PO4 1300   5.565  14.847  10.964 -0.0240  0.2934 -0.0186
   82loPI   GL1 1301   5.565  14.730  10.522 -0.2030  0.1994 -0.1396
   82loPI   GL2 1302   5.836  15.046  10.541  0.0422  0.2346  0.0080
   82loPI   C1A 1303   5.354  15.038  10.240 -0.2607  0.3877  0.0587
   82loPI   C2A 1304   5.366  14.989   9.762 -0.0180 -0.2302 -0.1381
   82loPI   C3A 1305   5.389  14.981   9.258  0.2148  0.1397 -0.1963
   82loPI   C4A 1306   5.466  15.035   8.801  0.0459 -0.2043  0.0570
   82loPI   C5A 1307   5.783  15.028   8.511  0.1993  0.3713  0.3900
   82loPI   C6A 1308   6.099  14.945   8.258  0.1696 -0.1321  0.1190
   82loPI   C1B 1309   5.806  15.206  10.032  0.0955 -0.1317  0.0891
   82loPI   C2B 1310   5.705  15.289   9.567 -0.1892 -0.0363 -0.0723
   82loPI   C3B 1311   5.851  15.326   9.059 -0.0548 -0.0056 -0.1493
   82loPI   C4B 1312   6.138  15.287   8.716 -0.0983  0.0663 -0.0115
   83loPI    C1 1313   2.779  16.436  10.899 -0.3289  0.0922 -0.1070
   83loPI    C2 1314   2.694  16.045  10.905 -0.1305  0.0501  0.1167
   83loPI    C3 1315   2.743  16.244  11.248  0.0678  0.2053  0.0011
   83loPI   PO4 1316   2.706  16.454  10.599 -0.3639  0.1193  0.0720
   83loPI   GL1 1317   2.819  16.361  10.278 -0.0650 -0.0686  0.0593
   83loPI   GL2 1318   3.128  16.380  10.165  0.2460 -0.0464  0.0470
   83loPI   C1A 1319   2.877  16.175   9.817  0.1089 -0.1436 -0.2584
   83loPI   C2A 1320   2.983  16.025   9.388  0.0693  0.0751  0.1088
   83loPI   C3A 1321   2.861  15.901   9.026 -0.0777  0.0325  0.2939
   83loPI   C4A 1322   2.832  16.036   8.516 -0.1466  0.0006  0.0502
   83loPI   C5A 1323   2.962  16.270   8.183  0.0918 -0.1310  0.3370
   83loPI   C6A 1324   2.851  16.618   7.964  0.1014 -0.1565 -0.0925
   83loPI   C1B 1325   2.952  16.694   9.797  0.0256 -0.1627  0.3012
   83loPI   C2B 1326   2.794  16.900   9.469  0.0403 -0.0309  0.3037
   83loPI   C3B 1327   2.815  16.903   9.048 -0.0340 -0.1248 -0.0872
   83loPI   C4B 1328   2.619  17.055   8.676 -0.0523  0.1426  0.1113
   84loPI    C1 1329   4.223   7.100  10.785 -0.0360 -0.2371  0.0157
   84loPI    C2 1330   4.470   6.797  10.868 -0.0116 -0.1430  0.2946
   84loPI    C3 1331   4.243   6.956  11.157 -0.1682 -0.0226  0.1080
   84loPI   PO4 1332   4.278   7.234  10.520 -0.0577 -0.1508 -0.0607
   84loPI   GL1 1333   4.405   6.984  10.132 -0.0284 -0.1701  0.0203
   84loPI   GL2 1334   4.364   6.771  10.399 -0.0897 -0.0294  0.2005
   84loPI   C1A 1335   4.607   6.986   9.758  0.0901  0.1054 -0.2703
   84loPI   C2A 1336   4.679   6.983   9.285  0.3221  0.1756 -0.0349
   84loPI   C3A 1337   4.955   7.008   8.962 -0.1143 -0.0085 -0.0008
   84loPI   C4A 1338   5.046   7.231   8.538  0.1523  0.0687 -0.0739
   84loPI   C5A 1339   5.498   7.262   8.308 -0.4642  0.0670 -0.2383
   84loPI   C6A 1340   5.673   7.652   8.222 -0.3086  0.0305  0.2581
   84loPI   C1B 1341   4.540   6.441  10.147 -0.1851  0.3695  0.1923
   84loPI   C2B 1342   4.868   6.171   9.995 -0.2528  0.0524 -0.2674
   84loPI   C3B 1343   5.007   6.035   9.592  0.1197 -0.0781  0.1675
   84loPI   C4B 1344   5.085   5.965   9.155 -0.4329  0.2160  0.0391
   85loPI    C1 1345   8.043  16.996  11.135 -0.2252 -0.0362  0.0378
   85loPI    C2 1346   8.224  16.976  11.491 -0.0789  0.0292 -0.0323
   85loPI    C3 1347   7.876  17.169  11.454 -0.1528 -0.0774  0.0983
   85loPI   PO4 1348   8.228  17.123  10.985  0.1776  0.0735  0.3793
   85loPI   GL1 1349   8.370  17.060  10.541 -0.1621 -0.1363 -0.1950
   85loPI   GL2 1350   8.184  16.773  10.341 -0.0534 -0.3053 -0.0858
   85loPI   C1A 1351   8.190  17.301  10.134  0.0331  0.0345  0.0185
   85loPI   C2A 1352   8.223  17.416   9.831 -0.0266  0.1001 -0.0734
   85loPI   C3A 1353   8.258  17.358   9.436 -0.0556  0.0944 -0.0473
   85loPI   C4A 1354   8.298  17.431   9.035 -0.1694  0.0191 -0.0065
   85loPI   C5A 1355   8.306  17.586   8.656  0.0491 -0.1639  0.4144
   85loPI   C6A 1356   8.277  17.411   8.331  0.1355  0.2377  0.1812
   85loPI   C1B 1357   8.292  16.842   9.961 -0.0478 -0.0876  0.1426
   85loPI   C2B 1358   8.380  16.852   9.619  0.1111  0.0219  0.2691
   85loPI   C3B 1359   8.385  16.874   9.152 -0.0487  0.2996  0.0168
   85loPI   C4B 1360   8.402  17.052   8.741  0.0388  0.0004 -0.0499
   86loPI    C1 1361  16.507  15.368  10.507 -0.0198 -0.2750  0.0274
   86loPI    C2 1362  16.865  15.442  10.669 -0.1001 -0.0404  0.1008
   86loPI    C3 1363  16.532  15.560  10.857 -0.2118 -0.1593 -0.0207
   86loPI   PO4 1364  16.460  15.370  10.310 -0.2729 -0.0136 -0.2085
   86loPI   GL1 1365  16.466  15.276   9.913  0.0641  0.0664  0.0207
   86loPI   GL2 1366  16.722  15.172   9.715 -0.0747 -0.1837 -0.1319
   86loPI   C1A 1367  16.303  15.170   9.473  0.3626  0.2049 -0.0711
   86loPI   C2A 1368  16.189  15.166   8.993  0.0095  0.0961  0.0537
   86loPI   C3A 1369  16.269  15.057   8.559 -0.1807 -0.0460 -0.0571
   86loPI   C4A 1370  16.399  14.917   8.168  0.1124 -0.0886  0.1620
   86loPI   C5A 1371  16.333  15.207   7.768  0.1078 -0.1390 -0.0977
   86loPI   C6A 1372  15.926  15.476   7.709  0.2547  0.0561 -0.0781
   86loPI   C1B 1373  16.735  14.978   9.302 -0.1421 -0.0078 -0.2599
   86loPI   C2B 1374  16.655  14.998   8.856  0.1327  0.2528  0.1248
   86loPI   C3B 1375  16.801  15.094   8.465 -0.1912 -0.3329  0.2079
   86loPI   C4B 1376  16.705  15.341   8.091 -0.0648 -0.0457  0.0969
   87loPI    C1 1377   6.659  17.444  11.049  0.1767  0.0508 -0.0913
   87loPI    C2 1378   6.869  17.237  11.319 -0.2315 -0.1593  0.0744
   87loPI    C3 1379   6.731  17.601  11.410  0.0815 -0.0071 -0.0466
   87loPI   PO4 1380   6.806  17.405  10.848  0.0409 -0.3277 -0.0645
   87loPI   GL1 1381   6.858  17.220  10.523  0.3433  0.0476 -0.4256
   87loPI   GL2 1382   6.858  16.870  10.456 -0.1577  0.0043  0.1951
   87loPI   C1A 1383   6.778  17.289  10.056 -0.3195 -0.3878  0.5201
   87loPI   C2A 1384   6.807  17.413   9.666  0.1501  0.2284  0.1941
   87loPI   C3A 1385   6.871  17.438   9.288 -0.1442 -0.0259 -0.0718
   87loPI   C4A 1386   6.861  17.395   8.822  0.2785 -0.0214  0.1008
   87loPI   C5A 1387   6.695  17.492   8.457 -0.0757  0.0214  0.3357
   87loPI   C6A 1388   6.652  17.332   8.053 -0.0444  0.1027  0.1523
   87loPI   C1B 1389   6.964  16.787  10.091  0.0170  0.2239  0.0528
   87loPI   C2B 1390   6.955  16.923   9.666 -0.2634  0.0382 -0.0653
   87loPI   C3B 1391   6.972  16.955   9.185 -0.0226  0.1883  0.0596
   87loPI   C4B 1392   6.976  16.926   8.788  0.0319  0.1468  0.0795
   88loPI    C1 1393   4.975   0.825  10.941  0.1860  0.3819 -0.2560
   88loPI    C2 1394   5.209   0.600  11.175  0.0670  0.2177 -0.2930
   88loPI    C3 1395   5.054   0.941  11.316  0.0248  0.1377 -0.1437
   88loPI   PO4 1396   5.094   0.832  10.711 -0.1536 -0.2489 -0.1471
   88loPI   GL1 1397   4.848   0.691  10.290  0.1358 -0.2419 -0.3420
   88loPI   GL2 1398   5.100   0.550  10.303 -0.0891  0.1009  0.1857
   88loPI   C1A 1399   4.671   0.819   9.884  0.2218 -0.1721  0.0554
   88loPI   C2A 1400   4.690   0.866   9.458  0.0422 -0.0311  0.1648
   88loPI   C3A 1401   4.711   0.809   9.043  0.0415  0.0242 -0.0878
   88loPI   C4A 1402   4.699   0.630   8.660  0.3047  0.0078 -0.2794
   88loPI   C5A 1403   4.916   0.454   8.242  0.0653  0.3660  0.0136
   88loPI   C6A 1404   5.298   0.162   8.132 -0.1034  0.0713  0.1899
   88loPI   C1B 1405   5.156   0.697   9.895 -0.0242  0.1675  0.0324
   88loPI   C2B 1406   5.148   0.675   9.408  0.2657 -0.1010 -0.2489
   88loPI   C3B 1407   5.249   0.582   9.096  0.0987  0.0581  0.0713
   88loPI   C4B 1408   5.294   0.541   8.624  0.0350 -0.1115 -0.0377
   89loPI    C1 1409  13.233   4.356  11.037  0.2453 -0.2135  0.3200
   89loPI    C2 1410  13.350   4.686  11.231  0.1767 -0.1391  0.2356
   89loPI    C3 1411  13.037   4.475  11.365  0.0555 -0.0219  0.1403
   89loPI   PO4 1412  13.486   4.214  11.046  0.0371 -0.0709  0.1394
   89loPI   GL1 1413  13.656   4.236  10.664  0.5171 -0.0117 -0.0259
   89loPI   GL2 1414  13.442   4.344  10.555 -0.0203  0.0156 -0.4486
   89loPI   C1A 1415  13.816   4.105  10.273  0.3535  0.0832 -0.1040
   89loPI   C2A 1416  13.840   4.024   9.856 -0.0501 -0.1970 -0.0659
   89loPI   C3A 1417  13.914   4.041   9.376  0.0718 -0.1497 -0.2047
   89loPI   C4A 1418  13.834   4.126   8.934  0.3238 -0.0767  0.0505
   89loPI   C5A 1419  13.585   4.215   8.630 -0.0186 -0.0518 -0.1527
   89loPI   C6A 1420  13.141   4.373   8.505 -0.1345  0.3478  0.2391
   89loPI   C1B 1421  13.338   4.318  10.159  0.0842 -0.1289  0.2540
   89loPI   C2B 1422  13.377   4.210   9.746  0.2037  0.2659 -0.0956
   89loPI   C3B 1423  13.441   4.233   9.403 -0.0410 -0.1259  0.0566
   89loPI   C4B 1424  13.267   4.222   9.004  0.2129  0.1374 -0.1075
   90loPI    C1 1425  12.092  10.598  11.014  0.2167  0.1273  0.0313
   90loPI    C2 1426  11.885  10.722  11.332  0.0190  0.0679 -0.0725
   90loPI    C3 1427  12.110  10.393  11.357  0.1270  0.1503  0.0499
   90loPI   PO4 1428  12.158  10.866  10.938  0.1780 -0.1659 -0.2230
   90loPI   GL1 1429  12.287  10.843  10.530  0.0359 -0.0763 -0.2393
   90loPI   GL2 1430  12.490  10.688  10.562 -0.0088 -0.2551 -0.3722
   90loPI   C1A 1431  12.199  10.997  10.230  0.1432  0.1278 -0.1273
   90loPI   C2A 1432  12.068  10.899   9.787 -0.0918 -0.0536 -0.0929
   90loPI   C3A 1433  12.002  10.842   9.368 -0.0343  0.1834  0.2121
   90loPI   C4A 1434  11.925  10.978   9.013  0.4061  0.1808 -0.0381
   90loPI   C5A 1435  11.632  11.026   8.700 -0.1163  0.1592  0.2122
   90loPI   C6A 1436  11.270  10.838   8.525  0.1299  0.0148  0.0169
   90loPI   C1B 1437  12.582  10.757  10.099 -0.0050 -0.0636  0.1847
   90loPI   C2B 1438  12.515  10.743   9.568 -0.2413 -0.1236  0.1252
   90loPI   C3B 1439  12.448  10.805   9.186 -0.0829  0.3056  0.2840
   90loPI   C4B 1440  12.413  10.799   8.761 -0.1644  0.0388 -0.0055
   91loPI    C1 1441  17.056   2.998  10.683 -0.1099  0.0450  0.1821
   91loPI    C2 1442  17.092   3.382  10.786  0.0833  0.1203 -0.1506
   91loPI    C3 1443  17.097   3.098  11.068 -0.1303  0.3635  0.1037
   91loPI   PO4 1444  16.947   3.046  10.429  0.0765  0.0846 -0.3211
   91loPI   GL1 1445  16.768   3.070  10.063 -0.3322 -0.2780 -0.0042
   91loPI   GL2 1446  17.007   3.286   9.945 -0.1499 -0.2385  0.1048
   91loPI   C1A 1447  16.604   3.023   9.674 -0.1854 -0.3240  0.2706
   91loPI   C2A 1448  16.410   3.108   9.203  0.0416 -0.3137 -0.2031
   91loPI   C3A 1449  16.298   3.302   8.844 -0.0749  0.2980 -0.1918
   91loPI   C4A 1450  16.348   3.371   8.348  0.1569 -0.1918 -0.1498
   91loPI   C5A 1451  16.405   3.294   7.967 -0.0075  0.2320 -0.0053
   91loPI   C6A 1452  16.770   3.214   7.724  0.0448  0.3637 -0.2081
   91loPI   C1B 1453  16.819   3.441   9.486 -0.3265 -0.1965 -0.3416
   91loPI   C2B 1454  16.603   3.568   9.077 -0.0080 -0.0492 -0.1453
   91loPI   C3B 1455  16.808   3.491   8.649 -0.3019 -0.0513  0.0760
   91loPI   C4B 1456  16.900   3.185   8.272  0.0447 -0.0402 -0.0798
   92loPI    C1 1457   0.788   8.004  10.066  0.1385 -0.2023  0.1526
   92loPI    C2 1458   0.418   8.094  10.191  0.1404  0.0479 -0.0148
   92loPI    C3 1459   0.735   8.197  10.412  0.1110 -0.2014  0.1480
   92loPI   PO4 1460   0.699   7.989   9.806 -0.0053  0.1907 -0.2342
   92loPI   GL1 1461   0.564   8.320   9.491 -0.2253 -0.1770 -0.1361
   92loPI   GL2 1462   0.875   8.360   9.496 -0.1575 -0.0440  0.1021
   92loPI   C1A 1463   0.206   8.437   9.224  0.1626  0.0491  0.0570
   92loPI   C2A 1464   0.181   8.480   8.810  0.2278 -0.0181  0.0240
   92loPI   C3A 1465   0.395   8.486   8.369 -0.1274 -0.3161 -0.0426
   92loPI   C4A 1466   0.460   8.645   8.002  0.1875 -0.3288 -0.1596
   92loPI   C5A 1467   0.311   8.630   7.638 -0.2498  0.1147  0.3240
   92loPI   C6A 1468   0.320   8.208   7.443  0.1078 -0.3858  0.0127
   92loPI   C1B 1469   0.794   8.244   8.984 -0.0449 -0.1425  0.1501
   92loPI   C2B 1470   0.865   8.252   8.553 -0.0097  0.1071 -0.1782
   92loPI   C3B 1471   0.947   8.437   8.105  0.0150  0.0276 -0.0279
   92loPI   C4B 1472   0.888   8.539   7.765 -0.0361  0.1703 -0.0479
   93loPI    C1 1473  14.127   7.301  11.256 -0.1175 -0.0917  0.1164
   93loPI    C2 1474  13.772   7.410  11.405 -0.0517  0.1098  0.1282
   93loPI    C3 1475  14.041   7.228  11.639 -0.1867 -0.1416  0.0917
   93loPI   PO4 1476  14.125   7.195  11.027 -0.2273 -0.0387 -0.0953
   93loPI   GL1 1477  13.994   7.317  10.630 -0.1646  0.2567 -0.3819
   93loPI   GL2 1478  14.040   7.021  10.536  0.1923 -0.1131 -0.2179
   93loPI   C1A 1479  13.997   7.762  10.333 -0.2682  0.1603 -0.0081
   93loPI   C2A 1480  13.944   7.738   9.911  0.3263  0.0101  0.1564
   93loPI   C3A 1481  13.939   7.793   9.417 -0.0226  0.0532  0.2111
   93loPI   C4A 1482  13.904   7.758   9.031  0.0592  0.0158 -0.2536
   93loPI   C5A 1483  13.766   7.613   8.595 -0.4961  0.0830  0.1892
   93loPI   C6A 1484  13.386   7.501   8.507 -0.3210 -0.1345 -0.4332
   93loPI   C1B 1485  13.960   7.266  10.139  0.1653  0.0712 -0.0642
   93loPI   C2B 1486  13.968   7.337   9.640 -0.0583 -0.0041 -0.0512
   93loPI   C3B 1487  14.037   7.279   9.203  0.0936  0.0677  0.0307
   93loPI   C4B 1488  14.072   7.197   8.815 -0.3272  0.2547  0.0662
   94loPI    C1 1489   6.661  15.066  10.921  0.0100  0.0709 -0.0027
   94loPI    C2 1490   6.475  15.091  11.274  0.1630  0.0364  0.0814
   94loPI    C3 1491   6.593  15.424  11.086 -0.0237  0.0608  0.0053
   94loPI   PO4 1492   6.588  14.916  10.807  0.3485 -0.0261 -0.1011
   94loPI   GL1 1493   6.266  14.698  10.558 -0.1784  0.0160  0.1817
   94loPI   GL2 1494   6.631  14.653  10.370 -0.2471  0.4767 -0.1294
   94loPI   C1A 1495   6.050  14.766  10.155 -0.0134  0.2153  0.2546
   94loPI   C2A 1496   5.908  14.826   9.767 -0.0891  0.4493 -0.1555
   94loPI   C3A 1497   5.849  14.888   9.298 -0.1440  0.0640  0.3816
   94loPI   C4A 1498   5.894  14.826   8.975 -0.0866  0.2045 -0.2057
   94loPI   C5A 1499   6.158  14.730   8.711  0.1937  0.0607  0.3915
   94loPI   C6A 1500   6.420  14.581   8.313 -0.1267  0.1913  0.0633
   94loPI   C1B 1501   6.480  14.637   9.984 -0.2009 -0.0808  0.1515
   94loPI   C2B 1502   6.430  14.702   9.557  0.0734 -0.2119 -0.0305
   94loPI   C3B 1503   6.438  14.678   9.106 -0.1738  0.0718 -0.3566
   94loPI   C4B 1504   6.614  14.640   8.757  0.1342  0.0098  0.3572
   95loPI    C1 1505   1.800  12.678  10.548 -0.0546 -0.0316 -0.0546
   95loPI    C2 1506   1.545  12.383  10.636 -0.0837 -0.0213 -0.1034
   95loPI    C3 1507   1.517  12.734  10.825  0.0197 -0.0853  0.0328
   95loPI   PO4 1508   1.859  12.648  10.282  0.1941 -0.1693  0.1569
   95loPI   GL1 1509   1.826  12.653   9.823  0.1568 -0.1502 -0.0189
   95loPI   GL2 1510   2.172  12.597   9.888 -0.1142 -0.0768  0.0447
   95loPI   C1A 1511   1.680  12.535   9.412 -0.0385 -0.1629  0.0832
   95loPI   C2A 1512   1.682  12.455   9.014  0.1696 -0.0481  0.1362
   95loPI   C3A 1513   1.576  12.276   8.649 -0.0990 -0.0870  0.0882
   95loPI   C4A 1514   1.820  12.268   8.174 -0.0428  0.1009  0.2666
   95loPI   C5A 1515   2.119  12.377   7.885 -0.0684 -0.0624  0.1346
   95loPI   C6A 1516   2.570  12.319   7.902  0.1346  0.4011 -0.0964
   95loPI   C1B 1517   2.177  12.518   9.400 -0.4518  0.3100  0.0236
   95loPI   C2B 1518   2.199  12.397   8.979 -0.2487  0.0208 -0.0199
   95loPI   C3B 1519   2.033  12.495   8.633 -0.0899  0.3369 -0.2190
   95loPI   C4B 1520   2.249  12.528   8.324  0.0942 -0.0776 -0.0983
   96loPI    C1 1521   1.539  13.958  10.498  0.0036  0.1778  0.0712
   96loPI    C2 1522   1.253  14.183  10.665 -0.0781 -0.0000  0.1739
   96loPI    C3 1523   1.161  13.828  10.505  0.0935 -0.0814  0.2534
   96loPI   PO4 1524   1.646  13.982  10.231 -0.2018 -0.5104  0.3232
   96loPI   GL1 1525   1.845  14.201   9.909  0.2271 -0.1952  0.0635
   96loPI   GL2 1526   1.625  14.247   9.733  0.0294  0.0487  0.0660
   96loPI   C1A 1527   2.112  14.056   9.660 -0.3611  0.4840  0.2581
   96loPI   C2A 1528   2.136  13.988   9.279 -0.0302  0.0344  0.3652
   96loPI   C3A 1529   2.207  14.076   8.896  0.3523  0.1635 -0.1092
   96loPI   C4A 1530   1.881  14.398   8.632  0.1119 -0.1885 -0.1469
   96loPI   C5A 1531   2.026  14.478   8.140  0.0044 -0.1760 -0.0456
   96loPI   C6A 1532   2.132  14.850   7.792  0.0414  0.1210  0.0167
   96loPI   C1B 1533   1.422  14.461   9.354 -0.2618  0.0013  0.0772
   96loPI   C2B 1534   1.405  14.493   8.857 -0.1083  0.1957  0.0841
   96loPI   C3B 1535   1.471  14.436   8.370  0.0971  0.0836  0.0556
   96loPI   C4B 1536   1.450  14.197   8.051 -0.2832  0.0347 -0.1094
   97loPI    C1 1537   1.137   9.811  10.265  0.2765 -0.0887  0.0590
   97loPI    C2 1538   1.240  10.193  10.204 -0.0700  0.0308  0.1987
   97loPI    C3 1539   1.447   9.969  10.463  0.2853  0.0488 -0.0628
   97loPI   PO4 1540   1.128   9.732  10.082  0.1314 -0.1596 -0.2329
   97loPI   GL1 1541   0.968   9.958   9.717  0.1439 -0.1113 -0.0451
   97loPI   GL2 1542   1.300  10.159   9.525  0.2502 -0.4576 -0.0313
   97loPI   C1A 1543   0.966   9.729   9.346  0.1322  0.0132 -0.0536
   97loPI   C2A 1544   0.982   9.706   8.909 -0.0637  0.1340 -0.2629
   97loPI   C3A 1545   0.994   9.787   8.422 -0.0639  0.2349  0.0826
   97loPI   C4A 1546   1.071   9.956   7.977 -0.2290 -0.0951  0.1047
   97loPI   C5A 1547   1.406  10.017   7.747  0.0131 -0.1093 -0.2449
   97loPI   C6A 1548   1.821  10.086   7.473  0.1337 -0.1440  0.0944
   97loPI   C1B 1549   1.258  10.077   9.115 -0.1529  0.2952  0.2924
   97loPI   C2B 1550   1.454  10.058   8.671 -0.1268 -0.0197 -0.2293
   97loPI   C3B 1551   1.362  10.178   8.363  0.0511  0.0459  0.2045
   97loPI   C4B 1552   1.265  10.450   7.995 -0.0773 -0.2543 -0.1790
   98loPI    C1 1553  10.908  11.957  10.917  0.0633 -0.0026  0.0490
   98loPI    C2 1554  10.723  12.140  11.221  0.2344  0.2142  0.0254
   98loPI    C3 1555  11.122  12.141  11.200  0.2392 -0.1688  0.0261
   98loPI   PO4 1556  10.850  12.171  10.640 -0.0494  0.1543  0.2373
   98loPI   GL1 1557  10.937  12.126  10.182  0.2104 -0.0966  0.0621
   98loPI   GL2 1558  11.239  12.150  10.326  0.0253 -0.2642  0.1285
   98loPI   C1A 1559  10.862  12.047   9.736  0.0052  0.0493 -0.2115
   98loPI   C2A 1560  10.885  11.861   9.347 -0.1056  0.0396  0.4708
   98loPI   C3A 1561  10.782  11.785   8.918 -0.1307  0.1133 -0.2503
   98loPI   C4A 1562  10.992  11.698   8.594 -0.0045 -0.0572 -0.2185
   98loPI   C5A 1563  11.188  11.332   8.362  0.0250  0.0710  0.1062
   98loPI   C6A 1564  11.409  11.056   8.085 -0.1218  0.0414  0.2324
   98loPI   C1B 1565  11.378  12.148   9.873  0.3453 -0.0326 -0.0975
   98loPI   C2B 1566  11.271  12.143   9.473 -0.1778  0.1861  0.1753
   98loPI   C3B 1567  11.205  12.117   9.022 -0.0931 -0.0690  0.1498
   98loPI   C4B 1568  11.216  12.188   8.593 -0.0165 -0.2087 -0.0420
   99loPI    C1 1569  16.866  16.729  10.929  0.0343  0.0596  0.1333
   99loPI    C2 1570  16.719  16.371  11.032 -0.0436 -0.0546 -0.3475
   99loPI    C3 1571  16.544  16.705  11.165 -0.0207 -0.1909  0.0365
   99loPI   PO4 1572  16.781  16.747  10.587  0.0200  0.0601  0.1759
   99loPI   GL1 1573  16.742  16.790  10.108  0.0192 -0.2208 -0.3092
   99loPI   GL2 1574  16.527  16.970   9.954  0.1304  0.3835  0.1208
   99loPI   C1A 1575  16.781  16.566   9.664  0.1767 -0.1320  0.1903
   99loPI   C2A 1576  16.821  16.553   9.166  0.3333  0.0396  0.0287
   99loPI   C3A 1577  17.061  16.476   8.843  0.0643  0.0205  0.0625
   99loPI   C4A 1578  17.135  16.371   8.487  0.3299  0.0016 -0.1561
   99loPI   C5A 1579  17.313  16.268   8.141  0.1332 -0.0660 -0.0860
   99loPI   C6A 1580  17.470  15.968   7.942  0.2622  0.1899  0.0219
   99loPI   C1B 1581  16.427  16.874   9.561  0.1215 -0.3201 -0.0281
   99loPI   C2B 1582  16.488  17.005   9.146 -0.0478 -0.1465  0.3437
   99loPI   C3B 1583  16.545  17.126   8.682 -0.0960  0.0690 -0.1063
   99loPI   C4B 1584  16.676  17.330   8.343  0.2770 -0.0168  0.1010
  100loPI    C1 1585  11.922  16.094  11.269  0.1036  0.1398  0.1584
  100loPI    C2 1586  11.545  16.153  11.387  0.0099 -0.1358  0.0065
  100loPI    C3 1587  11.830  16.082  11.658 -0.1146 -0.2840  0.1001
  100loPI   PO4 1588  11.862  16.057  11.023  0.1026  0.0924  0.2231
  100loPI   GL1 1589  12.131  15.891  10.696  0.0240  0.3877 -0.1110
  100loPI   GL2 1590  12.462  15.841  10.660 -0.2447  0.2702  0.0479
  100loPI   C1A 1591  11.916  15.802  10.346 -0.0361  0.2996  0.1800
  100loPI   C2A 1592  12.007  15.821   9.924  0.3318 -0.1319  0.0278
  100loPI   C3A 1593  11.940  15.858   9.510 -0.1015  0.0129  0.0833
  100loPI   C4A 1594  11.771  15.873   9.060 -0.1079 -0.0841  0.0181
  100loPI   C5A 1595  12.057  15.790   8.657 -0.2995 -0.0848 -0.1478
  100loPI   C6A 1596  12.374  15.454   8.536  0.0272  0.0221  0.0513
  100loPI   C1B 1597  12.377  15.625  10.262 -0.1460  0.2685  0.0185
  100loPI   C2B 1598  12.475  15.628   9.824  0.2214  0.3615  0.0178
  100loPI   C3B 1599  12.401  15.626   9.476 -0.0998  0.0735 -0.1329
  100loPI   C4B 1600  12.276  15.578   9.053 -0.1756  0.2240 -0.1428
  101loPI    C1 1601  16.102   6.906  10.875  0.0922  0.0542  0.0183
  101loPI    C2 1602  15.867   6.854  11.194  0.0011  0.2782 -0.0106
  101loPI    C3 1603  16.246   6.972  11.242  0.0496  0.1109  0.0250
  101loPI   PO4 1604  16.027   6.985  10.685  0.1316 -0.1541 -0.1774
  101loPI   GL1 1605  15.865   6.841  10.333 -0.1290 -0.1226  0.0848
  101loPI   GL2 1606  15.555   6.693  10.348  0.0277 -0.2533  0.2004
  101loPI   C1A 1607  16.004   6.996   9.992 -0.1616 -0.1202  0.3276
  101loPI   C2A 1608  15.934   7.149   9.585  0.1269  0.3104 -0.4031
  101loPI   C3A 1609  15.986   7.121   9.204  0.0092  0.0332 -0.0748
  101loPI   C4A 1610  15.872   7.217   8.765 -0.3181 -0.1204  0.2232
  101loPI   C5A 1611  15.549   7.251   8.509  0.0098 -0.3446 -0.3174
  101loPI   C6A 1612  15.116   7.437   8.408  0.3073  0.0068 -0.1986
  101loPI   C1B 1613  15.666   6.691   9.850 -0.1822  0.0415  0.0369
  101loPI   C2B 1614  15.682   6.761   9.429  0.2130  0.3424 -0.1849
  101loPI   C3B 1615  15.589   6.815   9.002 -0.0615 -0.0059 -0.2972
  101loPI   C4B 1616  15.601   6.750   8.561  0.0880  0.0067 -0.2321
  102loPI    C1 1617   8.694  13.618  11.357 -0.0968 -0.0771 -0.1050
  102loPI    C2 1618   9.034  13.548  11.556 -0.0441  0.1866 -0.0988
  102loPI    C3 1619   8.697  13.363  11.665  0.0490  0.0982  0.0415
  102loPI   PO4 1620   8.651  13.551  11.049 -0.1184  0.1573 -0.1952
  102loPI   GL1 1621   8.745  13.854  10.701 -0.2383 -0.3924  0.0803
  102loPI   GL2 1622   8.998  13.839  10.636  0.0329  0.1660 -0.2078
  102loPI   C1A 1623   8.537  13.995  10.295  0.0627 -0.0413  0.0543
  102loPI   C2A 1624   8.553  14.010   9.824  0.2697  0.2447 -0.3023
  102loPI   C3A 1625   8.561  14.088   9.398  0.5730  0.0470 -0.3962
  102loPI   C4A 1626   8.465  14.036   8.945 -0.0565  0.0584  0.0855
  102loPI   C5A 1627   8.747  14.209   8.743  0.2770 -0.5455  0.1590
  102loPI   C6A 1628   8.914  14.480   8.510 -0.2567  0.2228  0.1151
  102loPI   C1B 1629   9.098  13.838  10.178 -0.1769  0.0916  0.2669
  102loPI   C2B 1630   9.065  13.871   9.689  0.0888 -0.2420 -0.0386
  102loPI   C3B 1631   9.012  13.876   9.276 -0.1881 -0.0764  0.0780
  102loPI   C4B 1632   8.975  13.800   8.820  0.2228  0.1207  0.0499
  103loPI    C1 1633  15.027  11.587  10.784 -0.1028 -0.0101 -0.0032
  103loPI    C2 1634  14.752  11.559  11.073 -0.0871 -0.0285  0.0098
  103loPI    C3 1635  15.127  11.666  11.163 -0.0881 -0.0112 -0.0070
  103loPI   PO4 1636  14.879  11.765  10.545 -0.1865  0.1988  0.2785
  103loPI   GL1 1637  14.824  11.897  10.137  0.0049  0.1046  0.0721
  103loPI   GL2 1638  14.498  11.813  10.275  0.3421  0.4069  0.2419
  103loPI   C1A 1639  14.656  11.929   9.743 -0.1898  0.1139  0.0887
  103loPI   C2A 1640  14.639  11.822   9.379  0.4505 -0.0552  0.2746
  103loPI   C3A 1641  14.587  11.980   9.017  0.2116  0.0190  0.3877
  103loPI   C4A 1642  14.367  12.037   8.630 -0.1509  0.0714  0.1040
  103loPI   C5A 1643  14.398  11.944   8.177  0.1777 -0.0549  0.0998
  103loPI   C6A 1644  14.601  11.637   7.851  0.3901  0.1671 -0.0441
  103loPI   C1B 1645  14.340  11.577   9.923 -0.1469 -0.1334 -0.2050
  103loPI   C2B 1646  14.157  11.609   9.511  0.1747  0.0869 -0.0364
  103loPI   C3B 1647  14.180  11.596   9.049  0.0373 -0.0897  0.0560
  103loPI   C4B 1648  13.971  11.634   8.641 -0.0018 -0.1943  0.1391
  104loPI    C1 1649  15.615  11.102  10.391 -0.2529 -0.0707 -0.0411
  104loPI    C2 1650  15.266  11.209  10.554 -0.1669  0.0046  0.0966
  104loPI    C3 1651  15.347  10.822  10.491 -0.3295 -0.0056 -0.0627
  104loPI   PO4 1652  15.668  11.277  10.212  0.1711  0.0445 -0.1069
  104loPI   GL1 1653  15.335  11.252   9.914  0.2643 -0.1577 -0.0063
  104loPI   GL2 1654  15.448  10.912   9.952  0.2669  0.1339 -0.1004
  104loPI   C1A 1655  15.323  11.257   9.518  0.1211 -0.1637  0.0259
  104loPI   C2A 1656  15.242  11.228   9.099  0.1218 -0.0663 -0.0343
  104loPI   C3A 1657  15.111  11.364   8.685 -0.2325  0.0535  0.2181
  104loPI   C4A 1658  15.099  11.396   8.218  0.0221 -0.1453 -0.1203
  104loPI   C5A 1659  15.111  11.496   7.729 -0.4843  0.1147  0.3973
  104loPI   C6A 1660  15.536  11.652   7.568 -0.1473  0.2176 -0.0577
  104loPI   C1B 1661  15.687  10.826   9.590  0.2463  0.0148  0.0289
  104loPI   C2B 1662  15.723  11.050   9.153 -0.1245  0.1120 -0.4232
  104loPI   C3B 1663  15.766  11.039   8.828  0.3677 -0.0206 -0.2706
  104loPI   C4B 1664  15.483  11.152   8.497  0.1412 -0.3616  0.1223
  105loPI    C1 1665   7.713   4.993  11.272  0.1492 -0.0058  0.0858
  105loPI    C2 1666   7.814   4.613  11.349  0.0108  0.0055  0.3319
  105loPI    C3 1667   7.479   4.767  11.504  0.0499  0.2200  0.2082
  105loPI   PO4 1668   7.771   5.044  11.019  0.4289 -0.2382  0.3894
  105loPI   GL1 1669   7.644   5.171  10.680 -0.3132 -0.1778 -0.0080
  105loPI   GL2 1670   7.428   4.956  10.530  0.0810 -0.0607  0.1678
  105loPI   C1A 1671   7.801   5.419  10.388 -0.0541 -0.0405  0.0303
  105loPI   C2A 1672   7.800   5.592  10.008  0.1333 -0.1265  0.2698
  105loPI   C3A 1673   7.910   5.617   9.602 -0.3447 -0.0900 -0.0321
  105loPI   C4A 1674   8.055   5.616   9.230 -0.0128 -0.2083 -0.0415
  105loPI   C5A 1675   8.011   5.761   8.850  0.0086 -0.0616 -0.1670
  105loPI   C6A 1676   8.192   5.893   8.522 -0.0210 -0.0596  0.2386
  105loPI   C1B 1677   7.445   5.185  10.129  0.0058 -0.1719 -0.2991
  105loPI   C2B 1678   7.416   5.260   9.713 -0.1662 -0.0391  0.0550
  105loPI   C3B 1679   7.608   5.316   9.314  0.1121  0.0233 -0.1277
  105loPI   C4B 1680   7.659   5.399   8.767 -0.0693  0.1775  0.0103
  106loPI    C1 1681   6.277   2.650  10.940 -0.0607 -0.0890 -0.0450
  106loPI    C2 1682   6.041   2.445  10.689  0.1359 -0.2657 -0.0886
  106loPI    C3 1683   5.911   2.538  11.056 -0.1409 -0.0340 -0.2413
  106loPI   PO4 1684   6.494   2.755  10.738  0.1591  0.2928 -0.1491
  106loPI   GL1 1685   6.828   2.662  10.444 -0.0859 -0.3090  0.0027
  106loPI   GL2 1686   7.186   2.649  10.474 -0.0589  0.2276  0.1169
  106loPI   C1A 1687   7.002   2.520  10.033  0.2127 -0.0763  0.1453
  106loPI   C2A 1688   7.159   2.448   9.619 -0.1104 -0.1344 -0.1570
  106loPI   C3A 1689   7.230   2.307   9.144 -0.0184  0.0858 -0.1925
  106loPI   C4A 1690   7.247   2.128   8.740  0.0585  0.0185  0.0279
  106loPI   C5A 1691   7.606   2.073   8.446 -0.0763 -0.1901 -0.1136
  106loPI   C6A 1692   8.031   1.888   8.680  0.0858 -0.0933 -0.0262
  106loPI   C1B 1693   7.095   3.012  10.228 -0.0437  0.1202  0.1526
  106loPI   C2B 1694   7.378   3.270   9.992  0.5758  0.2020 -0.1592
  106loPI   C3B 1695   7.450   3.244   9.603  0.0883 -0.2034 -0.1381
  106loPI   C4B 1696   7.513   3.207   9.174 -0.0995 -0.0674 -0.2208
  107loPI    C1 1697   2.428   2.621  10.463  0.1136  0.1113 -0.0853
  107loPI    C2 1698   2.314   2.985  10.343  0.1150  0.2260  0.2504
  107loPI    C3 1699   2.051   2.743  10.522  0.1394  0.0971  0.1141
  107loPI   PO4 1700   2.518   2.550  10.280 -0.0924 -0.1025  0.2054
  107loPI   GL1 1701   2.760   2.544   9.994  0.3871 -0.0239  0.1391
  107loPI   GL2 1702   2.511   2.447   9.772 -0.1690 -0.2032  0.1612
  107loPI   C1A 1703   3.037   2.450   9.682  0.0467 -0.1123  0.1615
  107loPI   C2A 1704   3.099   2.492   9.149 -0.0999 -0.1338 -0.1541
  107loPI   C3A 1705   3.215   2.358   8.757  0.1032  0.2345  0.5001
  107loPI   C4A 1706   3.138   2.483   8.397  0.1322  0.1680  0.1419
  107loPI   C5A 1707   3.301   2.769   8.207  0.3391 -0.2209  0.2149
  107loPI   C6A 1708   3.413   3.174   8.139  0.1339  0.0151  0.0585
  107loPI   C1B 1709   2.642   2.413   9.308  0.1200  0.0318  0.0064
  107loPI   C2B 1710   2.660   2.275   8.934 -0.0688 -0.0586 -0.0347
  107loPI   C3B 1711   2.791   2.083   8.440 -0.1677  0.2668 -0.0610
  107loPI   C4B 1712   2.984   2.132   7.984 -0.0693  0.1329  0.2134
  108loPI    C1 1713   4.398  16.994  11.159 -0.2077  0.0013 -0.1905
  108loPI    C2 1714   4.725  17.212  11.235 -0.1477 -0.2675  0.3732
  108loPI    C3 1715   4.372  17.320  11.390 -0.3268 -0.0073 -0.1910
  108loPI   PO4 1716   4.460  16.940  10.838 -0.2701 -0.1032  0.3357
  108loPI   GL1 1717   4.484  17.118  10.424  0.0914  0.1809 -0.1745
  108loPI   GL2 1718   4.733  17.383  10.353 -0.0181  0.0999  0.0058
  108loPI   C1A 1719   4.387  17.275  10.008 -0.2016 -0.0766  0.2670
  108loPI   C2A 1720   4.468  17.305   9.534 -0.0196  0.2752 -0.1123
  108loPI   C3A 1721   4.566  17.090   9.150  0.2120  0.0304 -0.0139
  108loPI   C4A 1722   4.586  17.213   8.782 -0.2718 -0.3459 -0.6038
  108loPI   C5A 1723   4.447  17.554   8.598  0.0176  0.0683 -0.1249
  108loPI   C6A 1724   4.635  17.844   8.341 -0.2092 -0.1919 -0.3635
  108loPI   C1B 1725   4.865  17.577   9.973 -0.1455 -0.0790  0.1526
  108loPI   C2B 1726   4.927  17.626   9.535  0.2605 -0.0629 -0.1312
  108loPI   C3B 1727   5.104  17.501   9.098  0.0691 -0.0369 -0.3030
  108loPI   C4B 1728   5.089  17.475   8.720 -0.1200 -0.3996  0.3792
  109loPI    C1 1729   3.901  12.362  10.692 -0.0227  0.3740  0.0184
  109loPI    C2 1730   3.644  12.498  10.966 -0.1001  0.0192  0.1266
  109loPI    C3 1731   4.037  12.556  11.014 -0.1260  0.1224  0.2168
  109loPI   PO4 1732   3.806  12.482  10.440  0.1317 -0.1261  0.1405
  109loPI   GL1 1733   3.566  12.351  10.110  0.2426 -0.2334 -0.2504
  109loPI   GL2 1734   3.852  12.175  10.018 -0.1026 -0.1188 -0.1056
  109loPI   C1A 1735   3.517  12.245   9.672 -0.1861  0.4189  0.0272
  109loPI   C2A 1736   3.521  12.273   9.257 -0.5728 -0.0199 -0.2266
  109loPI   C3A 1737   3.629  12.333   8.806  0.2168  0.0281 -0.0265
  109loPI   C4A 1738   3.704  12.376   8.329 -0.0070 -0.4507  0.0589
  109loPI   C5A 1739   3.539  12.157   8.030 -0.0199 -0.1141 -0.0366
  109loPI   C6A 1740   3.373  11.808   7.964 -0.0400  0.1445 -0.1793
  109loPI   C1B 1741   3.984  12.075   9.599 -0.2016  0.2271  0.1004
  109loPI   C2B 1742   4.036  12.082   9.067  0.1615 -0.1953 -0.0230
  109loPI   C3B 1743   4.206  12.172   8.750 -0.1687 -0.1936 -0.1205
  109loPI   C4B 1744   4.208  12.231   8.361 -0.2982  0.1467  0.2285
  110loPI    C1 1745   7.778  10.243  11.050  0.0874 -0.1653 -0.0266
  110loPI    C2 1746   7.529  10.268  11.362  0.0655 -0.1006 -0.0490
  110loPI    C3 1747   7.697   9.917  11.267  0.0754 -0.1197  0.0377
  110loPI   PO4 1748   7.600  10.289  10.862  0.2124 -0.1583  0.3068
  110loPI   GL1 1749   7.610  10.282  10.532  0.2091 -0.0446 -0.1685
  110loPI   GL2 1750   7.665  10.608  10.415 -0.0428  0.1131 -0.1031
  110loPI   C1A 1751   7.757  10.024  10.128  0.0300  0.2997  0.2001
  110loPI   C2A 1752   7.823  10.031   9.651 -0.0634 -0.0761  0.0599
  110loPI   C3A 1753   7.923   9.938   9.253 -0.1385  0.0589 -0.1782
  110loPI   C4A 1754   7.950   9.924   8.873 -0.1253  0.1231 -0.4306
  110loPI   C5A 1755   8.090   9.991   8.427  0.1271  0.0223 -0.3089
  110loPI   C6A 1756   7.901   9.806   8.114  0.1054 -0.1284  0.2732
  110loPI   C1B 1757   7.693  10.517  10.043  0.2238 -0.1467 -0.0348
  110loPI   C2B 1758   7.687  10.508   9.618  0.0158 -0.1207  0.0289
  110loPI   C3B 1759   7.747  10.397   9.235 -0.0825  0.0485 -0.5097
  110loPI   C4B 1760   7.839  10.382   8.756  0.1619  0.1950 -0.0707
  111loPI    C1 1761   6.304  14.240  10.756  0.1831  0.3183 -0.0835
  111loPI    C2 1762   6.343  14.501  11.057 -0.1244  0.0825  0.1689
  111loPI    C3 1763   6.132  14.166  11.110 -0.0227 -0.0551 -0.2561
  111loPI   PO4 1764   6.459  14.202  10.611 -0.0014  0.0920  0.1963
  111loPI   GL1 1765   6.872  14.035  10.405  0.1610  0.3747 -0.0390
  111loPI   GL2 1766   6.602  13.760  10.471  0.1286  0.2709  0.3768
  111loPI   C1A 1767   6.997  14.020  10.060 -0.2228 -0.1756 -0.4294
  111loPI   C2A 1768   7.203  14.116   9.728 -0.1186 -0.3353  0.1148
  111loPI   C3A 1769   7.220  13.984   9.346 -0.1429 -0.0595  0.0618
  111loPI   C4A 1770   7.067  13.960   8.946  0.0013  0.0347 -0.2508
  111loPI   C5A 1771   7.146  13.805   8.584  0.1091 -0.0227  0.2131
  111loPI   C6A 1772   7.172  13.697   8.089 -0.0888  0.1241  0.3156
  111loPI   C1B 1773   6.645  13.662  10.000 -0.1884  0.0311 -0.0960
  111loPI   C2B 1774   6.723  13.566   9.563  0.0612 -0.2878  0.1726
  111loPI   C3B 1775   6.782  13.588   9.168  0.4014  0.0816  0.1820
  111loPI   C4B 1776   6.709  13.602   8.749 -0.1699 -0.1701 -0.3925
  112loPI    C1 1777  16.811   0.524  10.752  0.1036 -0.3644  0.0585
  112loPI    C2 1778  16.560   0.342  11.005 -0.0935 -0.1296  0.0361
  112loPI    C3 1779  16.830   0.603  11.144 -0.1389 -0.0710  0.0152
  112loPI   PO4 1780  16.693   0.445  10.553  0.0260 -0.1043 -0.0412
  112loPI   GL1 1781  16.577   0.636  10.249 -0.1353  0.0439  0.0168
  112loPI   GL2 1782  16.429   0.359  10.156 -0.2930 -0.0457  0.2835
  112loPI   C1A 1783  16.548   0.724   9.807 -0.0942  0.0423  0.1229
  112loPI   C2A 1784  16.465   0.779   9.435  0.0441 -0.0713  0.3415
  112loPI   C3A 1785  16.373   0.841   8.962 -0.2560 -0.2527 -0.1941
  112loPI   C4A 1786  16.178   1.058   8.559 -0.1956 -0.0011 -0.0331
  112loPI   C5A 1787  15.813   1.086   8.244  0.1544  0.3249  0.1476
  112loPI   C6A 1788  15.512   1.359   7.985  0.4421 -0.0299  0.0158
  112loPI   C1B 1789  16.341   0.081   9.887  0.1293 -0.1193 -0.0806
  112loPI   C2B 1790  16.122   0.026   9.491 -0.1683 -0.1829 -0.0869
  112loPI   C3B 1791  16.108   0.109   8.991  0.1322 -0.1878  0.2097
  112loPI   C4B 1792  16.116   0.021   8.539  0.0637 -0.1460 -0.0481
  113loPI    C1 1793  13.507   5.926  11.234 -0.2666  0.0404 -0.1260
  113loPI    C2 1794  13.237   6.107  11.468 -0.3456  0.0525 -0.2260
  113loPI    C3 1795  13.230   5.709  11.425 -0.1951  0.0277 -0.0357
  113loPI   PO4 1796  13.456   6.019  10.931  0.0674 -0.1930  0.0483
  113loPI   GL1 1797  13.617   5.753  10.547  0.1694  0.0524  0.0918
  113loPI   GL2 1798  13.699   6.104  10.438 -0.2003  0.0967  0.0240
  113loPI   C1A 1799  13.643   5.531  10.217 -0.1444  0.0244 -0.0442
  113loPI   C2A 1800  13.634   5.662   9.790  0.2716  0.0207  0.0466
  113loPI   C3A 1801  13.507   5.639   9.426 -0.0913  0.0023 -0.2752
  113loPI   C4A 1802  13.363   5.609   9.014 -0.0319 -0.0496 -0.0328
  113loPI   C5A 1803  13.281   5.586   8.523 -0.1872  0.0016 -0.3636
  113loPI   C6A 1804  13.583   5.618   8.165  0.0230 -0.1149  0.0151
  113loPI   C1B 1805  13.583   6.105   9.980  0.1265  0.0259  0.1461
  113loPI   C2B 1806  13.451   6.092   9.580  0.0488  0.0225 -0.2501
  113loPI   C3B 1807  13.380   6.082   9.190  0.2042  0.2636  0.0773
  113loPI   C4B 1808  13.270   6.065   8.726 -0.2751  0.0087 -0.1990
  114loPI    C1 1809   5.022  10.113  10.601  0.2225 -0.0835 -0.0798
  114loPI    C2 1810   5.232  10.449  10.653 -0.0163  0.0551  0.0018
  114loPI    C3 1811   5.215  10.177  10.945 -0.0165  0.0811  0.0260
  114loPI   PO4 1812   5.094   9.996  10.404 -0.0601  0.0538 -0.0645
  114loPI   GL1 1813   5.316  10.018  10.063  0.0426  0.0941 -0.0152
  114loPI   GL2 1814   5.327  10.349  10.138 -0.1999  0.0143  0.0679
  114loPI   C1A 1815   5.485  10.063   9.658 -0.0169 -0.0977  0.2435
  114loPI   C2A 1816   5.523  10.099   9.303 -0.1700  0.1262 -0.3617
  114loPI   C3A 1817   5.504  10.177   8.929  0.0644 -0.3649 -0.1805
  114loPI   C4A 1818   5.570  10.190   8.561  0.1621 -0.1372 -0.2820
  114loPI   C5A 1819   5.961  10.048   8.474 -0.2059 -0.2613  0.1398
  114loPI   C6A 1820   6.381   9.832   8.435 -0.0685 -0.0913 -0.0195
  114loPI   C1B 1821   5.405  10.553   9.802 -0.0847 -0.1087  0.0030
  114loPI   C2B 1822   5.483  10.646   9.342 -0.1534  0.2055 -0.2710
  114loPI   C3B 1823   5.428  10.713   8.963  0.1040  0.1883  0.1993
  114loPI   C4B 1824   5.361  10.744   8.540  0.1276  0.1417 -0.3842
  115loPI    C1 1825   3.416   1.118  10.758 -0.0095  0.1314 -0.0973
  115loPI    C2 1826   3.640   1.232  11.069 -0.1402  0.1495 -0.0091
  115loPI    C3 1827   3.442   0.884  11.081 -0.0003  0.0643 -0.1464
  115loPI   PO4 1828   3.449   1.341  10.613  0.4577 -0.1299 -0.1430
  115loPI   GL1 1829   3.463   1.367  10.135  0.1591  0.2483  0.0486
  115loPI   GL2 1830   3.748   1.457  10.254  0.1578  0.2291  0.2746
  115loPI   C1A 1831   3.646   1.245   9.708  0.3608  0.4649 -0.2123
  115loPI   C2A 1832   3.751   1.276   9.271  0.2954  0.0380  0.0009
  115loPI   C3A 1833   3.787   1.107   8.897 -0.1553 -0.0741 -0.1562
  115loPI   C4A 1834   3.866   0.886   8.565 -0.1538  0.2231  0.0932
  115loPI   C5A 1835   3.838   0.652   8.209 -0.1584  0.1270 -0.2352
  115loPI   C6A 1836   3.715   0.570   7.772 -0.1932 -0.0556  0.0110
  115loPI   C1B 1837   3.948   1.601   9.874  0.1562  0.2225 -0.1685
  115loPI   C2B 1838   4.079   1.622   9.378 -0.0868 -0.0794 -0.0045
  115loPI   C3B 1839   4.256   1.500   9.050 -0.2923  0.1248 -0.1734
  115loPI   C4B 1840   4.265   1.456   8.609 -0.1645  0.1954 -0.0578
  116loPI    C1 1841   3.973   9.998  10.320  0.0461  0.1047 -0.0097
  116loPI    C2 1842   4.244  10.053  10.609  0.1642 -0.0788 -0.0835
  116loPI    C3 1843   3.908  10.271  10.605  0.1241 -0.1301  0.2360
  116loPI   PO4 1844   4.155   9.883  10.115 -0.3114 -0.0077 -0.2964
  116loPI   GL1 1845   4.417   9.545  10.055  0.0107 -0.2478  0.0140
  116loPI   GL2 1846   4.319   9.232  10.146 -0.1133  0.0271 -0.0563
  116loPI   C1A 1847   4.440   9.693   9.609 -0.3461  0.0401 -0.1004
  116loPI   C2A 1848   4.329   9.693   9.191 -0.1051 -0.3651 -0.1496
  116loPI   C3A 1849   4.306   9.705   8.749  0.0677 -0.2107 -0.0030
  116loPI   C4A 1850   4.367   9.852   8.313  0.0252 -0.1759  0.2398
  116loPI   C5A 1851   4.075   9.667   8.056  0.0351  0.1728 -0.2110
  116loPI   C6A 1852   3.776   9.598   7.790 -0.2515 -0.3042  0.2350
  116loPI   C1B 1853   4.101   9.324   9.719  0.1954 -0.2605  0.0417
  116loPI   C2B 1854   4.102   9.216   9.297 -0.1885  0.1830 -0.1745
  116loPI   C3B 1855   4.390   9.006   9.080 -0.1215  0.0295  0.3283
  116loPI   C4B 1856   4.877   8.942   9.070 -0.0218  0.2713  0.3228
  117loPI    C1 1857   2.895   2.378  10.475 -0.0400 -0.0010  0.0136
  117loPI    C2 1858   3.199   2.461  10.229  0.1052  0.1540  0.2418
  117loPI    C3 1859   3.170   2.648  10.581 -0.3415  0.2560  0.1576
  117loPI   PO4 1860   2.904   2.124  10.450 -0.2154  0.0274  0.0944
  117loPI   GL1 1861   3.133   1.947  10.241  0.0471  0.3408  0.2278
  117loPI   GL2 1862   3.122   1.758  10.149  0.0679  0.2627  0.1100
  117loPI   C1A 1863   3.065   1.993   9.742 -0.0699  0.1601 -0.0054
  117loPI   C2A 1864   3.079   2.010   9.306 -0.1517 -0.0217 -0.0040
  117loPI   C3A 1865   3.245   1.896   8.907 -0.1098 -0.0129  0.1804
  117loPI   C4A 1866   3.254   1.835   8.488 -0.2260 -0.4941 -0.1360
  117loPI   C5A 1867   3.449   1.778   8.140  0.1307 -0.1118 -0.3049
  117loPI   C6A 1868   3.400   1.542   7.789  0.1380 -0.1300  0.2988
  117loPI   C1B 1869   3.515   1.828   9.889 -0.0188  0.1498  0.2053
  117loPI   C2B 1870   3.602   1.722   9.537  0.1409  0.0390 -0.0207
  117loPI   C3B 1871   3.652   1.770   9.127 -0.2831 -0.1789 -0.0451
  117loPI   C4B 1872   3.817   1.604   8.832 -0.0106  0.1819  0.1907
  118loPI    C1 1873  10.647   2.639  11.265 -0.3925 -0.2064  0.0603
  118loPI    C2 1874  10.497   2.980  11.411  0.2618  0.1536 -0.0680
  118loPI    C3 1875  10.687   2.725  11.654 -0.1719 -0.0982  0.0158
  118loPI   PO4 1876  10.633   2.722  10.992  0.3767  0.0143 -0.1966
  118loPI   GL1 1877  10.863   2.903  10.624 -0.1257  0.0774 -0.0350
  118loPI   GL2 1878  11.197   3.018  10.541  0.1133 -0.1662 -0.2292
  118loPI   C1A 1879  11.047   2.668  10.292  0.2870 -0.0437  0.0237
  118loPI   C2A 1880  11.042   2.692   9.921  0.0334 -0.0799  0.1470
  118loPI   C3A 1881  10.887   2.661   9.458 -0.1616  0.0352 -0.1182
  118loPI   C4A 1882  10.820   2.704   8.998  0.1035  0.1441  0.2149
  118loPI   C5A 1883  10.449   2.626   8.721 -0.0005 -0.3158 -0.0635
  118loPI   C6A 1884  10.274   2.894   8.378 -0.1444 -0.1171  0.0113
  118loPI   C1B 1885  11.402   2.999  10.120 -0.0308 -0.1158 -0.1155
  118loPI   C2B 1886  11.331   3.021   9.671 -0.1206 -0.2273  0.0153
  118loPI   C3B 1887  11.146   3.016   9.249  0.1210 -0.1108 -0.1639
  118loPI   C4B 1888  11.179   3.008   8.851 -0.1791 -0.1140 -0.3379
  119loPI    C1 1889  15.523   5.208  10.808 -0.0447  0.1652 -0.1986
  119loPI    C2 1890  15.354   5.483  11.043  0.2420 -0.0249  0.2421
  119loPI    C3 1891  15.682   5.574  10.833 -0.0534  0.1657 -0.1491
  119loPI   PO4 1892  15.318   5.092  10.619  0.1437  0.1331 -0.2781
  119loPI   GL1 1893  15.304   4.914  10.274  0.0924  0.1143  0.1632
  119loPI   GL2 1894  15.387   4.583  10.330  0.2345 -0.2744  0.0925
  119loPI   C1A 1895  15.116   5.079   9.885  0.0064 -0.0615  0.1158
  119loPI   C2A 1896  14.982   5.157   9.418 -0.0596 -0.0636 -0.2908
  119loPI   C3A 1897  14.948   5.161   8.950 -0.4901  0.1688 -0.0147
  119loPI   C4A 1898  14.985   5.024   8.443 -0.1844  0.0325 -0.1657
  119loPI   C5A 1899  14.993   4.969   8.157 -0.0571  0.1757  0.1440
  119loPI   C6A 1900  14.733   4.606   7.879  0.2520 -0.3047 -0.3938
  119loPI   C1B 1901  15.160   4.559  10.018 -0.2165  0.0274  0.1705
  119loPI   C2B 1902  15.059   4.599   9.641  0.0578  0.0444 -0.1497
  119loPI   C3B 1903  15.099   4.495   9.186  0.2016 -0.1880 -0.0012
  119loPI   C4B 1904  15.042   4.612   8.860 -0.1374 -0.1688 -0.0805
  120loPI    C1 1905  12.490   5.556  11.197  0.0779  0.0778  0.0362
  120loPI    C2 1906  12.504   5.224  11.420 -0.0399 -0.1819 -0.3350
  120loPI    C3 1907  12.174   5.450  11.418  0.0357 -0.0661 -0.0921
  120loPI   PO4 1908  12.521   5.522  10.935 -0.1489  0.2536  0.2013
  120loPI   GL1 1909  12.845   5.410  10.569 -0.0502 -0.0928 -0.3416
  120loPI   GL2 1910  13.166   5.436  10.478  0.1013 -0.1475 -0.2874
  120loPI   C1A 1911  12.629   5.458  10.229  0.2296  0.0954  0.1682
  120loPI   C2A 1912  12.498   5.483   9.796 -0.0889  0.1173  0.0213
  120loPI   C3A 1913  12.562   5.511   9.373  0.0400  0.1171 -0.1534
  120loPI   C4A 1914  12.553   5.344   8.986  0.0045 -0.1492  0.0423
  120loPI   C5A 1915  12.618   5.602   8.666 -0.0009 -0.0456  0.0230
  120loPI   C6A 1916  12.589   5.921   8.503 -0.0179  0.2738 -0.0405
  120loPI   C1B 1917  13.156   5.316  10.100 -0.1399  0.1083  0.1704
  120loPI   C2B 1918  13.189   5.233   9.703  0.0239  0.1843 -0.0966
  120loPI   C3B 1919  13.009   5.299   9.357  0.1192 -0.2388 -0.2834
  120loPI   C4B 1920  13.010   5.295   8.926 -0.2146  0.0233 -0.0099
  121loPI    C1 1921   0.788  13.388  10.180 -0.0208  0.2289 -0.0124
  121loPI    C2 1922   0.407  13.476  10.262 -0.0680 -0.0439  0.0720
  121loPI    C3 1923   0.593  13.186  10.465  0.1932  0.1041  0.0480
  121loPI   PO4 1924   0.901  13.678  10.144  0.1305 -0.0099  0.0659
  121loPI   GL1 1925   0.881  14.021   9.760  0.2760  0.3189 -0.0147
  121loPI   GL2 1926   1.186  14.011   9.612 -0.0824  0.1397 -0.1549
  121loPI   C1A 1927   0.801  13.844   9.313 -0.1530  0.3192 -0.2456
  121loPI   C2A 1928   0.816  13.828   8.879 -0.3303 -0.0629  0.0338
  121loPI   C3A 1929   0.823  13.621   8.495  0.0225 -0.0122  0.1947
  121loPI   C4A 1930   0.668  13.705   8.142 -0.0228 -0.0106 -0.1158
  121loPI   C5A 1931   0.460  14.082   7.816  0.1495  0.0760 -0.0960
  121loPI   C6A 1932   0.199  14.399   7.626 -0.0331 -0.0019 -0.0219
  121loPI   C1B 1933   1.225  14.008   9.111  0.1285 -0.0397  0.5125
  121loPI   C2B 1934   1.238  14.055   8.682  0.2934  0.2682 -0.2746
  121loPI   C3B 1935   1.060  14.022   8.250  0.1836  0.0963  0.2615
  121loPI   C4B 1936   0.934  14.212   7.870 -0.2162  0.3176  0.1109
  122loPI    C1 1937  11.965  10.118  10.925  0.1043 -0.1976 -0.0283
  122loPI    C2 1938  11.757  10.047  11.259  0.0966 -0.2702 -0.0486
  122loPI    C3 1939  11.663  10.359  11.027  0.0768 -0.2425 -0.0035
  122loPI   PO4 1940  11.960   9.854  10.797  0.0401  0.2758  0.3750
  122loPI   GL1 1941  12.087   9.747  10.323 -0.0156  0.2857  0.3148
  122loPI   GL2 1942  12.290   9.548  10.482 -0.1139 -0.2024  0.0567
  122loPI   C1A 1943  12.046   9.742   9.919  0.2376  0.2266 -0.0974
  122loPI   C2A 1944  12.013   9.851   9.453  0.1427  0.0605  0.2969
  122loPI   C3A 1945  12.247   9.904   9.029 -0.1118  0.1217  0.2153
  122loPI   C4A 1946  12.204  10.039   8.641 -0.2199  0.2869  0.1500
  122loPI   C5A 1947  12.124   9.904   8.241 -0.2781 -0.3056  0.1721
  122loPI   C6A 1948  11.832   9.926   7.863 -0.0828  0.0394 -0.1589
  122loPI   C1B 1949  12.225   9.325  10.013  0.0262 -0.1086  0.1925
  122loPI   C2B 1950  12.175   9.410   9.578  0.0301 -0.1978  0.2043
  122loPI   C3B 1951  12.283   9.420   9.097  0.0398 -0.0507 -0.0042
  122loPI   C4B 1952  12.320   9.559   8.639  0.0072 -0.2090 -0.1267
  123loPI    C1 1953   5.526   5.527  10.761 -0.0388  0.0841  0.0408
  123loPI    C2 1954   5.802   5.459  10.480 -0.2033  0.1392 -0.1361
  123loPI    C3 1955   5.674   5.159  10.711  0.1795  0.1608  0.1122
  123loPI   PO4 1956   5.255   5.614  10.658 -0.0036  0.0932 -0.3045
  123loPI   GL1 1957   5.201   5.795  10.338  0.0915  0.0423 -0.2217
  123loPI   GL2 1958   5.529   5.834  10.353 -0.2253 -0.1928 -0.0488
  123loPI   C1A 1959   5.122   5.634   9.884  0.2458 -0.1308 -0.1861
  123loPI   C2A 1960   5.183   5.489   9.461 -0.2784  0.1062 -0.0441
  123loPI   C3A 1961   5.255   5.472   9.025 -0.0044  0.1771  0.1210
  123loPI   C4A 1962   5.295   5.452   8.511  0.1697 -0.1337 -0.0170
  123loPI   C5A 1963   5.102   5.213   8.264  0.0845 -0.0966  0.1266
  123loPI   C6A 1964   4.895   4.804   8.226 -0.1441  0.1179  0.1493
  123loPI   C1B 1965   5.532   5.948   9.880 -0.1634 -0.2602 -0.1012
  123loPI   C2B 1966   5.558   5.834   9.435  0.2975 -0.1763 -0.2256
  123loPI   C3B 1967   5.605   5.947   9.001  0.0990 -0.1277  0.0705
  123loPI   C4B 1968   5.671   5.840   8.600 -0.0150 -0.3090  0.1223
  124loPI    C1 1969   3.487  16.048  10.680 -0.0936 -0.1136 -0.0730
  124loPI    C2 1970   3.211  16.155  10.949  0.0373  0.0038  0.0161
  124loPI    C3 1971   3.578  16.313  10.965  0.1688 -0.2943  0.0154
  124loPI   PO4 1972   3.451  16.162  10.455 -0.1175 -0.0632  0.0396
  124loPI   GL1 1973   3.477  15.999  10.058  0.1436  0.0214 -0.0728
  124loPI   GL2 1974   3.738  15.906  10.176 -0.2018  0.0471  0.1047
  124loPI   C1A 1975   3.283  15.927   9.700 -0.0513  0.0731  0.0514
  124loPI   C2A 1976   3.387  15.714   9.306  0.1049  0.5710 -0.1616
  124loPI   C3A 1977   3.455  15.746   8.894  0.1859  0.2138  0.0646
  124loPI   C4A 1978   3.253  15.786   8.568 -0.0256 -0.0980  0.2535
  124loPI   C5A 1979   3.304  15.601   8.115 -0.1410 -0.1120 -0.2488
  124loPI   C6A 1980   3.149  15.262   7.905 -0.0819  0.1301 -0.2254
  124loPI   C1B 1981   3.858  16.062   9.723  0.0366  0.0498  0.1943
  124loPI   C2B 1982   3.580  16.140   9.352 -0.1887 -0.2225 -0.1311
  124loPI   C3B 1983   3.352  16.226   8.975  0.1434 -0.2348  0.1247
  124loPI   C4B 1984   3.256  16.359   8.605  0.2444  0.0682  0.2785
  125loPI    C1 1985   7.205  14.184  11.101 -0.0055  0.2069  0.0402
  125loPI    C2 1986   7.469  14.330  11.364 -0.0109  0.0558  0.1303
  125loPI    C3 1987   7.096  14.244  11.481 -0.0321  0.0493  0.0582
  125loPI   PO4 1988   7.348  14.231  10.871 -0.1038  0.0232  0.2166
  125loPI   GL1 1989   7.329  14.330  10.486 -0.2390 -0.1740  0.0937
  125loPI   GL2 1990   7.661  14.456  10.419  0.0711  0.0274 -0.0045
  125loPI   C1A 1991   7.047  14.512  10.104 -0.0642 -0.0768 -0.0790
  125loPI   C2A 1992   6.918  14.506   9.718 -0.2104  0.0583 -0.0084
  125loPI   C3A 1993   7.115  14.471   9.370 -0.3426 -0.0354  0.2055
  125loPI   C4A 1994   6.973  14.416   8.930 -0.0300  0.2253  0.3405
  125loPI   C5A 1995   7.003  14.470   8.556  0.0704  0.3164 -0.2402
  125loPI   C6A 1996   6.930  14.674   8.176 -0.0025 -0.2961  0.3761
  125loPI   C1B 1997   7.554  14.399   9.913  0.1395 -0.0352  0.0120
  125loPI   C2B 1998   7.580  14.370   9.543  0.1202  0.2434  0.3880
  125loPI   C3B 1999   7.619  14.346   9.195  0.0166 -0.1659 -0.1236
  125loPI   C4B 2000   7.468  14.281   8.777  0.2316  0.0305 -0.0222
  126loPI    C1 2001   4.687   1.264  11.006 -0.0618  0.3869  0.0665
  126loPI    C2 2002   4.585   1.282  11.392  0.0330  0.0369  0.1108
  126loPI    C3 2003   4.545   0.939  11.190  0.2579  0.1397 -0.1138
  126loPI   PO4 2004   4.548   1.326  10.797  0.0911  0.1014  0.0177
  126loPI   GL1 2005   4.787   1.229  10.398  0.1092  0.0240 -0.0109
  126loPI   GL2 2006   5.092   1.152  10.321 -0.0978  0.0612 -0.0029
  126loPI   C1A 2007   4.620   1.248  10.088 -0.1908  0.2039  0.0257
  126loPI   C2A 2008   4.697   1.315   9.633  0.0237 -0.0104 -0.0029
  126loPI   C3A 2009   4.694   1.334   9.243  0.4333 -0.1274  0.2021
  126loPI   C4A 2010   4.723   1.373   8.858 -0.3261  0.0069  0.2737
  126loPI   C5A 2011   4.635   1.093   8.475 -0.3637  0.2813  0.3371
  126loPI   C6A 2012   4.936   0.948   8.168  0.0359  0.1134  0.5233
  126loPI   C1B 2013   5.098   1.226   9.928 -0.0142  0.1856 -0.0259
  126loPI   C2B 2014   5.164   1.114   9.512  0.3630  0.1926  0.1970
  126loPI   C3B 2015   5.116   1.143   9.121 -0.1357  0.0190 -0.0654
  126loPI   C4B 2016   5.087   1.051   8.668  0.0944  0.1101  0.3210
  127loPI    C1 2017  12.866  11.023  10.970 -0.1128  0.0568  0.0294
  127loPI    C2 2018  13.037  10.712  11.155 -0.0212  0.0182 -0.1180
  127loPI    C3 2019  13.200  11.076  11.184 -0.0634  0.0312 -0.0409
  127loPI   PO4 2020  12.847  10.991  10.693 -0.1457  0.0007 -0.0532
  127loPI   GL1 2021  13.055  11.202  10.360 -0.2962  0.0475 -0.0953
  127loPI   GL2 2022  12.666  11.279  10.292  0.3345  0.0970  0.0489
  127loPI   C1A 2023  13.010  11.132   9.969  0.1017 -0.0107  0.1244
  127loPI   C2A 2024  12.893  11.082   9.601 -0.1419 -0.1903 -0.1933
  127loPI   C3A 2025  12.909  11.100   9.198 -0.0214 -0.0203 -0.1364
  127loPI   C4A 2026  12.813  11.128   8.775 -0.1113  0.0076 -0.1518
  127loPI   C5A 2027  13.065  10.983   8.475  0.0761 -0.2354  0.0450
  127loPI   C6A 2028  13.527  10.882   8.432 -0.0805 -0.2600  0.1744
  127loPI   C1B 2029  12.477  11.218   9.875 -0.0575  0.0509 -0.1149
  127loPI   C2B 2030  12.373  11.230   9.473 -0.1019 -0.0279  0.2578
  127loPI   C3B 2031  12.387  11.354   9.090  0.0615 -0.2057 -0.1815
  127loPI   C4B 2032  12.373  11.287   8.603  0.3947 -0.0042  0.0413
  128loPI    C1 2033  16.167  16.226  10.509  0.1622  0.0338  0.0424
  128loPI    C2 2034  16.383  16.076  10.811  0.4106  0.1244 -0.0869
  128loPI    C3 2035  16.328  16.471  10.782 -0.0507  0.0830  0.1259
  128loPI   PO4 2036  16.290  16.187  10.291 -0.2175 -0.1165  0.2153
  128loPI   GL1 2037  16.413  16.268   9.989  0.0551  0.0109  0.1528
  128loPI   GL2 2038  16.307  16.491   9.850 -0.0159  0.4454 -0.0869
  128loPI   C1A 2039  16.640  16.112   9.670 -0.2703  0.0135 -0.0626
  128loPI   C2A 2040  16.768  16.062   9.329  0.0501 -0.1446 -0.0327
  128loPI   C3A 2041  16.638  16.023   9.035  0.2152 -0.1549  0.3850
  128loPI   C4A 2042  16.874  16.007   8.657 -0.1509 -0.1811  0.0843
  128loPI   C5A 2043  16.909  15.999   8.232  0.0542 -0.0360  0.0754
  128loPI   C6A 2044  16.955  15.820   7.870 -0.0087 -0.1325  0.0537
  128loPI   C1B 2045  16.345  16.399   9.457  0.0669 -0.1066  0.1272
  128loPI   C2B 2046  16.303  16.375   9.076 -0.0086  0.1407  0.1835
  128loPI   C3B 2047  16.557  16.555   8.710  0.3336  0.1456 -0.0324
  128loPI   C4B 2048  16.855  16.796   8.428 -0.4130  0.0719 -0.0767
  129loPI    C1 2049  15.104   2.481  10.915  0.1021  0.2062 -0.1135
  129loPI    C2 2050  15.043   2.273  11.251  0.0580  0.0748 -0.2017
  129loPI    C3 2051  15.233   2.625  11.265  0.2983 -0.0568 -0.0739
  129loPI   PO4 2052  15.151   2.246  10.781 -0.0888 -0.0224  0.3247
  129loPI   GL1 2053  14.914   2.197  10.459 -0.0934 -0.2077  0.0752
  129loPI   GL2 2054  14.756   2.297  10.348 -0.0408 -0.1028  0.2412
  129loPI   C1A 2055  15.058   2.623  10.189  0.0612 -0.0835  0.4074
  129loPI   C2A 2056  15.051   2.680   9.716  0.1732 -0.1048 -0.1204
  129loPI   C3A 2057  15.085   2.737   9.321  0.1473 -0.0340 -0.0967
  129loPI   C4A 2058  14.978   2.796   8.795 -0.2522  0.0805 -0.1501
  129loPI   C5A 2059  15.117   2.694   8.371 -0.0397 -0.0722 -0.1254
  129loPI   C6A 2060  15.357   2.988   8.023 -0.1486 -0.2437  0.1192
  129loPI   C1B 2061  14.681   2.430   9.932  0.0851  0.1809 -0.2101
  129loPI   C2B 2062  14.584   2.341   9.499  0.2826 -0.2441 -0.1498
  129loPI   C3B 2063  14.684   2.434   9.137  0.0431  0.2884 -0.1393
  129loPI   C4B 2064  14.651   2.399   8.653 -0.1357 -0.0170 -0.0515
  130loPI    C1 2065  14.349  11.233  11.045 -0.1060 -0.0094 -0.0806
  130loPI    C2 2066  14.099  11.106  11.330 -0.0743 -0.1309 -0.1064
  130loPI    C3 2067  14.441  11.289  11.430 -0.1237 -0.0585 -0.0692
  130loPI   PO4 2068  14.122  11.276  10.838  0.2671  0.0783 -0.0768
  130loPI   GL1 2069  14.107  11.369  10.329  0.0367 -0.0849 -0.0003
  130loPI   GL2 2070  14.308  11.132  10.214  0.0289 -0.2423  0.1315
  130loPI   C1A 2071  13.915  11.265   9.949  0.1848  0.0687  0.0773
  130loPI   C2A 2072  13.789  11.213   9.558  0.0597  0.4091  0.1971
  130loPI   C3A 2073  13.744  11.271   9.099  0.1247  0.2252 -0.2600
  130loPI   C4A 2074  13.633  11.297   8.693  0.1236 -0.0503  0.2135
  130loPI   C5A 2075  13.493  11.364   8.227  0.1178  0.0125  0.1387
  130loPI   C6A 2076  13.436  11.339   7.833  0.0463 -0.0674  0.1215
  130loPI   C1B 2077  14.376  11.105   9.862  0.0118  0.0548 -0.0118
  130loPI   C2B 2078  14.314  11.159   9.426  0.1142 -0.0605  0.2439
  130loPI   C3B 2079  14.314  11.033   9.036  0.1305 -0.1805  0.3302
  130loPI   C4B 2080  14.231  11.127   8.665  0.0364 -0.2136  0.2657
  131loPI    C1 2081   9.090   6.995  11.057  0.1981  0.3978  0.2227
  131loPI    C2 2082   9.121   6.751  11.373 -0.0632  0.1419  0.0563
  131loPI    C3 2083   9.445   6.840  11.157  0.0055 -0.2157  0.0055
  131loPI   PO4 2084   8.826   6.954  10.868  0.1093 -0.1196  0.0440
  131loPI   GL1 2085   8.760   6.795  10.591  0.1054  0.0495  0.0607
  131loPI   GL2 2086   8.437   6.667  10.534 -0.0562 -0.0372  0.2108
  131loPI   C1A 2087   9.100   6.640  10.303 -0.2480 -0.3002 -0.2830
  131loPI   C2A 2088   9.096   6.551   9.887  0.0093 -0.0885 -0.3157
  131loPI   C3A 2089   9.108   6.539   9.484  0.1078 -0.1194  0.0008
  131loPI   C4A 2090   9.228   6.595   9.077 -0.0577  0.0636 -0.0408
  131loPI   C5A 2091   9.389   6.889   8.696 -0.0297  0.0651 -0.2053
  131loPI   C6A 2092   9.407   7.046   8.254  0.2570  0.2112 -0.0290
  131loPI   C1B 2093   8.458   6.673  10.051 -0.1514  0.0096 -0.0181
  131loPI   C2B 2094   8.587   6.638   9.610 -0.1749  0.0582 -0.0415
  131loPI   C3B 2095   8.668   6.752   9.160 -0.0330 -0.0153  0.1073
  131loPI   C4B 2096   8.807   6.838   8.726  0.1096 -0.0902 -0.1389
  132loPI    C1 2097   1.222   7.181  10.228  0.2676 -0.2476 -0.0278
  132loPI    C2 2098   1.100   6.846  10.408  0.0362 -0.0514  0.1894
  132loPI    C3 2099   1.215   7.159  10.628 -0.0189  0.1089 -0.0078
  132loPI   PO4 2100   1.184   7.130  10.016 -0.0390 -0.1953  0.0428
  132loPI   GL1 2101   0.948   7.080   9.704 -0.0824 -0.1192  0.2663
  132loPI   GL2 2102   0.860   6.894   9.597 -0.2198  0.0984 -0.0216
  132loPI   C1A 2103   1.163   7.159   9.279 -0.0701 -0.1124  0.0587
  132loPI   C2A 2104   1.045   7.224   8.784  0.1309  0.1019 -0.0134
  132loPI   C3A 2105   1.048   7.236   8.357 -0.0763 -0.1260 -0.1146
  132loPI   C4A 2106   1.160   7.410   7.956  0.1743  0.0429  0.2009
  132loPI   C5A 2107   1.165   7.479   7.472  0.0937 -0.0496  0.1456
  132loPI   C6A 2108   1.079   7.283   7.153 -0.1875  0.1067 -0.0359
  132loPI   C1B 2109   0.707   6.914   9.222  0.0256  0.0643  0.1495
  132loPI   C2B 2110   0.737   6.828   8.809 -0.0043 -0.3299  0.1352
  132loPI   C3B 2111   0.676   6.928   8.349  0.1959  0.3194 -0.3662
  132loPI   C4B 2112   0.835   6.962   7.976 -0.2323 -0.0006  0.0173
  133loPI    C1 2113   5.734   6.840  11.280 -0.1460  0.0782  0.0349
  133loPI    C2 2114   5.621   7.152  11.503 -0.2106  0.0151  0.0907
  133loPI    C3 2115   5.753   6.818  11.679  0.0012  0.0643  0.0278
  133loPI   PO4 2116   5.842   7.001  11.065  0.2137 -0.0358  0.4001
  133loPI   GL1 2117   6.166   6.976  10.747  0.0827  0.0282 -0.1627
  133loPI   GL2 2118   6.215   6.660  10.549 -0.1319  0.0014  0.0659
  133loPI   C1A 2119   6.164   7.153  10.334 -0.2341 -0.0371  0.2505
  133loPI   C2A 2120   6.154   7.142   9.912  0.1795  0.3291  0.1700
  133loPI   C3A 2121   6.204   7.053   9.506  0.0186 -0.2755 -0.0812
  133loPI   C4A 2122   6.221   7.056   9.019  0.0352  0.2251 -0.4616
  133loPI   C5A 2123   5.976   7.101   8.598 -0.5051 -0.0550 -0.2154
  133loPI   C6A 2124   5.915   7.138   8.134 -0.2944  0.0707 -0.3057
  133loPI   C1B 2125   6.292   6.562  10.163 -0.2472  0.0853  0.0216
  133loPI   C2B 2126   6.282   6.553   9.731  0.1855 -0.0264 -0.0303
  133loPI   C3B 2127   6.335   6.586   9.292 -0.0294  0.3076 -0.1620
  133loPI   C4B 2128   6.422   6.546   8.869 -0.0547  0.1879  0.0638
  134loPI    C1 2129  12.563   4.313  11.359  0.2801 -0.3175  0.0914
  134loPI    C2 2130  12.372   4.128  11.658  0.1156  0.0069  0.1919
  134loPI    C3 2131  12.771   4.124  11.644  0.1150 -0.4084  0.1534
  134loPI   PO4 2132  12.460   4.195  11.137 -0.0879 -0.0201 -0.1581
  134loPI   GL1 2133  12.381   4.161  10.704  0.0815  0.2672 -0.0818
  134loPI   GL2 2134  12.597   4.195  10.365 -0.0062  0.1207 -0.2035
  134loPI   C1A 2135  12.089   4.251  10.400 -0.1627 -0.0072  0.2281
  134loPI   C2A 2136  12.016   4.362  10.116 -0.0814  0.0706  0.1182
  134loPI   C3A 2137  12.004   4.246   9.750  0.1150 -0.1308  0.0608
  134loPI   C4A 2138  11.934   4.222   9.325 -0.0518  0.3018  0.1022
  134loPI   C5A 2139  11.641   4.309   8.878 -0.2118  0.2197 -0.0880
  134loPI   C6A 2140  11.376   4.318   8.546  0.0559  0.2295 -0.4094
  134loPI   C1B 2141  12.511   4.194   9.878 -0.2468  0.0826 -0.0548
  134loPI   C2B 2142  12.464   4.074   9.456 -0.1688 -0.1026 -0.3678
  134loPI   C3B 2143  12.335   4.063   9.016 -0.1963  0.0036  0.3879
  134loPI   C4B 2144  11.924   3.920   8.926 -0.3333  0.2172  0.4246
  135loPI    C1 2145   6.600   5.190  11.488  0.0844 -0.0308  0.0809
  135loPI    C2 2146   6.803   5.535  11.480  0.2763 -0.1385  0.2201
  135loPI    C3 2147   6.503   5.485  11.740  0.0806  0.0137  0.0274
  135loPI   PO4 2148   6.580   5.147  11.238  0.1026  0.2114 -0.1713
  135loPI   GL1 2149   6.513   5.206  10.748  0.1174 -0.1969 -0.3513
  135loPI   GL2 2150   6.549   4.986  10.454  0.1388  0.0284  0.2372
  135loPI   C1A 2151   6.309   5.426  10.411 -0.2160 -0.1341  0.0247
  135loPI   C2A 2152   6.383   5.526  10.056 -0.0473  0.2905  0.2954
  135loPI   C3A 2153   6.481   5.609   9.553  0.1963  0.1297  0.1822
  135loPI   C4A 2154   6.537   5.605   9.169  0.1296 -0.0086  0.2265
  135loPI   C5A 2155   6.650   5.575   8.736  0.1723  0.0484  0.0740
  135loPI   C6A 2156   6.620   5.174   8.440 -0.0732 -0.2547 -0.0835
  135loPI   C1B 2157   6.520   4.994   9.972 -0.0989  0.1937 -0.1153
  135loPI   C2B 2158   6.628   5.128   9.538 -0.0084  0.0823  0.1318
  135loPI   C3B 2159   6.754   5.090   9.122 -0.3971  0.1362 -0.1902
  135loPI   C4B 2160   6.859   4.904   8.776 -0.0290  0.3731 -0.1229
  136loPI    C1 2161   1.217  17.698  10.636  0.1275  0.1960  0.0658
  136loPI    C2 2162   1.418  17.900  10.917 -0.2896  0.3393  0.2691
  136loPI    C3 2163   1.147  17.626  11.023  0.0737 -0.1404 -0.0041
  136loPI   PO4 2164   1.354  17.592  10.394 -0.1765  0.0619 -0.1479
  136loPI   GL1 2165   1.490  17.512  10.012 -0.1095  0.0575  0.2413
  136loPI   GL2 2166   1.210  17.467   9.935  0.0019  0.0126  0.0394
  136loPI   C1A 2167   1.549  17.408   9.550 -0.2124 -0.0808  0.4044
  136loPI   C2A 2168   1.582  17.442   9.075 -0.0221  0.1465 -0.0135
  136loPI   C3A 2169   1.714  17.566   8.602 -0.0197 -0.1595 -0.2871
  136loPI   C4A 2170   1.913  17.537   8.214 -0.1362 -0.2366  0.2411
  136loPI   C5A 2171   1.922  17.474   7.794  0.1229 -0.2092  0.1928
  136loPI   C6A 2172   1.820  17.627   7.478  0.2596 -0.0235  0.0641
  136loPI   C1B 2173   1.024  17.475   9.495 -0.2045  0.0972  0.3585
  136loPI   C2B 2174   1.055  17.487   9.150  0.0054  0.0132  0.3631
  136loPI   C3B 2175   1.202  17.399   8.715 -0.1277 -0.0994  0.3261
  136loPI   C4B 2176   1.337  17.467   8.283  0.1077  0.1655 -0.0116
  137loPI    C1 2177  10.057   0.478  11.094  0.1186 -0.0938 -0.2912
  137loPI    C2 2178  10.357   0.625  11.314 -0.0632 -0.1680  0.0115
  137loPI    C3 2179  10.068   0.868  11.181 -0.0190 -0.1438 -0.0404
  137loPI   PO4 2180  10.206   0.350  10.911  0.0958 -0.2769  0.4584
  137loPI   GL1 2181  10.361   0.612  10.568  0.0238  0.0094 -0.1767
  137loPI   GL2 2182  10.398   0.436  10.445  0.0990 -0.1869  0.2172
  137loPI   C1A 2183  10.319   0.977  10.236 -0.0456 -0.1324 -0.4501
  137loPI   C2A 2184  10.187   0.904   9.880  0.1915  0.1673 -0.1462
  137loPI   C3A 2185  10.279   0.913   9.518  0.0542 -0.3562 -0.3471
  137loPI   C4A 2186  10.305   1.040   9.142  0.2901 -0.4566  0.1331
  137loPI   C5A 2187  10.328   1.209   8.763 -0.0047 -0.1881  0.2539
  137loPI   C6A 2188  10.103   1.625   8.707  0.3396 -0.5406 -0.3513
  137loPI   C1B 2189  10.331   0.404  10.038  0.4111 -0.2018  0.0126
  137loPI   C2B 2190  10.379   0.353   9.606  0.2073 -0.1268 -0.0949
  137loPI   C3B 2191  10.463   0.573   9.231  0.1726 -0.1084 -0.2393
  137loPI   C4B 2192  10.473   0.702   8.806 -0.0847  0.0850  0.4217
  138loPI    C1 2193   7.594  16.520  11.208  0.2420  0.0064 -0.0461
  138loPI    C2 2194   7.756  16.703  11.525 -0.0375 -0.1784  0.2089
  138loPI    C3 2195   7.385  16.556  11.547  0.0360 -0.4255 -0.1213
  138loPI   PO4 2196   7.679  16.623  11.014  0.2776 -0.2259 -0.0988
  138loPI   GL1 2197   7.505  16.586  10.570  0.0812 -0.0599 -0.1949
  138loPI   GL2 2198   7.845  16.400  10.546  0.0181 -0.1109 -0.0186
  138loPI   C1A 2199   7.446  16.637  10.187 -0.0963 -0.0031  0.1246
  138loPI   C2A 2200   7.451  16.793   9.752 -0.3211 -0.1008  0.0755
  138loPI   C3A 2201   7.488  16.791   9.309 -0.1319 -0.1080  0.0054
  138loPI   C4A 2202   7.447  16.724   8.960 -0.1433 -0.2926  0.2215
  138loPI   C5A 2203   7.433  16.923   8.533  0.1093 -0.0946 -0.2773
  138loPI   C6A 2204   7.483  17.107   8.122  0.2296  0.1635  0.1194
  138loPI   C1B 2205   7.901  16.498  10.089 -0.0256  0.1682  0.0079
  138loPI   C2B 2206   7.963  16.482   9.696 -0.0234  0.0060  0.0303
  138loPI   C3B 2207   7.979  16.587   9.217 -0.0249  0.1576 -0.1919
  138loPI   C4B 2208   7.952  16.700   8.810 -0.1622 -0.0566 -0.2268
  139loPI    C1 2209   5.636   1.376  10.944 -0.3627 -0.0068 -0.1571
  139loPI    C2 2210   5.550   1.191  11.287 -0.1923 -0.0015 -0.1109
  139loPI    C3 2211   5.529   0.991  10.942 -0.2868 -0.0284 -0.0899
  139loPI   PO4 2212   5.879   1.498  10.978  0.2179  0.1968 -0.0932
  139loPI   GL1 2213   6.229   1.580  10.727  0.3275 -0.2285  0.1332
  139loPI   GL2 2214   6.499   1.672  10.527  0.2162  0.1659  0.0666
  139loPI   C1A 2215   6.042   1.462  10.381  0.2798 -0.0189 -0.4252
  139loPI   C2A 2216   5.870   1.364  10.026 -0.1550  0.1285 -0.1106
  139loPI   C3A 2217   5.968   1.300   9.618 -0.0921  0.0202 -0.2043
  139loPI   C4A 2218   6.109   1.283   9.230  0.1086 -0.0282  0.2240
  139loPI   C5A 2219   6.025   1.305   8.738 -0.0516  0.0835 -0.0886
  139loPI   C6A 2220   5.867   0.981   8.448  0.0874  0.1257  0.0224
  139loPI   C1B 2221   6.820   1.582  10.102 -0.1714  0.2872  0.0469
  139loPI   C2B 2222   6.949   1.680   9.774  0.0262  0.0335  0.0174
  139loPI   C3B 2223   6.950   1.483   9.406  0.1080  0.3650  0.1394
  139loPI   C4B 2224   6.959   1.456   8.911  0.0343 -0.1109 -0.0968
  140loPI    C1 2225  15.028  13.231  10.839 -0.1059 -0.0693  0.0082
  140loPI    C2 2226  14.671  13.353  10.973 -0.1389 -0.1226 -0.0310
  140loPI    C3 2227  14.848  13.034  11.137 -0.1890 -0.2006 -0.1275
  140loPI   PO4 2228  14.964  13.249  10.541  0.0020  0.1157  0.0448
  140loPI   GL1 2229  15.026  13.437  10.261 -0.2183  0.1366  0.0666
  140loPI   GL2 2230  15.304  13.225  10.104  0.0095  0.0355 -0.0103
  140loPI   C1A 2231  14.796  13.362   9.814  0.1406  0.1810  0.1820
  140loPI   C2A 2232  14.753  13.374   9.421  0.1951 -0.0288 -0.1748
  140loPI   C3A 2233  14.701  13.356   8.990  0.1159 -0.0127 -0.0773
  140loPI   C4A 2234  14.654  13.368   8.667  0.1143  0.0398  0.1650
  140loPI   C5A 2235  14.349  13.436   8.368  0.2279  0.2494 -0.1692
  140loPI   C6A 2236  14.064  13.770   8.295 -0.1353  0.0556 -0.2729
  140loPI   C1B 2237  15.237  13.205   9.649 -0.1333 -0.1955  0.0405
  140loPI   C2B 2238  15.159  13.250   9.181  0.1868  0.1112 -0.2436
  140loPI   C3B 2239  15.139  13.256   8.731  0.0633 -0.0572  0.2200
  140loPI   C4B 2240  15.096  13.260   8.369  0.0276 -0.3839 -0.1180
  141loPI    C1 2241   9.171   4.932  11.318 -0.0602  0.2131  0.1174
  141loPI    C2 2242   9.188   4.984  11.714 -0.0397  0.2373  0.1132
  141loPI    C3 2243   9.143   4.617  11.563  0.3533  0.1786  0.1278
  141loPI   PO4 2244   9.349   5.095  11.223  0.0057 -0.0730 -0.1448
  141loPI   GL1 2245   9.573   5.312  10.871  0.0271 -0.0319  0.0542
  141loPI   GL2 2246   9.314   5.177  10.695 -0.0472 -0.0821  0.2046
  141loPI   C1A 2247   9.783   5.262  10.484  0.1069  0.1537  0.1157
  141loPI   C2A 2248   9.837   5.400  10.136  0.1271  0.1818  0.1380
  141loPI   C3A 2249   9.879   5.396   9.693  0.0657 -0.0551 -0.0257
  141loPI   C4A 2250   9.922   5.519   9.220  0.0903 -0.0356  0.4941
  141loPI   C5A 2251   9.931   5.393   8.820 -0.2388 -0.0996 -0.2822
  141loPI   C6A 2252  10.166   5.138   8.497  0.0080  0.0464 -0.0888
  141loPI   C1B 2253   9.313   5.015  10.285 -0.2982 -0.1649 -0.0130
  141loPI   C2B 2254   9.375   5.103   9.965  0.2019 -0.1665  0.1390
  141loPI   C3B 2255   9.440   5.058   9.549 -0.0372  0.0061 -0.3007
  141loPI   C4B 2256   9.487   5.113   9.105 -0.0474 -0.0482  0.0984
  142loPI    C1 2257   1.748   1.156  10.407  0.0853  0.3159  0.2120
  142loPI    C2 2258   1.580   1.096  10.765  0.1085 -0.0471  0.1654
  142loPI    C3 2259   1.961   0.991  10.703  0.0424 -0.1802 -0.0242
  142loPI   PO4 2260   1.526   1.261  10.303 -0.4250 -0.2099 -0.0580
  142loPI   GL1 2261   1.408   1.457   9.985  0.1657 -0.2818  0.0499
  142loPI   GL2 2262   1.162   1.672   9.922  0.1803  0.0349 -0.1294
  142loPI   C1A 2263   1.362   1.135   9.699  0.1223 -0.0119 -0.1137
  142loPI   C2A 2264   1.424   1.137   9.222 -0.1501  0.1704 -0.0667
  142loPI   C3A 2265   1.422   1.224   8.790  0.0162  0.0156 -0.0678
  142loPI   C4A 2266   1.556   1.057   8.416 -0.2701 -0.2091  0.2476
  142loPI   C5A 2267   1.802   1.143   8.103 -0.1753  0.0629  0.1741
  142loPI   C6A 2268   2.028   1.472   7.834  0.1929  0.1203  0.0155
  142loPI   C1B 2269   1.229   1.552   9.477  0.2170  0.0459  0.3323
  142loPI   C2B 2270   1.185   1.582   9.118 -0.0274  0.1959 -0.0266
  142loPI   C3B 2271   1.026   1.646   8.774 -0.1884  0.1163  0.3531
  142loPI   C4B 2272   0.860   1.549   8.356 -0.1063  0.1015  0.2414
  143loPI    C1 2273   4.965  15.571  11.151  0.1358 -0.0190  0.0377
  143loPI    C2 2274   4.645  15.631  11.383 -0.1093 -0.0350 -0.2884
  143loPI    C3 2275   4.989  15.508  11.545 -0.2653 -0.0170  0.0671
  143loPI   PO4 2276   4.894  15.451  10.958 -0.0186 -0.1190  0.4938
  143loPI   GL1 2277   4.786  15.305  10.510 -0.0429  0.0615 -0.0325
  143loPI   GL2 2278   4.691  15.620  10.544 -0.1927 -0.0964 -0.2846
  143loPI   C1A 2279   4.835  15.238  10.106 -0.0844  0.1209  0.5130
  143loPI   C2A 2280   4.941  15.201   9.719  0.0043 -0.1764  0.2393
  143loPI   C3A 2281   4.904  15.151   9.290 -0.0166  0.1295  0.0753
  143loPI   C4A 2282   5.059  15.285   8.921  0.1551 -0.0521  0.1000
  143loPI   C5A 2283   5.075  15.346   8.508  0.1942 -0.0029  0.1870
  143loPI   C6A 2284   5.289  15.101   8.214  0.0874  0.0209 -0.0761
  143loPI   C1B 2285   4.649  15.672  10.108 -0.1951 -0.1425  0.0150
  143loPI   C2B 2286   4.807  15.669   9.696  0.0757  0.0075 -0.3462
  143loPI   C3B 2287   4.794  15.637   9.251  0.0350  0.0540  0.0508
  143loPI   C4B 2288   4.823  15.697   8.740  0.0909  0.0549  0.0827
  144loPI    C1 2289   0.285  12.321  10.052  0.1472 -0.0367 -0.1156
  144loPI    C2 2290   0.007  12.564   9.897  0.0498 -0.0445  0.0445
  144loPI    C3 2291  -0.055  12.389  10.251  0.1152 -0.3115 -0.0738
  144loPI   PO4 2292   0.528  12.333   9.908 -0.2912 -0.0694 -0.1979
  144loPI   GL1 2293   0.577  12.483   9.535  0.1016  0.0648  0.2024
  144loPI   GL2 2294   0.419  12.771   9.454  0.0456  0.1536  0.3861
  144loPI   C1A 2295   0.725  12.441   9.081 -0.1174 -0.0067 -0.1799
  144loPI   C2A 2296   0.740  12.412   8.667  0.0473 -0.1217  0.1078
  144loPI   C3A 2297   0.831  12.303   8.299  0.1313 -0.0826  0.0891
  144loPI   C4A 2298   0.946  12.230   7.868 -0.3679  0.0914 -0.2494
  144loPI   C5A 2299   1.188  12.062   7.557  0.2267  0.0304 -0.3787
  144loPI   C6A 2300   1.139  12.170   7.099  0.1637 -0.4390 -0.1639
  144loPI   C1B 2301   0.366  12.878   9.091  0.1562 -0.0501 -0.0735
  144loPI   C2B 2302   0.327  12.839   8.665  0.2111  0.0514 -0.1914
  144loPI   C3B 2303   0.409  12.677   8.346 -0.1469 -0.0840 -0.0670
  144loPI   C4B 2304   0.529  12.525   7.909  0.0663 -0.0030  0.2421
  145loPI    C1 2305  16.617   3.434  10.622 -0.1739  0.3016  0.2638
  145loPI    C2 2306  16.567   3.098  10.833  0.2577  0.0374 -0.0389
  145loPI    C3 2307  16.645   3.442  11.021 -0.0537 -0.0532  0.2661
  145loPI   PO4 2308  16.407   3.452  10.380  0.4411  0.2029 -0.1043
  145loPI   GL1 2309  16.453   3.450   9.843 -0.3362 -0.0815  0.0109
  145loPI   GL2 2310  16.491   3.756   9.997  0.2698 -0.0688 -0.0190
  145loPI   C1A 2311  16.243   3.519   9.429  0.0530  0.0629  0.0057
  145loPI   C2A 2312  16.105   3.694   9.072  0.1413 -0.2048 -0.0242
  145loPI   C3A 2313  16.184   3.784   8.674 -0.0285  0.0655  0.1733
  145loPI   C4A 2314  15.957   3.758   8.325  0.2573 -0.1535  0.0715
  145loPI   C5A 2315  15.995   4.059   8.067 -0.1001 -0.0179  0.0234
  145loPI   C6A 2316  16.107   4.202   7.667  0.3044 -0.0129 -0.0674
  145loPI   C1B 2317  16.678   3.926   9.614 -0.0224  0.0007  0.1562
  145loPI   C2B 2318  16.502   4.005   9.187  0.1214 -0.1189  0.1702
  145loPI   C3B 2319  16.586   4.092   8.743 -0.1086 -0.0098  0.1440
  145loPI   C4B 2320  16.465   4.129   8.318  0.1122  0.0947  0.1111
  146loPI    C1 2321   7.294   8.616  10.958 -0.1401  0.1090 -0.1651
  146loPI    C2 2322   7.466   8.976  10.932 -0.0018  0.0550 -0.0108
  146loPI    C3 2323   7.561   8.730  11.233 -0.2900 -0.0076  0.0320
  146loPI   PO4 2324   7.304   8.537  10.765  0.0788 -0.0103 -0.0206
  146loPI   GL1 2325   7.454   8.688  10.451  0.1454  0.1083 -0.0553
  146loPI   GL2 2326   7.158   8.837  10.264  0.0350  0.2575  0.0604
  146loPI   C1A 2327   7.651   8.583  10.118  0.0584  0.0337  0.2045
  146loPI   C2A 2328   7.707   8.540   9.717 -0.2466  0.0542 -0.1487
  146loPI   C3A 2329   7.787   8.532   9.363  0.2042 -0.0767  0.1969
  146loPI   C4A 2330   7.787   8.454   8.929  0.2713 -0.2861 -0.2598
  146loPI   C5A 2331   7.924   8.116   8.632 -0.1900 -0.4828  0.2274
  146loPI   C6A 2332   7.835   7.935   8.244  0.2345 -0.0992 -0.0750
  146loPI   C1B 2333   7.166   8.616   9.986  0.0064  0.0616 -0.1143
  146loPI   C2B 2334   7.260   8.737   9.537  0.2632 -0.1515  0.1351
  146loPI   C3B 2335   7.249   8.691   9.144  0.0076  0.0597 -0.1747
  146loPI   C4B 2336   7.221   8.609   8.706  0.1609 -0.1031  0.1603
  147loPI    C1 2337   5.490  13.523  10.817  0.1413  0.3391  0.1734
  147loPI    C2 2338   5.201  13.757  10.668 -0.0937 -0.0110  0.0674
  147loPI    C3 2339   5.341  13.823  11.037 -0.1446  0.3035  0.0333
  147loPI   PO4 2340   5.760  13.459  10.700  0.2378  0.0876 -0.0486
  147loPI   GL1 2341   5.907  13.396  10.395 -0.1550 -0.0061 -0.2312
  147loPI   GL2 2342   6.224  13.378  10.459 -0.0020  0.0783  0.1166
  147loPI   C1A 2343   5.764  13.449   9.960  0.1084 -0.0216 -0.2401
  147loPI   C2A 2344   5.735  13.463   9.565 -0.0400 -0.1621 -0.0059
  147loPI   C3A 2345   5.835  13.562   9.156 -0.1888 -0.0079  0.1790
  147loPI   C4A 2346   5.868  13.548   8.714 -0.1023  0.1016 -0.1843
  147loPI   C5A 2347   5.873  13.808   8.247  0.0187  0.2477 -0.3089
  147loPI   C6A 2348   6.290  14.122   8.126  0.4165 -0.0438 -0.1421
  147loPI   C1B 2349   6.278  13.349  10.048 -0.1339  0.0986  0.1183
  147loPI   C2B 2350   6.207  13.290   9.690  0.3824 -0.1075  0.1953
  147loPI   C3B 2351   6.237  13.295   9.295  0.2328 -0.2274 -0.0531
  147loPI   C4B 2352   6.335  13.305   8.872  0.2927 -0.1715 -0.4016
  148loPI    C1 2353   2.236  13.412  10.374  0.0911  0.0053  0.1728
  148loPI    C2 2354   2.086  13.042  10.360  0.1253 -0.0008 -0.0885
  148loPI    C3 2355   2.051  13.260  10.694  0.0079 -0.1979  0.0298
  148loPI   PO4 2356   2.424  13.415  10.281 -0.2536 -0.5067 -0.0649
  148loPI   GL1 2357   2.638  13.142  10.015 -0.0529  0.1471  0.0334
  148loPI   GL2 2358   2.602  12.853  10.049 -0.1997  0.2313 -0.3388
  148loPI   C1A 2359   2.605  13.239   9.587 -0.5720  0.1435 -0.0189
  148loPI   C2A 2360   2.649  13.290   9.161 -0.2098 -0.0413 -0.0655
  148loPI   C3A 2361   2.646  13.305   8.701  0.1456 -0.2240  0.0013
  148loPI   C4A 2362   2.506  13.196   8.294 -0.2948  0.3247  0.1683
  148loPI   C5A 2363   2.652  13.110   7.944 -0.0157 -0.0686 -0.0234
  148loPI   C6A 2364   2.798  12.826   7.826 -0.1658  0.1768 -0.1672
  148loPI   C1B 2365   2.642  12.706   9.669 -0.1361  0.3148 -0.2310
  148loPI   C2B 2366   2.630  12.765   9.227 -0.0617 -0.1993 -0.4413
  148loPI   C3B 2367   2.635  12.784   8.756  0.0360 -0.0603  0.1794
  148loPI   C4B 2368   2.736  12.653   8.356 -0.0911  0.2043 -0.5286
  149loPI    C1 2369   0.238  10.923  10.425 -0.0187  0.2004  0.0386
  149loPI    C2 2370   0.487  11.080  10.695  0.1385 -0.3252  0.2115
  149loPI    C3 2371   0.176  10.859  10.815 -0.2647  0.1013 -0.0148
  149loPI   PO4 2372   0.387  10.842  10.258  0.2330  0.0467 -0.1702
  149loPI   GL1 2373   0.391  10.573   9.936 -0.1684 -0.1166 -0.0641
  149loPI   GL2 2374   0.461  10.261   9.912  0.0210 -0.0664  0.2672
  149loPI   C1A 2375   0.408  10.674   9.463 -0.3173  0.4373  0.0106
  149loPI   C2A 2376   0.397  10.498   9.069  0.0202  0.1491 -0.0153
  149loPI   C3A 2377   0.386  10.369   8.671 -0.2540  0.0508  0.1347
  149loPI   C4A 2378   0.354  10.393   8.280 -0.0839  0.0394  0.0892
  149loPI   C5A 2379   0.196  10.539   7.937 -0.2151 -0.0820 -0.1072
  149loPI   C6A 2380   0.380  10.688   7.586  0.0245  0.0678  0.0606
  149loPI   C1B 2381   0.255  10.180   9.604 -0.0264  0.2261  0.2572
  149loPI   C2B 2382  -0.003  10.399   9.267  0.1082  0.1575 -0.2270
  149loPI   C3B 2383  -0.080  10.473   8.899 -0.1569  0.0908  0.0628
  149loPI   C4B 2384  -0.069  10.366   8.496  0.0626  0.2079  0.4463
  150loPI    C1 2385   1.274  15.783  10.609 -0.0991 -0.1379  0.0988
  150loPI    C2 2386   0.984  16.040  10.706 -0.0180  0.0374 -0.1142
  150loPI    C3 2387   1.231  15.902  10.988 -0.2999 -0.1062  0.0674
  150loPI   PO4 2388   1.440  15.900  10.436 -0.0647 -0.1121  0.3476
  150loPI   GL1 2389   1.534  15.837   9.961  0.0931 -0.0189 -0.0145
  150loPI   GL2 2390   1.710  16.049  10.067 -0.0662 -0.0058 -0.0305
  150loPI   C1A 2391   1.466  15.924   9.577  0.1779 -0.0715  0.0837
  150loPI   C2A 2392   1.450  15.878   9.151 -0.1150 -0.0426 -0.1813
  150loPI   C3A 2393   1.508  15.892   8.764 -0.0555  0.1819  0.0077
  150loPI   C4A 2394   1.346  16.011   8.399  0.1193 -0.0656 -0.3422
  150loPI   C5A 2395   1.059  16.213   8.134 -0.0054 -0.0735  0.1578
  150loPI   C6A 2396   0.812  15.890   7.909 -0.2012  0.0015 -0.2854
  150loPI   C1B 2397   1.872  16.239   9.669  0.1372 -0.1669  0.1285
  150loPI   C2B 2398   2.059  16.287   9.251  0.1915  0.0556 -0.0260
  150loPI   C3B 2399   1.943  16.271   8.795 -0.3561 -0.0107 -0.0359
  150loPI   C4B 2400   1.849  16.173   8.425  0.1063  0.0735 -0.1667
  151loPI    C1 2401  12.569  11.725  11.310  0.1555  0.0192  0.0091
  151loPI    C2 2402  12.884  11.480  11.295  0.0095 -0.1597 -0.2032
  151loPI    C3 2403  12.706  11.555  11.645  0.4099  0.1051 -0.0494
  151loPI   PO4 2404  12.404  11.667  11.105  0.3746 -0.3475 -0.1011
  151loPI   GL1 2405  12.274  11.805  10.706  0.0769 -0.2229 -0.0326
  151loPI   GL2 2406  12.539  11.715  10.495  0.0593 -0.0799 -0.1553
  151loPI   C1A 2407  12.059  11.603  10.337 -0.0842 -0.0175 -0.0775
  151loPI   C2A 2408  12.071  11.469   9.909  0.0545 -0.0819  0.0149
  151loPI   C3A 2409  11.925  11.410   9.547  0.0567 -0.1695 -0.0523
  151loPI   C4A 2410  11.912  11.479   9.265  0.1910 -0.2156 -0.0596
  151loPI   C5A 2411  11.888  11.466   8.753 -0.1388 -0.2217 -0.4080
  151loPI   C6A 2412  11.658  11.684   8.485  0.2459 -0.1618  0.0086
  151loPI   C1B 2413  12.495  11.734  10.005  0.1810 -0.0705  0.1847
  151loPI   C2B 2414  12.311  11.704   9.552  0.0808 -0.0300  0.1625
  151loPI   C3B 2415  12.308  11.870   9.139 -0.1927 -0.1224  0.1022
  151loPI   C4B 2416  12.141  11.882   8.744  0.0040 -0.0887 -0.3142
  152loPI    C1 2417   9.068  17.762  11.003  0.1681  0.1961  0.0273
  152loPI    C2 2418   9.052  17.770  11.403  0.2284 -0.0751  0.0374
  152loPI    C3 2419   8.895  17.461  11.203 -0.0757  0.2049 -0.1659
  152loPI   PO4 2420   9.077  18.112  10.981  0.1466 -0.0666 -0.0011
  152loPI   GL1 2421   9.135  18.262  10.553 -0.0466 -0.0481  0.2761
  152loPI   GL2 2422   9.408  18.404  10.787 -0.0197 -0.2698  0.2299
  152loPI   C1A 2423   9.024  18.106  10.214  0.0089  0.0923 -0.2314
  152loPI   C2A 2424   8.961  18.148   9.838 -0.0093 -0.1813 -0.1400
  152loPI   C3A 2425   8.971  18.148   9.352  0.2266 -0.0309 -0.1367
  152loPI   C4A 2426   9.158  18.160   8.979  0.1661 -0.0996 -0.0749
  152loPI   C5A 2427   9.489  18.202   8.708  0.0210 -0.1358 -0.1150
  152loPI   C6A 2428   9.553  18.657   8.639  0.3607  0.0738  0.0708
  152loPI   C1B 2429   9.500  18.654  10.469 -0.0355  0.0068  0.0984
  152loPI   C2B 2430   9.554  18.586  10.037  0.1881 -0.0521 -0.1359
  152loPI   C3B 2431   9.471  18.516   9.609 -0.0801  0.1506  0.0193
  152loPI   C4B 2432   9.440  18.549   9.236  0.2073  0.1057 -0.0435
  153loPI    C1 2433  12.787  15.944  11.282 -0.0186  0.0765  0.2291
  153loPI    C2 2434  13.124  16.159  11.295  0.0806 -0.0700  0.1205
  153loPI    C3 2435  12.961  16.022  11.634 -0.0429  0.2641  0.2006
  153loPI   PO4 2436  12.768  16.088  10.970  0.1936 -0.0136 -0.0991
  153loPI   GL1 2437  12.987  15.845  10.632 -0.0517 -0.1595  0.0340
  153loPI   GL2 2438  13.294  15.811  10.371 -0.0774 -0.4511  0.1614
  153loPI   C1A 2439  12.862  15.502  10.380 -0.1227  0.0511  0.1297
  153loPI   C2A 2440  12.923  15.418   9.950  0.2745  0.0552  0.0923
  153loPI   C3A 2441  12.975  15.416   9.583  0.1251 -0.0370 -0.1239
  153loPI   C4A 2442  12.822  15.413   9.145 -0.1530 -0.1488 -0.2507
  153loPI   C5A 2443  12.829  15.496   8.780 -0.0955  0.1269 -0.2306
  153loPI   C6A 2444  12.833  15.319   8.349 -0.0458 -0.4368  0.1295
  153loPI   C1B 2445  13.354  15.716   9.936 -0.0190 -0.0418  0.2169
  153loPI   C2B 2446  13.389  15.699   9.558  0.1572 -0.1817 -0.1143
  153loPI   C3B 2447  13.173  15.833   9.110  0.2235  0.2681 -0.3014
  153loPI   C4B 2448  13.066  16.005   8.761 -0.0367  0.3221  0.0799
  154loPI    C1 2449   2.754  13.859  10.587 -0.3558 -0.2398 -0.0472
  154loPI    C2 2450   2.427  14.045  10.722 -0.2541  0.0153 -0.1459
  154loPI    C3 2451   2.790  14.160  10.847 -0.1875 -0.0902 -0.2399
  154loPI   PO4 2452   2.725  13.827  10.336 -0.1485  0.0581 -0.0526
  154loPI   GL1 2453   3.016  13.725  10.036 -0.1820  0.3433  0.0727
  154loPI   GL2 2454   3.026  13.435   9.999  0.1398 -0.2035 -0.1276
  154loPI   C1A 2455   3.330  13.796   9.685  0.1802  0.3934  0.1544
  154loPI   C2A 2456   3.506  13.785   9.204 -0.7024 -0.3523  0.2891
  154loPI   C3A 2457   3.478  13.840   8.804 -0.1612 -0.0942  0.0102
  154loPI   C4A 2458   3.592  13.912   8.407  0.0634  0.1583  0.1042
  154loPI   C5A 2459   3.805  13.838   8.053  0.3637  0.2761 -0.2537
  154loPI   C6A 2460   3.973  13.506   7.705 -0.2231 -0.3311 -0.0930
  154loPI   C1B 2461   3.027  13.466   9.481 -0.1259  0.2988  0.2249
  154loPI   C2B 2462   3.083  13.484   9.039  0.2094  0.1369 -0.3402
  154loPI   C3B 2463   3.072  13.582   8.684  0.1162 -0.2274  0.2314
  154loPI   C4B 2464   2.909  13.517   8.226  0.1042 -0.0946  0.3389
  155loPI    C1 2465  14.579  17.166  11.026 -0.1278  0.1006 -0.0206
  155loPI    C2 2466  14.791  17.505  11.003  0.0536 -0.0153 -0.0732
  155loPI    C3 2467  14.778  17.299  11.346  0.0684 -0.0357 -0.0847
  155loPI   PO4 2468  14.577  17.101  10.739 -0.0106 -0.2167 -0.1295
  155loPI   GL1 2469  14.592  17.133  10.354  0.1813 -0.3762  0.0715
  155loPI   GL2 2470  14.744  16.853  10.154 -0.0948 -0.0607 -0.0655
  155loPI   C1A 2471  14.312  17.351  10.083  0.1074  0.0788 -0.0558
  155loPI   C2A 2472  14.025  17.402   9.727  0.1203 -0.1209  0.1586
  155loPI   C3A 2473  13.868  17.450   9.298 -0.2127 -0.0903 -0.0787
  155loPI   C4A 2474  13.852  17.591   8.879  0.1370  0.0685 -0.1283
  155loPI   C5A 2475  13.798  17.573   8.376  0.1610 -0.0433  0.0014
  155loPI   C6A 2476  13.610  17.890   8.083 -0.1557  0.0503 -0.1883
  155loPI   C1B 2477  14.568  16.685   9.750 -0.0742 -0.0515 -0.0236
  155loPI   C2B 2478  14.460  16.681   9.318 -0.0080 -0.0921  0.0265
  155loPI   C3B 2479  14.440  16.881   8.904 -0.1089  0.2273 -0.2008
  155loPI   C4B 2480  14.363  16.872   8.471 -0.0356  0.2626  0.2247
  156loPI    C1 2481  17.766   9.867  10.327 -0.0529 -0.1179 -0.0692
  156loPI    C2 2482  17.961   9.607  10.559 -0.0372 -0.0218  0.0259
  156loPI    C3 2483  17.880   9.975  10.695  0.0252  0.0552 -0.1423
  156loPI   PO4 2484  17.918   9.870  10.109  0.0546 -0.0576 -0.0433
  156loPI   GL1 2485  18.090   9.688   9.750 -0.2865  0.0686  0.2522
  156loPI   GL2 2486  17.746   9.771   9.626  0.0041 -0.1410  0.1637
  156loPI   C1A 2487  18.032   9.738   9.235 -0.0639 -0.0976 -0.1735
  156loPI   C2A 2488  18.145   9.569   8.933 -0.1738 -0.1408  0.0396
  156loPI   C3A 2489  18.020   9.308   8.619  0.0977  0.1161  0.1287
  156loPI   C4A 2490  18.063   8.981   8.322  0.0487  0.1496 -0.2071
  156loPI   C5A 2491  18.026   9.105   7.891 -0.0985  0.1629  0.2925
  156loPI   C6A 2492  17.884   9.065   7.471 -0.2598 -0.0561 -0.0793
  156loPI   C1B 2493  17.567   9.943   9.270  0.2563 -0.2071  0.0415
  156loPI   C2B 2494  17.879   9.992   8.849  0.0892 -0.1783 -0.1103
  156loPI   C3B 2495  17.861   9.924   8.433 -0.0234 -0.2797 -0.2701
  156loPI   C4B 2496  17.778  10.082   8.050 -0.3019 -0.2995  0.4832
  157loPI    C1 2497   3.340   7.925  10.425  0.0948 -0.2717 -0.0159
  157loPI    C2 2498   3.652   7.873  10.670  0.2280 -0.0249 -0.1300
  157loPI    C3 2499   3.571   8.236  10.524 -0.0070 -0.1213 -0.2443
  157loPI   PO4 2500   3.373   7.750  10.207 -0.0239 -0.2381 -0.2679
  157loPI   GL1 2501   3.464   7.854   9.888 -0.1768 -0.0789 -0.0500
  157loPI   GL2 2502   3.453   8.254  10.001  0.2724  0.2532 -0.0720
  157loPI   C1A 2503   3.499   7.670   9.459 -0.2404 -0.2416 -0.1737
  157loPI   C2A 2504   3.476   7.676   9.068 -0.1475  0.0575 -0.1762
  157loPI   C3A 2505   3.607   7.721   8.744  0.1350 -0.0480 -0.1655
  157loPI   C4A 2506   3.508   7.510   8.420 -0.2300  0.0677  0.0982
  157loPI   C5A 2507   3.350   7.357   8.026 -0.1196 -0.0401  0.1524
  157loPI   C6A 2508   3.168   7.101   7.769 -0.0309 -0.0057 -0.0838
  157loPI   C1B 2509   3.319   8.267   9.621  0.1550 -0.1345 -0.2895
  157loPI   C2B 2510   3.349   8.206   9.139 -0.1755  0.0485  0.1668
  157loPI   C3B 2511   3.313   8.152   8.771  0.0065 -0.1248 -0.1041
  157loPI   C4B 2512   3.343   7.959   8.376  0.2525  0.1043 -0.1202
  158loPI    C1 2513   3.945  14.992  10.672  0.0071 -0.0413  0.2022
  158loPI    C2 2514   3.592  14.926  10.849 -0.0570 -0.0104  0.0864
  158loPI    C3 2515   3.804  15.253  10.941 -0.0685 -0.0181  0.1402
  158loPI   PO4 2516   3.908  14.894  10.457 -0.2036  0.3445  0.2231
  158loPI   GL1 2517   4.135  14.826  10.137  0.0470  0.0149 -0.2909
  158loPI   GL2 2518   4.458  14.815  10.008  0.4764  0.1700  0.2394
  158loPI   C1A 2519   3.894  14.513   9.910 -0.0754 -0.0442 -0.0027
  158loPI   C2A 2520   4.154  14.433   9.624  0.2764 -0.0532 -0.0001
  158loPI   C3A 2521   4.235  14.480   9.249  0.0929  0.1454 -0.0638
  158loPI   C4A 2522   4.201  14.573   8.864  0.2959 -0.1245  0.2701
  158loPI   C5A 2523   4.177  14.653   8.400 -0.3222 -0.3861  0.0398
  158loPI   C6A 2524   4.014  14.941   8.153  0.0949 -0.0925 -0.1181
  158loPI   C1B 2525   4.558  14.846   9.528  0.0320  0.1315 -0.1342
  158loPI   C2B 2526   4.564  14.842   9.129 -0.0402 -0.0254 -0.0274
  158loPI   C3B 2527   4.539  14.877   8.668 -0.3436 -0.1187  0.0277
  158loPI   C4B 2528   4.682  14.851   8.313  0.0131 -0.3399 -0.0457
  159loPI    C1 2529   0.820  10.580  10.293 -0.0617  0.0078 -0.1096
  159loPI    C2 2530   0.880  10.950  10.433 -0.0568 -0.0033 -0.0821
  159loPI    C3 2531   0.714  10.672  10.668  0.0305 -0.0456 -0.0700
  159loPI   PO4 2532   0.925  10.578  10.064  0.0890  0.1525  0.1157
  159loPI   GL1 2533   0.883  10.542   9.686 -0.1744 -0.1581  0.0110
  159loPI   GL2 2534   1.141  10.646   9.470 -0.0932  0.0945  0.0251
  159loPI   C1A 2535   0.809  10.317   9.324 -0.1389  0.0371  0.0074
  159loPI   C2A 2536   0.600   9.994   8.991  0.0443 -0.0698 -0.2101
  159loPI   C3A 2537   0.568   9.943   8.561 -0.3928  0.2721  0.0171
  159loPI   C4A 2538   0.566   9.938   8.132 -0.2618 -0.1512  0.0929
  159loPI   C5A 2539   0.446  10.112   7.752 -0.1332 -0.0396  0.0434
  159loPI   C6A 2540   0.156  10.147   7.534  0.0603 -0.0368  0.1677
  159loPI   C1B 2541   1.108  10.564   9.059 -0.0100 -0.1628 -0.0803
  159loPI   C2B 2542   0.951  10.319   8.737  0.0624  0.4286  0.1203
  159loPI   C3B 2543   0.853  10.309   8.323 -0.0473  0.0867  0.0769
  159loPI   C4B 2544   0.683  10.495   7.957  0.1467  0.0354  0.0964
  160loPI    C1 2545  13.348  10.352  11.052  0.0207 -0.2814  0.0820
  160loPI    C2 2546  13.550  10.647  11.231 -0.2699  0.0906 -0.1869
  160loPI    C3 2547  13.379  10.360  11.451  0.0312  0.1078  0.0773
  160loPI   PO4 2548  13.431  10.334  10.736 -0.0975 -0.2424  0.2024
  160loPI   GL1 2549  13.654  10.524  10.475 -0.1570 -0.2822 -0.1235
  160loPI   GL2 2550  13.922  10.614  10.504  0.4495  0.2349  0.1362
  160loPI   C1A 2551  13.627  10.519  10.046  0.0306  0.1151  0.0885
  160loPI   C2A 2552  13.614  10.489   9.578 -0.3015  0.0395  0.0301
  160loPI   C3A 2553  13.429  10.430   9.215 -0.1982  0.1922  0.3225
  160loPI   C4A 2554  13.497  10.458   8.700 -0.0447  0.4703 -0.1384
  160loPI   C5A 2555  13.201  10.484   8.432  0.1960  0.0391 -0.0946
  160loPI   C6A 2556  12.874  10.620   8.196  0.2040 -0.0068 -0.1651
  160loPI   C1B 2557  14.082  10.743  10.138 -0.1602 -0.0939  0.2130
  160loPI   C2B 2558  14.023  10.776   9.761  0.1106 -0.3435  0.4733
  160loPI   C3B 2559  13.852  10.808   9.238  0.1246  0.2077  0.3911
  160loPI   C4B 2560  13.905  10.776   8.877  0.0562  0.3743  0.2057
  161loPI    C1 2561  11.526   8.522  11.063 -0.0128 -0.0466 -0.1018
  161loPI    C2 2562  11.844   8.301  11.163  0.0821  0.1690  0.0836
  161loPI    C3 2563  11.710   8.583  11.413 -0.1540  0.1933 -0.0666
  161loPI   PO4 2564  11.605   8.486  10.743 -0.0870  0.2229 -0.3673
  161loPI   GL1 2565  11.321   8.327  10.465 -0.1108 -0.1227  0.1432
  161loPI   GL2 2566  11.425   8.569  10.315  0.0668 -0.0312 -0.1644
  161loPI   C1A 2567  10.975   8.411  10.158 -0.0094  0.0732  0.0346
  161loPI   C2A 2568  11.050   8.347   9.686 -0.0412 -0.0492 -0.5017
  161loPI   C3A 2569  11.153   8.419   9.258 -0.1341  0.0854  0.2585
  161loPI   C4A 2570  11.100   8.274   8.853 -0.0694  0.1653  0.0950
  161loPI   C5A 2571  10.855   8.386   8.500 -0.1581  0.1112 -0.0386
  161loPI   C6A 2572  10.764   8.459   8.034 -0.3280 -0.0594  0.0673
  161loPI   C1B 2573  11.365   8.762   9.946  0.0910 -0.0998 -0.0387
  161loPI   C2B 2574  11.354   8.810   9.533 -0.1516 -0.3095  0.0130
  161loPI   C3B 2575  11.448   8.737   8.978  0.0054 -0.3507 -0.0956
  161loPI   C4B 2576  11.385   8.572   8.566  0.0342 -0.0750 -0.2988
  162loPI    C1 2577   1.080  14.548  10.374  0.0373  0.1076 -0.1352
  162loPI    C2 2578   1.315  14.866  10.312  0.2652 -0.0343 -0.0144
  162loPI    C3 2579   1.331  14.671  10.661 -0.0261 -0.0535 -0.0093
  162loPI   PO4 2580   0.910  14.622  10.153 -0.2381  0.4618  0.1627
  162loPI   GL1 2581   0.982  14.550   9.869  0.1121  0.3423  0.3310
  162loPI   GL2 2582   1.381  14.641   9.871  0.0842 -0.1163  0.0378
  162loPI   C1A 2583   0.930  14.471   9.435 -0.1058  0.0466  0.1793
  162loPI   C2A 2584   0.973  14.408   8.974  0.0937 -0.2460  0.0216
  162loPI   C3A 2585   1.003  14.521   8.519  0.0338  0.3442 -0.2056
  162loPI   C4A 2586   1.149  14.714   8.128  0.2731 -0.0374  0.0875
  162loPI   C5A 2587   1.127  14.661   7.715  0.0233  0.2951 -0.3449
  162loPI   C6A 2588   0.871  14.813   7.324 -0.2146  0.4527  0.1819
  162loPI   C1B 2589   1.665  14.905   9.531 -0.1153  0.2192 -0.1200
  162loPI   C2B 2590   1.735  14.915   8.999  0.0140  0.2611  0.1742
  162loPI   C3B 2591   1.617  14.844   8.597  0.0672 -0.1235  0.1233
  162loPI   C4B 2592   1.690  14.843   8.132  0.0866  0.2695  0.3326
  163loPI    C1 2593   3.282   0.053  10.841  0.0325  0.1009  0.0743
  163loPI    C2 2594   3.094  -0.270  10.984  0.0321  0.0555 -0.0276
  163loPI    C3 2595   3.428  -0.138  11.160  0.1171 -0.0909 -0.0769
  163loPI   PO4 2596   3.393   0.073  10.581 -0.1607 -0.1116  0.0764
  163loPI   GL1 2597   3.739   0.038  10.203  0.2532 -0.2627  0.2192
  163loPI   GL2 2598   3.901   0.245  10.462 -0.0815 -0.1509 -0.1893
  163loPI   C1A 2599   3.782   0.087   9.737  0.0720  0.1548 -0.0218
  163loPI   C2A 2600   3.914   0.184   9.294 -0.0983  0.0871  0.1405
  163loPI   C3A 2601   3.937   0.089   8.893  0.1252 -0.3376 -0.2104
  163loPI   C4A 2602   3.977   0.069   8.401  0.2007  0.2773 -0.0380
  163loPI   C5A 2603   4.202   0.202   8.008 -0.0490  0.1726  0.1351
  163loPI   C6A 2604   4.161   0.246   7.584 -0.3743 -0.2638  0.1113
  163loPI   C1B 2605   3.818   0.539  10.123 -0.0653  0.1704 -0.2037
  163loPI   C2B 2606   3.790   0.689   9.731 -0.1073  0.1682 -0.0998
  163loPI   C3B 2607   3.797   0.697   9.291  0.1628  0.2023  0.0765
  163loPI   C4B 2608   4.002   0.610   8.944 -0.3153  0.1707 -0.0323
  164loPI    C1 2609   1.523   8.138  10.188  0.1002 -0.2334 -0.1376
  164loPI    C2 2610   1.234   8.029  10.442  0.2150 -0.2171  0.0012
  164loPI    C3 2611   1.203   8.372  10.239  0.1028 -0.2508 -0.0391
  164loPI   PO4 2612   1.670   7.902  10.073 -0.1744 -0.0449 -0.2061
  164loPI   GL1 2613   1.601   7.764   9.655 -0.1646 -0.3847  0.2566
  164loPI   GL2 2614   1.621   8.109   9.585 -0.1349 -0.1617 -0.0026
  164loPI   C1A 2615   1.442   7.564   9.356 -0.0899 -0.0559  0.0523
  164loPI   C2A 2616   1.381   7.595   8.888 -0.1368 -0.0332 -0.3147
  164loPI   C3A 2617   1.433   7.671   8.466 -0.0183 -0.1367 -0.2060
  164loPI   C4A 2618   1.522   7.753   8.106 -0.0037 -0.0632 -0.2101
  164loPI   C5A 2619   1.605   7.712   7.763  0.0647  0.1370  0.3135
  164loPI   C6A 2620   1.666   7.570   7.363 -0.3337 -0.1590  0.2739
  164loPI   C1B 2621   1.741   7.920   9.174 -0.1157 -0.0729 -0.0272
  164loPI   C2B 2622   1.737   7.916   8.746  0.1205 -0.0721 -0.1680
  164loPI   C3B 2623   1.820   8.083   8.310  0.1453 -0.4398 -0.0327
  164loPI   C4B 2624   1.931   8.076   7.906  0.1368 -0.1737 -0.0477
  165loPI    C1 2625  15.256   6.588  11.122 -0.1433 -0.0000 -0.2021
  165loPI    C2 2626  14.974   6.871  11.151 -0.1661 -0.0329 -0.1009
  165loPI    C3 2627  15.315   6.906  11.358 -0.1890 -0.1030 -0.0508
  165loPI   PO4 2628  15.258   6.460  10.867  0.1914 -0.1439 -0.2725
  165loPI   GL1 2629  15.206   6.293  10.477 -0.1115  0.0221 -0.1906
  165loPI   GL2 2630  14.972   6.160  10.458 -0.1974 -0.0866  0.0425
  165loPI   C1A 2631  15.257   6.449  10.073  0.0185  0.0153 -0.0375
  165loPI   C2A 2632  15.268   6.368   9.631 -0.1693 -0.0837  0.0844
  165loPI   C3A 2633  15.144   6.445   9.197 -0.1423  0.0761  0.1623
  165loPI   C4A 2634  15.182   6.495   8.753 -0.1996  0.3264  0.2100
  165loPI   C5A 2635  14.954   6.413   8.423 -0.3202 -0.1217  0.0970
  165loPI   C6A 2636  14.640   6.094   8.311 -0.0764 -0.1511  0.0444
  165loPI   C1B 2637  14.889   6.113   9.999 -0.1663 -0.0865  0.2295
  165loPI   C2B 2638  14.886   6.014   9.603 -0.2034 -0.1098 -0.0142
  165loPI   C3B 2639  14.769   6.148   9.186 -0.0674  0.1376  0.0837
  165loPI   C4B 2640  14.787   6.174   8.787  0.1349  0.2768  0.0685
  166loPI    C1 2641  10.923  13.905  11.320  0.1336 -0.3295 -0.0983
  166loPI    C2 2642  11.279  13.859  11.497  0.0736  0.2392  0.1949
  166loPI    C3 2643  10.945  13.868  11.718 -0.0959  0.0363 -0.0465
  166loPI   PO4 2644  10.889  13.805  11.102  0.2680 -0.2271  0.0230
  166loPI   GL1 2645  10.653  13.981  10.780 -0.1144  0.0801 -0.0077
  166loPI   GL2 2646  10.816  14.304  10.733 -0.2801 -0.0558  0.1453
  166loPI   C1A 2647  10.440  13.841  10.367 -0.3042  0.2216  0.0160
  166loPI   C2A 2648  10.390  13.920   9.811  0.1952 -0.2586  0.0364
  166loPI   C3A 2649  10.434  13.914   9.354 -0.1733 -0.0295  0.0844
  166loPI   C4A 2650  10.409  13.701   8.927  0.2916  0.0113  0.1643
  166loPI   C5A 2651  10.809  13.503   8.710 -0.4599  0.1988 -0.1232
  166loPI   C6A 2652  10.878  13.094   8.642  0.2442  0.0175 -0.0280
  166loPI   C1B 2653  10.977  14.196  10.414 -0.0362 -0.2168 -0.1800
  166loPI   C2B 2654  10.985  14.204   9.984  0.0133  0.0998 -0.0237
  166loPI   C3B 2655  10.735  14.300   9.575  0.1778  0.2585 -0.1732
  166loPI   C4B 2656  10.782  14.242   9.163  0.0906  0.0173  0.1152
  167loPI    C1 2657  11.923   7.260  11.186 -0.2315  0.0149  0.1421
  167loPI    C2 2658  12.162   6.983  11.346  0.0263  0.0880 -0.1074
  167loPI    C3 2659  12.024   7.282  11.573  0.0438 -0.0401  0.0753
  167loPI   PO4 2660  12.001   7.255  10.932 -0.1730  0.1356  0.1295
  167loPI   GL1 2661  11.990   7.483  10.519 -0.0470  0.0261  0.3474
  167loPI   GL2 2662  11.816   7.701  10.402 -0.2547  0.3573  0.0349
  167loPI   C1A 2663  12.216   7.418  10.178  0.1339 -0.2065 -0.0641
  167loPI   C2A 2664  12.237   7.443   9.694  0.0145 -0.2827 -0.0339
  167loPI   C3A 2665  12.165   7.488   9.268  0.1381 -0.0908 -0.0433
  167loPI   C4A 2666  12.064   7.446   8.849  0.1310 -0.1283 -0.1198
  167loPI   C5A 2667  12.060   7.438   8.432 -0.2557  0.2803  0.1134
  167loPI   C6A 2668  12.145   7.271   8.037  0.2269 -0.2032  0.0058
  167loPI   C1B 2669  11.657   7.670  10.004 -0.0979  0.1865  0.0717
  167loPI   C2B 2670  11.795   7.651   9.496  0.0204  0.3604 -0.0935
  167loPI   C3B 2671  11.643   7.678   9.097 -0.0194  0.0404 -0.4175
  167loPI   C4B 2672  11.609   7.566   8.713  0.1603  0.0351 -0.1697
  168loPI    C1 2673   7.142   4.448  11.301 -0.0644  0.0035  0.0052
  168loPI    C2 2674   7.425   4.167  11.337 -0.0182  0.0344 -0.1118
  168loPI    C3 2675   7.252   4.321  11.663  0.0910  0.0060 -0.0403
  168loPI   PO4 2676   7.054   4.341  11.057  0.1020  0.0157 -0.3532
  168loPI   GL1 2677   7.182   4.330  10.606  0.1918  0.2324  0.0999
  168loPI   GL2 2678   7.029   4.643  10.621  0.0480  0.0999  0.0545
  168loPI   C1A 2679   7.098   4.328  10.164  0.1175  0.1857 -0.3341
  168loPI   C2A 2680   7.083   4.414   9.785 -0.1266  0.0027 -0.1400
  168loPI   C3A 2681   7.278   4.364   9.439 -0.2323 -0.0241  0.3476
  168loPI   C4A 2682   7.391   4.406   8.950  0.1589  0.0439  0.0578
  168loPI   C5A 2683   7.327   4.662   8.560  0.3025 -0.0016 -0.0652
  168loPI   C6A 2684   7.503   4.905   8.398  0.3518 -0.0522 -0.1736
  168loPI   C1B 2685   6.998   4.866  10.177  0.2555  0.2026 -0.1815
  168loPI   C2B 2686   7.039   4.902   9.779  0.1219  0.0455 -0.0445
  168loPI   C3B 2687   7.170   4.945   9.356  0.5271  0.0358  0.0494
  168loPI   C4B 2688   7.339   5.036   8.920 -0.0263  0.0172 -0.1916
  169loPI    C1 2689   5.824   7.938  11.015 -0.1517 -0.1526  0.0734
  169loPI    C2 2690   5.635   8.289  11.045  0.0486 -0.0433  0.0769
  169loPI    C3 2691   5.769   8.106  11.374  0.1410 -0.0134  0.0561
  169loPI   PO4 2692   6.051   8.008  10.885  0.0212  0.2651  0.3385
  169loPI   GL1 2693   5.977   8.033  10.437 -0.1249  0.1457  0.0477
  169loPI   GL2 2694   6.187   7.723  10.478  0.1228  0.0518  0.2578
  169loPI   C1A 2695   5.881   8.164  10.086 -0.0550  0.0678  0.1463
  169loPI   C2A 2696   5.925   8.100   9.658 -0.0773  0.0198  0.0725
  169loPI   C3A 2697   6.078   8.077   9.310 -0.3946 -0.1382  0.0171
  169loPI   C4A 2698   5.988   7.988   8.797  0.1856 -0.0504 -0.0696
  169loPI   C5A 2699   5.717   7.994   8.531 -0.0606  0.1458  0.0865
  169loPI   C6A 2700   5.287   7.975   8.387  0.0868 -0.1972  0.2182
  169loPI   C1B 2701   6.382   7.547  10.163  0.0945  0.0967  0.0169
  169loPI   C2B 2702   6.566   7.416   9.742  0.2976  0.0908 -0.0860
  169loPI   C3B 2703   6.605   7.461   9.286  0.2142  0.0008 -0.0599
  169loPI   C4B 2704   6.543   7.437   8.881 -0.0612 -0.1943 -0.1811
  170loPI    C1 2705  17.267  14.656  10.483  0.1366  0.2790 -0.1483
  170loPI    C2 2706  17.277  15.056  10.497  0.0039  0.2740  0.1969
  170loPI    C3 2707  16.996  14.856  10.700 -0.0686  0.0117 -0.1532
  170loPI   PO4 2708  17.172  14.542  10.269  0.1869  0.2409  0.2592
  170loPI   GL1 2709  17.330  14.417   9.857  0.1445 -0.1380 -0.1007
  170loPI   GL2 2710  17.333  14.143   9.747  0.1843 -0.3172 -0.0049
  170loPI   C1A 2711  17.501  14.540   9.507  0.0255  0.0470 -0.1755
  170loPI   C2A 2712  17.453  14.587   9.070  0.2250  0.0052 -0.0424
  170loPI   C3A 2713  17.525  14.574   8.695  0.1882  0.0507  0.1961
  170loPI   C4A 2714  17.561  14.595   8.246 -0.3211  0.1703  0.0143
  170loPI   C5A 2715  17.401  14.561   7.933  0.1375  0.0220  0.1643
  170loPI   C6A 2716  17.000  14.382   7.809  0.2650  0.0604  0.0124
  170loPI   C1B 2717  17.203  14.174   9.330 -0.3094 -0.2629  0.0913
  170loPI   C2B 2718  17.265  14.164   8.852 -0.0242  0.1136  0.0927
  170loPI   C3B 2719  17.321  14.143   8.418  0.1183 -0.3249 -0.0860
  170loPI   C4B 2720  17.308  14.077   8.047 -0.2068 -0.2281  0.1652
  171loPI    C1 2721   4.783  12.867  10.891 -0.0245  0.0130  0.0337
  171loPI    C2 2722   4.405  12.874  11.022  0.0774  0.1434  0.3305
  171loPI    C3 2723   4.674  12.637  11.199  0.0549 -0.2359 -0.1210
  171loPI   PO4 2724   4.824  12.784  10.627  0.2876 -0.1366  0.1017
  171loPI   GL1 2725   5.085  12.818  10.344  0.1240 -0.0514 -0.3106
  171loPI   GL2 2726   5.407  12.708  10.245  0.4725  0.2124  0.0416
  171loPI   C1A 2727   4.932  12.833   9.876 -0.3805 -0.0740  0.1197
  171loPI   C2A 2728   4.921  12.789   9.423  0.1666  0.0966  0.1969
  171loPI   C3A 2729   5.024  12.792   9.064  0.1524  0.0830  0.2920
  171loPI   C4A 2730   4.990  12.822   8.638 -0.0230 -0.1261  0.3749
  171loPI   C5A 2731   4.977  12.670   8.203  0.0378 -0.3033 -0.2271
  171loPI   C6A 2732   4.584  12.766   7.961  0.0417  0.0369 -0.0542
  171loPI   C1B 2733   5.365  12.683   9.762  0.0173  0.0748  0.0940
  171loPI   C2B 2734   5.450  12.625   9.325  0.0111 -0.2563 -0.1621
  171loPI   C3B 2735   5.547  12.574   8.879 -0.3699  0.0054  0.1657
  171loPI   C4B 2736   5.520  12.650   8.467 -0.1729 -0.0382  0.1841
  172loPI    C1 2737   1.003  12.955  10.217 -0.2142 -0.1972 -0.0016
  172loPI    C2 2738   1.264  12.711  10.397 -0.0446  0.0521  0.0964
  172loPI    C3 2739   1.043  12.963  10.615 -0.1752  0.0297 -0.0088
  172loPI   PO4 2740   1.135  13.094   9.906 -0.2489 -0.0122 -0.1574
  172loPI   GL1 2741   1.431  12.961   9.537  0.0370 -0.0147  0.0555
  172loPI   GL2 2742   1.566  13.259   9.654  0.2557 -0.0452  0.1556
  172loPI   C1A 2743   1.453  12.955   9.101  0.1793 -0.2444  0.2101
  172loPI   C2A 2744   1.598  12.829   8.709 -0.0215 -0.2197 -0.1855
  172loPI   C3A 2745   1.585  12.696   8.272 -0.0320  0.0727  0.0830
  172loPI   C4A 2746   1.736  12.697   7.731 -0.2405  0.0009 -0.0843
  172loPI   C5A 2747   1.736  12.850   7.453 -0.1374  0.2424  0.0615
  172loPI   C6A 2748   1.330  13.023   7.375 -0.3010 -0.0514 -0.0668
  172loPI   C1B 2749   1.730  13.350   9.196 -0.3458 -0.1661  0.1618
  172loPI   C2B 2750   1.781  13.357   8.735  0.2407  0.1628 -0.0229
  172loPI   C3B 2751   1.603  13.262   8.274  0.0790  0.2473 -0.0947
  172loPI   C4B 2752   1.801  13.129   7.898 -0.0113 -0.2114  0.0305
  173loPI    C1 2753  15.277   4.327  11.052  0.0045 -0.0476 -0.1191
  173loPI    C2 2754  15.395   3.959  11.154  0.1291  0.0272  0.0102
  173loPI    C3 2755  15.119   4.148  11.374  0.2046  0.0850  0.0556
  173loPI   PO4 2756  15.233   4.221  10.745  0.2218  0.1127 -0.3516
  173loPI   GL1 2757  14.947   4.371  10.414 -0.0109  0.1470 -0.1153
  173loPI   GL2 2758  14.858   3.998  10.444 -0.2689  0.0361 -0.3047
  173loPI   C1A 2759  14.817   4.199   9.966  0.3403  0.0235  0.3513
  173loPI   C2A 2760  14.764   4.172   9.576  0.0460  0.0892  0.1809
  173loPI   C3A 2761  14.687   4.208   9.167  0.3546  0.0222 -0.2658
  173loPI   C4A 2762  14.663   4.261   8.702  0.0638  0.0683 -0.2151
  173loPI   C5A 2763  14.723   4.460   8.326 -0.1031  0.1870  0.1255
  173loPI   C6A 2764  14.738   4.080   7.980  0.2172 -0.1838  0.1155
  173loPI   C1B 2765  14.560   3.914  10.240  0.2451 -0.0703  0.1271
  173loPI   C2B 2766  14.421   3.875   9.801 -0.0018  0.1362 -0.0066
  173loPI   C3B 2767  14.377   3.909   9.384  0.2299  0.0270 -0.0937
  173loPI   C4B 2768  14.341   3.930   8.872 -0.1384  0.1105 -0.1632
  174loPI    C1 2769   9.482  14.339  11.318 -0.0884 -0.1381 -0.1227
  174loPI    C2 2770   9.145  14.379  11.531 -0.0843  0.0782 -0.1546
  174loPI    C3 2771   9.272  14.015  11.424 -0.1673 -0.0221  0.0817
  174loPI   PO4 2772   9.475  14.557  11.122  0.0775  0.1374  0.0606
  174loPI   GL1 2773   9.527  14.494  10.671  0.3060  0.0612 -0.2033
  174loPI   GL2 2774   9.856  14.364  10.728  0.2719  0.1255 -0.1249
  174loPI   C1A 2775   9.400  14.617  10.236 -0.0138 -0.1530  0.0191
  174loPI   C2A 2776   9.383  14.724   9.784  0.0754 -0.3588 -0.0998
  174loPI   C3A 2777   9.346  14.682   9.245 -0.2381  0.0622 -0.1798
  174loPI   C4A 2778   9.544  14.715   8.827 -0.1899  0.2181  0.1621
  174loPI   C5A 2779   9.831  14.725   8.583 -0.0184 -0.1822  0.0977
  174loPI   C6A 2780  10.231  14.816   8.648  0.0546 -0.3003 -0.0755
  174loPI   C1B 2781   9.875  14.536  10.264 -0.2915  0.0937  0.1788
  174loPI   C2B 2782   9.840  14.508   9.905 -0.1620  0.1482 -0.1122
  174loPI   C3B 2783   9.792  14.555   9.455 -0.0127  0.0530 -0.1589
  174loPI   C4B 2784   9.976  14.578   9.051 -0.0094 -0.0964 -0.0889
  175loPI    C1 2785  17.151   1.783  10.501 -0.0714  0.0734 -0.2340
  175loPI    C2 2786  17.096   1.402  10.609 -0.1640  0.0556 -0.3422
  175loPI    C3 2787  16.957   1.698  10.840 -0.3845  0.0174 -0.4240
  175loPI   PO4 2788  17.167   1.801  10.268 -0.2410  0.3040  0.1601
  175loPI   GL1 2789  16.887   1.847   9.917  0.5066  0.1457  0.0209
  175loPI   GL2 2790  17.186   1.697   9.778 -0.0480  0.0169 -0.2880
  175loPI   C1A 2791  16.643   2.090   9.559 -0.1332  0.0141  0.0609
  175loPI   C2A 2792  16.543   2.162   9.174 -0.0076 -0.2384  0.0133
  175loPI   C3A 2793  16.378   2.258   8.751 -0.0365 -0.0417  0.2144
  175loPI   C4A 2794  16.193   2.439   8.327 -0.1260 -0.0502 -0.3300
  175loPI   C5A 2795  15.902   2.562   7.875  0.4443  0.0828 -0.1105
  175loPI   C6A 2796  15.609   2.376   7.478  0.2357 -0.0260 -0.1712
  175loPI   C1B 2797  16.824   1.663   9.487  0.1957  0.1176 -0.2675
  175loPI   C2B 2798  16.841   1.763   9.093 -0.1563 -0.1745 -0.3420
  175loPI   C3B 2799  16.610   1.855   8.710  0.2428 -0.2220 -0.3532
  175loPI   C4B 2800  16.656   2.182   8.333 -0.1775 -0.3642 -0.2768
  176loPI    C1 2801   7.778   1.963  11.239  0.2676 -0.0163 -0.0907
  176loPI    C2 2802   8.074   1.728  11.108  0.2141 -0.0721 -0.1118
  176loPI    C3 2803   7.868   1.627  11.436  0.4371  0.1362  0.0967
  176loPI   PO4 2804   7.548   1.951  11.095 -0.2005  0.2038 -0.1028
  176loPI   GL1 2805   7.370   1.907  10.763 -0.1130 -0.0907  0.2024
  176loPI   GL2 2806   7.495   2.191  10.558 -0.1316 -0.3044  0.1196
  176loPI   C1A 2807   7.135   1.798  10.427  0.1709  0.0891 -0.1952
  176loPI   C2A 2808   7.225   2.013   9.996  0.0812  0.1863 -0.3608
  176loPI   C3A 2809   7.284   1.916   9.566 -0.1134 -0.0004 -0.1760
  176loPI   C4A 2810   7.275   1.807   9.122  0.3356 -0.1124  0.0372
  176loPI   C5A 2811   7.446   1.637   8.777  0.2167  0.3936  0.3014
  176loPI   C6A 2812   7.664   1.505   8.482  0.1607 -0.3394 -0.0198
  176loPI   C1B 2813   7.530   2.319  10.271  0.3970 -0.1858 -0.0366
  176loPI   C2B 2814   7.595   2.295   9.774  0.0111 -0.2337  0.1093
  176loPI   C3B 2815   7.672   2.210   9.356  0.0473  0.1564 -0.1989
  176loPI   C4B 2816   7.684   2.041   8.986  0.0867  0.0415  0.3256
  177loPI    C1 2817   7.495   8.099  10.916 -0.0258  0.1683 -0.1426
  177loPI    C2 2818   7.879   8.100  11.029 -0.0471  0.0224 -0.0664
  177loPI    C3 2819   7.601   8.267  11.263 -0.0265  0.1575 -0.1372
  177loPI   PO4 2820   7.416   7.736  10.946 -0.1016 -0.2480 -0.1984
  177loPI   GL1 2821   7.455   7.395  10.652 -0.1630 -0.1989  0.1766
  177loPI   GL2 2822   7.303   7.730  10.469  0.2570 -0.3333 -0.0606
  177loPI   C1A 2823   7.539   7.063  10.362  0.1115  0.2256  0.1465
  177loPI   C2A 2824   7.646   6.970   9.894  0.4504 -0.0130  0.2512
  177loPI   C3A 2825   7.634   7.043   9.414 -0.3255 -0.1309 -0.1017
  177loPI   C4A 2826   7.550   7.206   8.897 -0.1691 -0.1060 -0.0895
  177loPI   C5A 2827   7.842   7.157   8.606  0.2007 -0.0465  0.1118
  177loPI   C6A 2828   8.299   6.888   8.518  0.0614  0.0217  0.1275
  177loPI   C1B 2829   7.371   7.497  10.087  0.0552  0.1527  0.1967
  177loPI   C2B 2830   7.472   7.536   9.628 -0.2910 -0.4010 -0.0513
  177loPI   C3B 2831   7.559   7.622   9.151  0.2481  0.2429 -0.3104
  177loPI   C4B 2832   7.634   7.712   8.645 -0.1144 -0.1057  0.1620
  178loPI    C1 2833  11.286   4.026  11.516 -0.2497 -0.0045 -0.1620
  178loPI    C2 2834  11.277   3.627  11.547 -0.0076  0.0133  0.2061
  178loPI    C3 2835  11.066   3.852  11.802  0.2054  0.1279  0.2837
  178loPI   PO4 2836  11.264   4.082  11.232  0.2378 -0.0973 -0.2904
  178loPI   GL1 2837  11.630   3.943  10.843 -0.0417 -0.2083  0.1800
  178loPI   GL2 2838  11.609   4.249  10.871  0.1979 -0.0076 -0.0390
  178loPI   C1A 2839  11.540   3.892  10.378  0.4630  0.0825 -0.1005
  178loPI   C2A 2840  11.610   4.025  10.025  0.0949  0.0105 -0.1376
  178loPI   C3A 2841  11.516   3.864   9.614  0.0793  0.0561  0.1727
  178loPI   C4A 2842  11.478   3.900   9.155 -0.1376  0.2701  0.0078
  178loPI   C5A 2843  11.482   3.857   8.672 -0.0700 -0.2258 -0.3803
  178loPI   C6A 2844  11.114   3.711   8.435 -0.1186 -0.2679 -0.1485
  178loPI   C1B 2845  11.601   4.359  10.482 -0.1329  0.1821  0.0217
  178loPI   C2B 2846  11.479   4.449  10.096  0.0379 -0.4053 -0.1414
  178loPI   C3B 2847  11.446   4.357   9.678  0.0088 -0.1333  0.0203
  178loPI   C4B 2848  11.409   4.411   9.265  0.0825  0.0659 -0.0697
  179loPI    C1 2849  10.511  10.883  10.870 -0.1669 -0.0642 -0.0923
  179loPI    C2 2850  10.618  11.087  11.197 -0.1904 -0.1168 -0.0518
  179loPI    C3 2851  10.736  10.708  11.150  0.0193 -0.0321 -0.2203
  179loPI   PO4 2852  10.617  10.981  10.655  0.1613  0.0270 -0.0161
  179loPI   GL1 2853  10.754  10.918  10.321  0.0703  0.3729 -0.1680
  179loPI   GL2 2854  10.739  11.224  10.264  0.0960 -0.0581 -0.1036
  179loPI   C1A 2855  10.635  10.542  10.017 -0.4095  0.1151 -0.1014
  179loPI   C2A 2856  10.627  10.545   9.596 -0.1017 -0.1576 -0.1941
  179loPI   C3A 2857  10.605  10.475   9.141  0.2911  0.3321 -0.1042
  179loPI   C4A 2858  10.667  10.439   8.782 -0.0567 -0.1874  0.2882
  179loPI   C5A 2859  10.665  10.231   8.348 -0.1789 -0.1507  0.1439
  179loPI   C6A 2860  10.515  10.095   7.966  0.0654 -0.1858  0.0587
  179loPI   C1B 2861  10.622  10.993   9.791 -0.1508  0.1127  0.1604
  179loPI   C2B 2862  10.614  10.950   9.308 -0.1161  0.1532 -0.1984
  179loPI   C3B 2863  10.481  10.938   8.944  0.3487 -0.0123 -0.0008
  179loPI   C4B 2864  10.456  10.908   8.621 -0.0382 -0.1546  0.1180
  180loPI    C1 2865   4.485  15.911  11.021 -0.0334  0.0826  0.1277
  180loPI    C2 2866   4.827  16.044  10.862 -0.0806  0.0860  0.0281
  180loPI    C3 2867   4.670  16.227  11.182 -0.0502  0.1566  0.0031
  180loPI   PO4 2868   4.359  15.927  10.771  0.2361  0.1716  0.1047
  180loPI   GL1 2869   4.483  16.132  10.423  0.0742  0.3528 -0.0348
  180loPI   GL2 2870   4.759  16.254  10.406  0.1992 -0.2134  0.0552
  180loPI   C1A 2871   4.270  16.296  10.163  0.0216 -0.3879 -0.1912
  180loPI   C2A 2872   4.259  16.392   9.684 -0.0155  0.0276  0.0696
  180loPI   C3A 2873   4.065  16.269   9.256 -0.4386  0.0916  0.0684
  180loPI   C4A 2874   3.831  16.071   8.902  0.3222 -0.0072 -0.0406
  180loPI   C5A 2875   3.742  16.037   8.484 -0.0614  0.0929 -0.0318
  180loPI   C6A 2876   3.775  15.855   8.031 -0.0697  0.0465 -0.0072
  180loPI   C1B 2877   4.663  16.127   9.931  0.0987  0.0695  0.0781
  180loPI   C2B 2878   4.696  16.105   9.423  0.1264 -0.0601  0.0758
  180loPI   C3B 2879   4.785  16.152   8.969 -0.2607 -0.3315 -0.1103
  180loPI   C4B 2880   4.816  16.176   8.560 -0.0544  0.4461  0.0308
  181loPI    C1 2881  16.003  14.666  10.611 -0.1027 -0.0758  0.0245
  181loPI    C2 2882  15.919  14.294  10.733 -0.0068 -0.1576 -0.1552
  181loPI    C3 2883  15.988  14.582  11.002 -0.1024 -0.2640 -0.0151
  181loPI   PO4 2884  15.834  14.662  10.329  0.0866 -0.0320  0.2054
  181loPI   GL1 2885  15.586  14.635  10.083 -0.4071 -0.0976 -0.2606
  181loPI   GL2 2886  15.546  14.989  10.019 -0.0266  0.0425  0.2155
  181loPI   C1A 2887  15.481  14.522   9.665  0.0661  0.2900  0.3260
  181loPI   C2A 2888  15.338  14.610   9.378  0.0503 -0.2320  0.1604
  181loPI   C3A 2889  15.254  14.647   8.936 -0.0976  0.0976  0.0167
  181loPI   C4A 2890  15.443  14.660   8.606 -0.0782  0.2535 -0.3128
  181loPI   C5A 2891  15.488  14.419   8.207 -0.1125 -0.1241 -0.1776
  181loPI   C6A 2892  15.224  14.400   7.837 -0.0184  0.0220  0.0217
  181loPI   C1B 2893  15.423  15.031   9.632  0.1769  0.0721 -0.0197
  181loPI   C2B 2894  15.305  15.099   9.226  0.1696  0.0247 -0.0489
  181loPI   C3B 2895  15.326  15.151   8.776  0.3950 -0.3645  0.0567
  181loPI   C4B 2896  15.479  15.159   8.333  0.1572 -0.1211 -0.1598
  182loPI    C1 2897  17.034  17.326  10.677  0.0998 -0.3319 -0.2701
  182loPI    C2 2898  17.387  17.509  10.717  0.0036 -0.1602 -0.1964
  182loPI    C3 2899  17.219  17.328  11.032 -0.0713 -0.0617 -0.1796
  182loPI   PO4 2900  17.107  17.112  10.490 -0.2572  0.1237 -0.1535
  182loPI   GL1 2901  17.254  17.022  10.103 -0.1679  0.0510 -0.4122
  182loPI   GL2 2902  17.124  17.381  10.070 -0.3192 -0.2919  0.0370
  182loPI   C1A 2903  17.029  16.987   9.750  0.1105  0.0156 -0.0272
  182loPI   C2A 2904  17.060  17.089   9.277  0.0032 -0.0405  0.0313
  182loPI   C3A 2905  17.072  17.035   8.807  0.0453  0.2105  0.2181
  182loPI   C4A 2906  17.150  17.230   8.416  0.5371 -0.0921 -0.4372
  182loPI   C5A 2907  17.032  17.638   8.251 -0.1429 -0.3753 -0.3169
  182loPI   C6A 2908  16.839  17.930   7.938  0.0279 -0.0437  0.1500
  182loPI   C1B 2909  17.234  17.381   9.624  0.1047 -0.1721  0.1203
  182loPI   C2B 2910  17.187  17.543   9.218  0.2584  0.2424 -0.0768
  182loPI   C3B 2911  17.112  17.694   8.818  0.0487  0.1377  0.1277
  182loPI   C4B 2912  17.316  17.903   8.575 -0.0864 -0.0844 -0.0365
  183loPI    C1 2913   3.662   4.042  10.955  0.0274 -0.0983 -0.0203
  183loPI    C2 2914   3.938   3.783  11.083 -0.0216 -0.0311  0.2274
  183loPI    C3 2915   3.608   3.846  11.299 -0.0920  0.1090  0.0814
  183loPI   PO4 2916   3.801   4.195  10.830  0.1109 -0.3091  0.0364
  183loPI   GL1 2917   3.835   4.366  10.408  0.0387  0.4766 -0.0386
  183loPI   GL2 2918   3.656   4.145  10.105 -0.2036 -0.3341 -0.1679
  183loPI   C1A 2919   4.195   4.552  10.172  0.1148  0.1878  0.1215
  183loPI   C2A 2920   4.329   4.413   9.690  0.0610 -0.0552 -0.0877
  183loPI   C3A 2921   4.363   4.338   9.195  0.2394  0.1643 -0.1523
  183loPI   C4A 2922   4.413   4.277   8.889 -0.0904 -0.0612  0.2450
  183loPI   C5A 2923   4.666   4.203   8.543  0.0814  0.0629  0.0617
  183loPI   C6A 2924   5.158   4.121   8.463  0.2869 -0.0071 -0.1170
  183loPI   C1B 2925   3.659   3.998   9.696  0.2594  0.0334  0.1428
  183loPI   C2B 2926   3.725   3.951   9.229  0.1151  0.1298  0.1790
  183loPI   C3B 2927   3.781   3.817   8.868  0.1978  0.2282  0.3936
  183loPI   C4B 2928   3.929   3.595   8.432  0.1620  0.1566 -0.0142
  184loPI    C1 2929  11.008  15.984  11.083  0.2889 -0.0671  0.1284
  184loPI    C2 2930  10.812  16.037  11.427 -0.0248 -0.1694 -0.0301
  184loPI    C3 2931  10.921  15.669  11.314  0.0025 -0.1460 -0.0804
  184loPI   PO4 2932  10.798  16.186  10.945  0.1662 -0.0112  0.2174
  184loPI   GL1 2933  10.877  16.424  10.626  0.0421  0.0827  0.1250
  184loPI   GL2 2934  11.005  16.021  10.535  0.0966  0.0498 -0.1081
  184loPI   C1A 2935  10.760  16.600  10.248  0.0125 -0.0632  0.0750
  184loPI   C2A 2936  10.747  16.663   9.819  0.1554 -0.0677 -0.2588
  184loPI   C3A 2937  10.744  16.544   9.516 -0.3070  0.1250  0.3917
  184loPI   C4A 2938  10.734  16.599   9.168 -0.1416 -0.1703  0.1044
  184loPI   C5A 2939  10.793  16.682   8.779 -0.0125  0.4583 -0.0863
  184loPI   C6A 2940  10.952  16.702   8.370  0.0984 -0.0993  0.1588
  184loPI   C1B 2941  10.923  16.149  10.154 -0.2187 -0.0511  0.1822
  184loPI   C2B 2942  10.798  16.105   9.748 -0.0571 -0.2416  0.1060
  184loPI   C3B 2943  10.890  16.120   9.246  0.4309  0.0642 -0.0820
  184loPI   C4B 2944  10.827  16.184   8.880 -0.1971 -0.0952 -0.1146
  185loPI    C1 2945  15.864  10.651  10.585  0.0211 -0.0302  0.1448
  185loPI    C2 2946  16.130  10.363  10.660 -0.0269 -0.1393 -0.0937
  185loPI    C3 2947  15.816  10.413  10.902  0.0726 -0.1749  0.0448
  185loPI   PO4 2948  15.803  10.618  10.333  0.2000 -0.0252  0.0232
  185loPI   GL1 2949  15.603  10.436   9.984  0.1656 -0.0248  0.0863
  185loPI   GL2 2950  15.381  10.278  10.095  0.0166  0.1139  0.0487
  185loPI   C1A 2951  15.288  10.588   9.599  0.0110  0.0030  0.0092
  185loPI   C2A 2952  15.341  10.676   9.212 -0.0031  0.1206 -0.0942
  185loPI   C3A 2953  15.230  10.792   8.834 -0.2416 -0.1942 -0.0456
  185loPI   C4A 2954  15.096  10.887   8.420  0.1314 -0.0835 -0.3055
  185loPI   C5A 2955  15.331  11.001   8.011  0.2850  0.0384  0.0169
  185loPI   C6A 2956  15.522  11.330   7.976 -0.0999  0.1027  0.0176
  185loPI   C1B 2957  14.958  10.348   9.863 -0.1892 -0.0022 -0.0447
  185loPI   C2B 2958  14.843  10.429   9.365 -0.0156 -0.1441  0.1337
  185loPI   C3B 2959  14.925  10.441   9.036  0.0667 -0.2612 -0.0352
  185loPI   C4B 2960  14.805  10.446   8.598  0.1190 -0.3038  0.0919
  186loPI    C1 2961  14.337  11.847  10.948 -0.0969 -0.1859  0.0824
  186loPI    C2 2962  14.075  12.148  10.924  0.1642  0.0453  0.0786
  186loPI    C3 2963  14.418  12.197  11.123  0.1340 -0.3084  0.2252
  186loPI   PO4 2964  14.289  11.737  10.740  0.3553  0.2712  0.0616
  186loPI   GL1 2965  14.035  11.965  10.447 -0.0918 -0.1049 -0.1336
  186loPI   GL2 2966  14.189  12.244  10.213 -0.2143 -0.1346  0.0978
  186loPI   C1A 2967  13.859  11.789  10.133  0.3163 -0.2436 -0.0368
  186loPI   C2A 2968  13.740  11.667   9.760  0.2344  0.0201 -0.3595
  186loPI   C3A 2969  13.732  11.672   9.349  0.1137  0.2335 -0.2068
  186loPI   C4A 2970  13.581  11.801   8.963  0.0379  0.0186  0.1194
  186loPI   C5A 2971  13.505  11.796   8.509  0.3234  0.1689 -0.2147
  186loPI   C6A 2972  13.309  12.166   8.359  0.0974  0.1046 -0.0888
  186loPI   C1B 2973  14.190  12.045   9.824  0.4491  0.0681 -0.0220
  186loPI   C2B 2974  14.160  12.045   9.389  0.0537  0.0287  0.0334
  186loPI   C3B 2975  13.992  12.057   8.927 -0.1076 -0.0119  0.1015
  186loPI   C4B 2976  13.833  12.138   8.503  0.1829  0.1585 -0.1333
  187loPI    C1 2977  17.765   8.850  10.373 -0.1171  0.3009 -0.0238
  187loPI    C2 2978  17.740   9.136  10.651  0.0308  0.0326  0.2719
  187loPI    C3 2979  17.472   8.839  10.645 -0.0089  0.0713  0.0868
  187loPI   PO4 2980  17.808   9.014  10.139 -0.0028 -0.1133 -0.0730
  187loPI   GL1 2981  17.936   9.162   9.768 -0.1923 -0.0498 -0.5659
  187loPI   GL2 2982  17.968   8.894   9.653 -0.0683  0.1342 -0.1674
  187loPI   C1A 2983  18.158   9.248   9.374  0.1028 -0.3750 -0.3438
  187loPI   C2A 2984  18.470   9.297   9.211 -0.0584  0.1963  0.0743
  187loPI   C3A 2985  18.516   9.332   8.753 -0.0060  0.1971 -0.0197
  187loPI   C4A 2986  18.345   9.460   8.302  0.0821 -0.0497 -0.0247
  187loPI   C5A 2987  18.161   9.555   7.791  0.1307 -0.3542 -0.1799
  187loPI   C6A 2988  18.131   9.526   7.392  0.3275 -0.0552  0.1660
  187loPI   C1B 2989  17.800   8.928   9.158 -0.0038  0.2408 -0.0942
  187loPI   C2B 2990  17.643   9.025   8.740  0.1933  0.3272 -0.1768
  187loPI   C3B 2991  17.632   9.207   8.304 -0.0382 -0.1485 -0.2950
  187loPI   C4B 2992  17.864   9.558   8.182  0.0405 -0.1901  0.1227
  188loPI    C1 2993   1.858   3.064  10.204 -0.0447  0.0983  0.0009
  188loPI    C2 2994   1.625   3.065  10.529  0.0322 -0.2035  0.0599
  188loPI    C3 2995   1.598   2.766  10.265  0.0165  0.0063 -0.1796
  188loPI   PO4 2996   1.923   3.209  10.041  0.0290  0.0593  0.0986
  188loPI   GL1 2997   1.963   3.473   9.710 -0.2840 -0.0652  0.1369
  188loPI   GL2 2998   1.605   3.296   9.627  0.0537 -0.1463 -0.1710
  188loPI   C1A 2999   2.041   3.355   9.295  0.1243  0.0559  0.3512
  188loPI   C2A 3000   2.060   3.385   8.827 -0.1932 -0.2196  0.0133
  188loPI   C3A 3001   1.986   3.045   8.559  0.1590  0.2141 -0.0437
  188loPI   C4A 3002   2.138   2.999   8.153  0.1061  0.0557 -0.0497
  188loPI   C5A 3003   2.049   3.010   7.801 -0.1007  0.4001 -0.7004
  188loPI   C6A 3004   1.641   3.236   7.671 -0.0077 -0.1748  0.0177
  188loPI   C1B 3005   1.553   3.337   9.219  0.1112 -0.1891 -0.0600
  188loPI   C2B 3006   1.590   3.285   8.816  0.0972  0.0242 -0.1448
  188loPI   C3B 3007   1.504   3.041   8.481 -0.1952 -0.1389  0.1705
  188loPI   C4B 3008   1.615   2.917   8.074 -0.0941  0.0872 -0.0265
  189loPI    C1 3009   3.079   5.030  10.755 -0.1036 -0.1567 -0.0695
  189loPI    C2 3010   2.794   4.750  10.774 -0.1507 -0.1032  0.0226
  189loPI    C3 3011   2.735   5.106  10.946 -0.0192 -0.0998  0.0613
  189loPI   PO4 3012   3.171   4.991  10.506  0.0294 -0.3389  0.0224
  189loPI   GL1 3013   3.421   5.176  10.133  0.2698  0.1917  0.1735
  189loPI   GL2 3014   2.989   5.244  10.033  0.2233 -0.2222 -0.0905
  189loPI   C1A 3015   3.287   4.910   9.835  0.0379 -0.0392  0.1440
  189loPI   C2A 3016   3.350   4.850   9.407 -0.2073  0.2233  0.0557
  189loPI   C3A 3017   3.415   4.730   9.051 -0.0651  0.3683 -0.2143
  189loPI   C4A 3018   3.445   4.784   8.689 -0.2048 -0.2147 -0.3127
  189loPI   C5A 3019   3.567   4.427   8.371  0.1151  0.2060 -0.1062
  189loPI   C6A 3020   3.710   4.028   8.374  0.3091 -0.1820 -0.1904
  189loPI   C1B 3021   3.156   5.355   9.661  0.0169 -0.0057 -0.2715
  189loPI   C2B 3022   3.344   5.372   9.237 -0.1592  0.0934 -0.5246
  189loPI   C3B 3023   3.459   5.298   8.823 -0.1123  0.0694 -0.2073
  189loPI   C4B 3024   3.326   5.179   8.365 -0.1672  0.2595  0.2114
  190loPI    C1 3025   1.429   4.300  10.154 -0.2119 -0.2234 -0.0353
  190loPI    C2 3026   1.739   4.091  10.295 -0.0652 -0.0662 -0.1216
  190loPI    C3 3027   1.597   4.402  10.502 -0.0802 -0.0563 -0.1466
  190loPI   PO4 3028   1.502   4.373   9.919  0.0448  0.2109  0.0866
  190loPI   GL1 3029   1.515   4.319   9.454  0.2515 -0.1849 -0.1238
  190loPI   GL2 3030   1.228   4.481   9.421  0.0144  0.2537 -0.0101
  190loPI   C1A 3031   1.325   4.113   9.147  0.0088  0.3955  0.0716
  190loPI   C2A 3032   1.430   4.045   8.742  0.1603 -0.0578  0.3110
  190loPI   C3A 3033   1.532   3.988   8.190  0.0213 -0.1439  0.2496
  190loPI   C4A 3034   1.256   3.880   7.983 -0.0549  0.0407 -0.1178
  190loPI   C5A 3035   1.324   3.687   7.593 -0.0006  0.3805  0.1299
  190loPI   C6A 3036   1.598   3.619   7.288 -0.1915 -0.0798 -0.1870
  190loPI   C1B 3037   1.513   4.697   9.149  0.1054  0.1447 -0.0255
  190loPI   C2B 3038   1.571   4.492   8.890  0.0143  0.0469 -0.0076
  190loPI   C3B 3039   1.579   4.438   8.495 -0.2122  0.0532 -0.1901
  190loPI   C4B 3040   1.522   4.525   8.163 -0.0310  0.1152  0.0937
  191loPI    C1 3041   5.740  11.642  10.863 -0.0761  0.1148  0.0508
  191loPI    C2 3042   5.417  11.413  10.921 -0.0453 -0.0009 -0.2180
  191loPI    C3 3043   5.751  11.344  11.130 -0.0847 -0.1033 -0.1879
  191loPI   PO4 3044   5.624  11.803  10.617  0.1502  0.0821  0.2622
  191loPI   GL1 3045   5.729  11.973  10.270 -0.0298 -0.1946  0.1257
  191loPI   GL2 3046   5.448  11.782  10.138 -0.2417 -0.0339  0.0399
  191loPI   C1A 3047   6.029  12.023   9.912 -0.0283 -0.0780 -0.0103
  191loPI   C2A 3048   6.017  11.945   9.504  0.1882  0.0689  0.4598
  191loPI   C3A 3049   6.127  11.945   9.119  0.1118  0.0063 -0.1551
  191loPI   C4A 3050   6.101  11.911   8.704  0.1486 -0.1127 -0.1647
  191loPI   C5A 3051   6.078  12.078   8.286  0.0039  0.0277 -0.2122
  191loPI   C6A 3052   6.196  11.887   7.851 -0.3004 -0.0615 -0.2311
  191loPI   C1B 3053   5.497  12.072   9.755 -0.3541  0.0061 -0.3130
  191loPI   C2B 3054   5.564  12.111   9.259  0.0148  0.2148  0.1717
  191loPI   C3B 3055   5.595  12.098   8.803 -0.0204  0.1610  0.2903
  191loPI   C4B 3056   5.637  12.199   8.462  0.1569  0.1529  0.1920
  192loPI    C1 3057  15.992   3.075  10.785 -0.1019  0.1135 -0.0741
  192loPI    C2 3058  16.097   2.691  10.827  0.2410  0.1799 -0.2837
  192loPI    C3 3059  16.179   2.954  11.117 -0.0068  0.0957 -0.1337
  192loPI   PO4 3060  16.049   3.117  10.612 -0.0800 -0.3661 -0.0801
  192loPI   GL1 3061  16.001   3.259  10.140  0.0792  0.0307 -0.0800
  192loPI   GL2 3062  15.985   3.487  10.041 -0.0200 -0.2919  0.0707
  192loPI   C1A 3063  16.022   2.867   9.897 -0.0878  0.1549 -0.1088
  192loPI   C2A 3064  16.016   2.897   9.482 -0.0134  0.0435  0.0487
  192loPI   C3A 3065  15.931   2.822   9.111 -0.0165  0.0555  0.4711
  192loPI   C4A 3066  15.946   2.984   8.688 -0.2357 -0.0570  0.0215
  192loPI   C5A 3067  16.087   2.969   8.257 -0.1385  0.0676  0.2967
  192loPI   C6A 3068  15.993   3.051   7.835  0.0311 -0.0409 -0.3581
  192loPI   C1B 3069  15.774   3.355   9.622  0.1544  0.0853 -0.2383
  192loPI   C2B 3070  15.793   3.279   9.212  0.1436  0.1249 -0.2833
  192loPI   C3B 3071  15.703   3.472   8.797 -0.1091 -0.0900  0.0423
  192loPI   C4B 3072  15.699   3.289   8.303  0.0344  0.4339  0.1572
  193loPI    C1 3073  13.974   7.865  11.270  0.2193 -0.0025 -0.3199
  193loPI    C2 3074  14.350   7.748  11.341  0.1483  0.0891  0.2596
  193loPI    C3 3075  14.081   7.744  11.636 -0.3019  0.0602 -0.1389
  193loPI   PO4 3076  13.911   7.698  10.968 -0.2208 -0.1271  0.0445
  193loPI   GL1 3077  13.600   7.668  10.625 -0.0336 -0.0379 -0.3973
  193loPI   GL2 3078  13.597   8.098  10.694  0.1379  0.1816 -0.1343
  193loPI   C1A 3079  13.532   7.494  10.280 -0.2028 -0.3728 -0.0373
  193loPI   C2A 3080  13.545   7.411   9.879  0.0007  0.0545 -0.0602
  193loPI   C3A 3081  13.580   7.476   9.320 -0.3938 -0.1499  0.0148
  193loPI   C4A 3082  13.560   7.278   8.983 -0.2018 -0.1571  0.1603
  193loPI   C5A 3083  13.665   7.034   8.567  0.0117  0.0314 -0.3638
  193loPI   C6A 3084  13.619   7.098   8.057  0.2199  0.0706  0.0582
  193loPI   C1B 3085  13.520   7.996  10.228  0.2863  0.0479  0.2213
  193loPI   C2B 3086  13.501   7.957   9.786 -0.3706 -0.3722 -0.1256
  193loPI   C3B 3087  13.474   7.999   9.338  0.0576  0.2173 -0.2087
  193loPI   C4B 3088  13.466   8.026   8.959  0.0226  0.0589  0.2200
  194loPI    C1 3089   9.098  11.270  11.118  0.1309 -0.2052  0.0157
  194loPI    C2 3090   9.219  11.593  11.320 -0.3049  0.2130 -0.3677
  194loPI    C3 3091   8.922  11.367  11.463  0.0223 -0.0472 -0.0828
  194loPI   PO4 3092   9.140  11.307  10.838 -0.0938 -0.0643 -0.1472
  194loPI   GL1 3093   9.301  11.127  10.516 -0.0849  0.0454  0.3750
  194loPI   GL2 3094   8.945  11.081  10.358  0.1120 -0.4335  0.0779
  194loPI   C1A 3095   9.415  11.375  10.193  0.1714 -0.0919  0.2634
  194loPI   C2A 3096   9.416  11.384   9.719  0.0644 -0.1926  0.1098
  194loPI   C3A 3097   9.467  11.345   9.344  0.0551  0.0082  0.1296
  194loPI   C4A 3098   9.457  11.205   9.043 -0.0589  0.0774  0.2213
  194loPI   C5A 3099   9.628  11.333   8.638  0.1629 -0.2059  0.2330
  194loPI   C6A 3100   9.396  11.426   8.258 -0.0302 -0.0141  0.0458
  194loPI   C1B 3101   9.081  11.051   9.863  0.2992  0.0106 -0.0118
  194loPI   C2B 3102   9.104  11.023   9.407  0.1626  0.0732  0.2752
  194loPI   C3B 3103   9.105  10.866   8.962 -0.2294 -0.2356  0.2039
  194loPI   C4B 3104   8.930  10.876   8.479  0.0014  0.2290  0.0492
  195loPI    C1 3105   7.365  16.054  11.282  0.0150  0.0840 -0.0514
  195loPI    C2 3106   7.227  16.009  11.655  0.0162 -0.0922 -0.0716
  195loPI    C3 3107   7.606  16.122  11.593  0.0643 -0.2229 -0.0196
  195loPI   PO4 3108   7.178  16.157  11.108 -0.0363  0.0942 -0.2543
  195loPI   GL1 3109   7.251  16.135  10.663 -0.3776  0.1039  0.1432
  195loPI   GL2 3110   6.828  16.253  10.581  0.2746  0.0006  0.1048
  195loPI   C1A 3111   7.518  16.109  10.306 -0.0915 -0.1994  0.1216
  195loPI   C2A 3112   7.508  16.124   9.853 -0.1163  0.1850 -0.3492
  195loPI   C3A 3113   7.542  16.268   9.467  0.0810 -0.0977  0.2762
  195loPI   C4A 3114   7.661  16.247   9.018 -0.1020  0.1229  0.3271
  195loPI   C5A 3115   7.635  16.332   8.547  0.0265  0.0633 -0.0118
  195loPI   C6A 3116   7.344  16.195   8.304  0.2305 -0.1040  0.0378
  195loPI   C1B 3117   7.081  16.353  10.074  0.1442  0.3178  0.1301
  195loPI   C2B 3118   7.101  16.465   9.599  0.0132 -0.2754  0.0134
  195loPI   C3B 3119   7.052  16.479   9.222  0.1923 -0.1097 -0.0217
  195loPI   C4B 3120   7.139  16.428   8.786 -0.2923 -0.1743  0.0590
  196loPI    C1 3121   5.881  16.016  10.886  0.1057 -0.1010  0.2608
  196loPI    C2 3122   6.017  16.382  10.971 -0.2825  0.0880  0.0925
  196loPI    C3 3123   5.919  16.131  11.267  0.0489  0.0913  0.2096
  196loPI   PO4 3124   5.738  16.067  10.691 -0.2923  0.0851  0.0921
  196loPI   GL1 3125   5.667  16.075  10.376  0.1803 -0.1331 -0.0802
  196loPI   GL2 3126   5.642  15.831  10.192  0.2655  0.0447  0.0639
  196loPI   C1A 3127   5.521  16.308   9.974 -0.1010 -0.4475  0.0680
  196loPI   C2A 3128   5.541  16.297   9.594  0.0702 -0.1901 -0.3843
  196loPI   C3A 3129   5.571  16.328   9.181 -0.0147 -0.0527 -0.1294
  196loPI   C4A 3130   5.698  16.419   8.798 -0.0244 -0.0474  0.1185
  196loPI   C5A 3131   5.762  16.278   8.435  0.0191 -0.0941  0.2204
  196loPI   C6A 3132   5.998  16.293   8.135 -0.1412  0.2545 -0.0989
  196loPI   C1B 3133   5.643  15.795   9.751  0.3107 -0.0308  0.1515
  196loPI   C2B 3134   5.753  15.802   9.253 -0.1766  0.0011 -0.2388
  196loPI   C3B 3135   5.767  15.892   8.836  0.3128 -0.0777  0.1699
  196loPI   C4B 3136   6.056  15.777   8.474  0.2448  0.0011 -0.3996
  197loPI    C1 3137   2.172   1.565  10.380  0.2986 -0.2300 -0.1290
  197loPI    C2 3138   2.248   1.403  10.737  0.1566 -0.0319 -0.0074
  197loPI    C3 3139   1.894   1.575  10.667  0.1696 -0.1039 -0.2568
  197loPI   PO4 3140   2.263   1.451  10.199  0.0400 -0.0986  0.0610
  197loPI   GL1 3141   2.222   1.315   9.872 -0.1984  0.0654 -0.1482
  197loPI   GL2 3142   1.852   1.395   9.822 -0.0706  0.0761 -0.1975
  197loPI   C1A 3143   2.536   1.275   9.549  0.0052 -0.1307 -0.0540
  197loPI   C2A 3144   2.462   1.198   9.160 -0.0589 -0.0467 -0.0603
  197loPI   C3A 3145   2.454   1.173   8.728  0.1007  0.1848 -0.2522
  197loPI   C4A 3146   2.260   1.199   8.325  0.1140  0.0914 -0.1273
  197loPI   C5A 3147   2.256   0.985   7.991  0.2363  0.2300  0.0642
  197loPI   C6A 3148   2.269   0.557   7.858 -0.1256 -0.1110 -0.0887
  197loPI   C1B 3149   1.912   1.219   9.401  0.1119 -0.0254 -0.0373
  197loPI   C2B 3150   1.964   1.190   8.950 -0.1222 -0.2263 -0.4041
  197loPI   C3B 3151   1.885   1.359   8.621  0.2296 -0.0243 -0.4708
  197loPI   C4B 3152   1.965   1.675   8.310  0.0035 -0.3596  0.3752
  198loPI    C1 3153  15.141  15.759  10.827  0.0802 -0.1699 -0.0205
  198loPI    C2 3154  15.322  15.927  11.141  0.0083 -0.1811  0.0272
  198loPI    C3 3155  14.924  15.944  11.108  0.0339  0.0468 -0.1956
  198loPI   PO4 3156  15.184  15.886  10.601 -0.0242 -0.1140 -0.2977
  198loPI   GL1 3157  15.190  15.717  10.165  0.1366 -0.1669 -0.0291
  198loPI   GL2 3158  15.400  15.491   9.963  0.1515 -0.0139  0.1786
  198loPI   C1A 3159  15.203  16.002   9.871 -0.0943 -0.0174 -0.2027
  198loPI   C2A 3160  15.142  16.072   9.452 -0.5020  0.0419  0.1758
  198loPI   C3A 3161  15.280  16.150   8.998 -0.0331 -0.0209  0.0551
  198loPI   C4A 3162  15.394  16.202   8.550 -0.2773 -0.0571 -0.0058
  198loPI   C5A 3163  15.681  16.280   8.279 -0.2267  0.2447  0.1657
  198loPI   C6A 3164  15.946  16.579   8.063  0.0079  0.0120  0.0232
  198loPI   C1B 3165  15.296  15.493   9.517 -0.1491  0.1456  0.1488
  198loPI   C2B 3166  15.202  15.604   9.151  0.1464  0.1426 -0.4619
  198loPI   C3B 3167  15.236  15.726   8.711 -0.1444 -0.2853 -0.0841
  198loPI   C4B 3168  15.508  15.640   8.403 -0.0511  0.0985  0.1086
  199loPI    C1 3169   4.205  14.748  11.033 -0.0427 -0.1271 -0.1506
  199loPI    C2 3170   4.067  14.485  11.300 -0.0817  0.0187 -0.0257
  199loPI    C3 3171   3.877  14.833  11.246  0.1440  0.1532  0.0330
  199loPI   PO4 3172   4.331  14.602  10.857 -0.0090  0.1043 -0.1700
  199loPI   GL1 3173   4.501  14.353  10.536  0.1959  0.3284  0.4194
  199loPI   GL2 3174   4.377  14.031  10.412 -0.0537 -0.1353 -0.0625
  199loPI   C1A 3175   4.635  14.369  10.142 -0.2889  0.2077  0.4288
  199loPI   C2A 3176   4.678  14.295   9.699 -0.0435  0.0401  0.0434
  199loPI   C3A 3177   4.657  14.296   9.261  0.0967  0.0637 -0.0755
  199loPI   C4A 3178   4.735  14.398   8.823  0.1066 -0.2785  0.0124
  199loPI   C5A 3179   4.801  14.406   8.403 -0.0349 -0.1905  0.0264
  199loPI   C6A 3180   4.521  14.434   8.063  0.2076 -0.1451 -0.4343
  199loPI   C1B 3181   4.224  13.592  10.097 -0.1034  0.0110  0.1446
  199loPI   C2B 3182   4.267  13.456   9.649 -0.0958  0.1931  0.1342
  199loPI   C3B 3183   4.474  13.476   9.271 -0.0651  0.0248  0.0997
  199loPI   C4B 3184   4.437  13.527   8.813  0.2138 -0.2541 -0.0314
  200loPI    C1 3185   0.502   4.833   9.977 -0.1555 -0.0081 -0.2205
  200loPI    C2 3186   0.418   4.592  10.285  0.0955  0.0279 -0.1213
  200loPI    C3 3187   0.384   4.988  10.326  0.1261  0.0326 -0.1409
  200loPI   PO4 3188   0.615   4.679   9.835 -0.0314 -0.0532  0.0188
  200loPI   GL1 3189   0.523   4.439   9.426 -0.1721  0.0235  0.1612
  200loPI   GL2 3190   0.722   4.260   9.528 -0.1450 -0.2753  0.2139
  200loPI   C1A 3191   0.585   4.417   9.056  0.3667  0.0986  0.0572
  200loPI   C2A 3192   0.566   4.436   8.659  0.0396  0.1286  0.1048
  200loPI   C3A 3193   0.453   4.430   8.215  0.0068 -0.1319 -0.3413
  200loPI   C4A 3194   0.309   4.462   7.801  0.0784 -0.0828 -0.2262
  200loPI   C5A 3195  -0.056   4.390   7.620  0.1534 -0.0496  0.2291
  200loPI   C6A 3196  -0.489   4.509   7.721 -0.1921 -0.0298  0.0831
  200loPI   C1B 3197   0.851   4.071   9.272  0.2645 -0.0606 -0.0426
  200loPI   C2B 3198   0.905   3.961   8.859 -0.0809  0.0778 -0.1020
  200loPI   C3B 3199   0.783   4.010   8.422  0.0285 -0.0895  0.3150
  200loPI   C4B 3200   0.610   3.883   7.994  0.2442  0.0551  0.1072
  201loPI    C1 3201   2.917  12.848  10.710  0.2709  0.3753  0.1287
  201loPI    C2 3202   2.645  12.780  10.996  0.2696 -0.1586  0.0101
  201loPI    C3 3203   2.841  13.128  10.985 -0.2932  0.1765  0.1897
  201loPI   PO4 3204   2.850  12.653  10.517  0.0479 -0.0881 -0.0499
  201loPI   GL1 3205   2.983  12.326  10.287 -0.1632  0.2541  0.0974
  201loPI   GL2 3206   3.159  12.029  10.142  0.0306 -0.0320 -0.0232
  201loPI   C1A 3207   3.065  12.438   9.909  0.0635 -0.3286  0.3475
  201loPI   C2A 3208   3.037  12.406   9.546  0.0868 -0.1030 -0.3053
  201loPI   C3A 3209   3.045  12.468   9.075 -0.0070 -0.1412 -0.0257
  201loPI   C4A 3210   3.163  12.497   8.650 -0.0265 -0.3061  0.0945
  201loPI   C5A 3211   3.229  12.654   8.251 -0.0220 -0.1680  0.2318
  201loPI   C6A 3212   3.109  12.454   7.813  0.0820  0.1917  0.1246
  201loPI   C1B 3213   3.147  11.910   9.768  0.1268  0.1158  0.1755
  201loPI   C2B 3214   3.186  11.929   9.332 -0.0203 -0.1498  0.1230
  201loPI   C3B 3215   3.199  12.043   8.853  0.0736 -0.1685 -0.0230
  201loPI   C4B 3216   3.394  11.998   8.463 -0.1535  0.0208 -0.0452
  202loPI    C1 3217   8.729   5.100  11.135 -0.2336 -0.0638  0.0926
  202loPI    C2 3218   8.879   5.276  11.461 -0.0523 -0.1530  0.0587
  202loPI    C3 3219   8.712   4.914  11.488  0.1868 -0.2688  0.0117
  202loPI   PO4 3220   8.846   5.084  10.933 -0.2549 -0.0776  0.5226
  202loPI   GL1 3221   8.878   4.794  10.546  0.0606 -0.0161  0.0401
  202loPI   GL2 3222   8.585   4.662  10.631  0.0850  0.1646 -0.0969
  202loPI   C1A 3223   8.951   4.726  10.170 -0.0642  0.1941 -0.1017
  202loPI   C2A 3224   9.074   4.625   9.783  0.0021  0.1442  0.1160
  202loPI   C3A 3225   9.107   4.747   9.283  0.2063  0.2776 -0.1509
  202loPI   C4A 3226   9.195   4.734   8.791 -0.3201 -0.1375 -0.0796
  202loPI   C5A 3227   9.468   4.576   8.482  0.1294  0.0156  0.1041
  202loPI   C6A 3228   9.799   4.821   8.220  0.0565  0.1200 -0.1332
  202loPI   C1B 3229   8.617   4.388  10.352  0.1049 -0.0282  0.1290
  202loPI   C2B 3230   8.685   4.313   9.890  0.1613  0.0798 -0.2041
  202loPI   C3B 3231   8.687   4.371   9.442 -0.0516 -0.0194 -0.0607
  202loPI   C4B 3232   8.722   4.450   8.975 -0.2502 -0.1868  0.2619
  203loPI    C1 3233  17.533  13.347  10.125  0.2920 -0.0007 -0.0466
  203loPI    C2 3234  17.374  13.276  10.485  0.1439  0.0769 -0.0957
  203loPI    C3 3235  17.548  13.628  10.409  0.2296  0.0379 -0.0813
  203loPI   PO4 3236  17.709  13.181  10.058  0.0153 -0.1773 -0.1010
  203loPI   GL1 3237  17.992  13.327   9.836  0.0468 -0.1837  0.2954
  203loPI   GL2 3238  17.921  13.137   9.646  0.1658 -0.0064  0.1988
  203loPI   C1A 3239  18.080  13.665   9.552 -0.1485 -0.0118  0.0277
  203loPI   C2A 3240  18.059  13.759   9.144 -0.0284  0.1519  0.0764
  203loPI   C3A 3241  18.096  13.765   8.739 -0.0291 -0.0562 -0.2141
  203loPI   C4A 3242  17.996  13.743   8.349 -0.3327 -0.1835 -0.1528
  203loPI   C5A 3243  17.958  13.655   7.945 -0.0390 -0.2874  0.0968
  203loPI   C6A 3244  17.764  13.937   7.748  0.0679 -0.0327  0.1168
  203loPI   C1B 3245  17.826  13.320   9.273  0.1534 -0.0345  0.0105
  203loPI   C2B 3246  17.817  13.354   8.824  0.1073 -0.1218  0.0435
  203loPI   C3B 3247  17.751  13.238   8.423 -0.1178 -0.1249  0.0289
  203loPI   C4B 3248  17.867  13.163   7.998  0.1758  0.0410  0.1211
  204loPI    C1 3249  14.363   0.941  11.010 -0.2723 -0.0584 -0.2319
  204loPI    C2 3250  14.292   0.580  11.166 -0.0987 -0.0391 -0.1055
  204loPI    C3 3251  14.006   0.860  11.170 -0.0935 -0.0350  0.1908
  204loPI   PO4 3252  14.455   0.984  10.746 -0.1051 -0.0355 -0.1583
  204loPI   GL1 3253  14.332   0.970  10.314 -0.0788 -0.0290 -0.0026
  204loPI   GL2 3254  14.305   0.643  10.279 -0.0593  0.3656  0.3461
  204loPI   C1A 3255  14.160   1.105   9.970 -0.1303 -0.1041 -0.1372
  204loPI   C2A 3256  13.981   1.157   9.526 -0.0208  0.0495  0.2100
  204loPI   C3A 3257  13.964   1.118   9.088  0.0622  0.1238 -0.1873
  204loPI   C4A 3258  13.939   1.116   8.604 -0.0820 -0.1857 -0.1636
  204loPI   C5A 3259  13.696   0.988   8.219  0.0238 -0.1101  0.0272
  204loPI   C6A 3260  13.473   0.607   8.104  0.0095  0.3820 -0.1006
  204loPI   C1B 3261  14.098   0.604  10.039 -0.2277 -0.0465 -0.2123
  204loPI   C2B 3262  14.193   0.616   9.758 -0.3603  0.0477  0.1556
  204loPI   C3B 3263  14.118   0.669   9.240 -0.4123  0.3019 -0.0108
  204loPI   C4B 3264  14.123   0.617   8.893  0.0968  0.0045  0.1835
  205loPI    C1 3265  16.496   9.164  10.095 -0.1925  0.0438 -0.0948
  205loPI    C2 3266  16.781   9.314  10.332 -0.1011 -0.0856 -0.1223
  205loPI    C3 3267  16.651   8.940  10.388 -0.3638  0.0185 -0.0223
  205loPI   PO4 3268  16.414   9.375   9.989  0.1535 -0.0150 -0.0687
  205loPI   GL1 3269  16.164   9.555   9.679  0.0949  0.0230 -0.1650
  205loPI   GL2 3270  15.910   9.486   9.613 -0.3722  0.2242  0.0329
  205loPI   C1A 3271  16.301   9.540   9.255  0.1927  0.5305 -0.0417
  205loPI   C2A 3272  16.071   9.578   8.821  0.2467 -0.0945 -0.1318
  205loPI   C3A 3273  15.958   9.715   8.391  0.1064  0.0347 -0.3117
  205loPI   C4A 3274  15.619   9.768   8.119  0.0326  0.0351  0.0060
  205loPI   C5A 3275  15.569  10.143   7.796 -0.1664 -0.2402 -0.1223
  205loPI   C6A 3276  15.962  10.354   7.594 -0.0859 -0.1384 -0.0848
  205loPI   C1B 3277  15.767   9.619   9.254 -0.3705  0.1669 -0.1922
  205loPI   C2B 3278  15.555   9.670   8.813  0.0706  0.1725  0.4065
  205loPI   C3B 3279  15.373   9.792   8.570 -0.2394 -0.1305 -0.1598
  205loPI   C4B 3280  15.161   9.957   8.259 -0.1425  0.0343  0.2435
  206loPI    C1 3281   8.910   2.553  11.432 -0.1590  0.0540  0.2524
  206loPI    C2 3282   9.179   2.316  11.610 -0.2000 -0.0740  0.1451
  206loPI    C3 3283   9.207   2.713  11.646  0.0242 -0.0852  0.1051
  206loPI   PO4 3284   8.961   2.474  11.180  0.3152 -0.3425 -0.0939
  206loPI   GL1 3285   8.769   2.479  10.715  0.2128 -0.1233  0.1841
  206loPI   GL2 3286   8.414   2.524  10.726  0.0580  0.0141  0.1190
  206loPI   C1A 3287   8.980   2.242  10.348 -0.3520 -0.1041  0.2940
  206loPI   C2A 3288   9.072   2.214   9.856 -0.0138 -0.0607  0.2053
  206loPI   C3A 3289   8.981   2.332   9.440 -0.0283  0.0472  0.1002
  206loPI   C4A 3290   9.155   2.321   9.022  0.0254  0.0108 -0.1396
  206loPI   C5A 3291   9.465   2.275   8.838  0.0654 -0.0290 -0.2591
  206loPI   C6A 3292   9.757   2.131   8.562  0.1962  0.0599 -0.1303
  206loPI   C1B 3293   8.540   2.403  10.300  0.0711  0.1701  0.0941
  206loPI   C2B 3294   8.593   2.331   9.915  0.0566  0.0446 -0.5091
  206loPI   C3B 3295   8.511   2.453   9.617  0.0563  0.0505 -0.1958
  206loPI   C4B 3296   8.500   2.520   9.209 -0.1062 -0.1358  0.0073
  207loPI    C1 3297  10.663   4.295  11.130 -0.0910 -0.0445 -0.1622
  207loPI    C2 3298  10.776   3.956  11.310 -0.3717 -0.0835 -0.0551
  207loPI    C3 3299  10.422   4.121  11.397 -0.2689  0.1994 -0.1609
  207loPI   PO4 3300  10.932   4.345  11.011 -0.0891  0.2685  0.1218
  207loPI   GL1 3301  11.174   4.300  10.638 -0.0486  0.2411  0.0237
  207loPI   GL2 3302  11.000   3.960  10.608  0.1625 -0.0405  0.0568
  207loPI   C1A 3303  11.048   4.454  10.330  0.0330  0.1805  0.1778
  207loPI   C2A 3304  10.944   4.538   9.885 -0.1283  0.1674 -0.1307
  207loPI   C3A 3305  10.874   4.601   9.400 -0.0478  0.1195  0.1154
  207loPI   C4A 3306  10.787   4.592   8.950  0.2441  0.3786 -0.2170
  207loPI   C5A 3307  10.842   4.565   8.557  0.0927  0.0329 -0.0787
  207loPI   C6A 3308  11.032   4.867   8.329 -0.1799 -0.3346  0.3589
  207loPI   C1B 3309  11.114   3.987  10.169  0.0934  0.0900 -0.0121
  207loPI   C2B 3310  11.081   4.069   9.780 -0.2978  0.2795  0.0231
  207loPI   C3B 3311  11.019   4.076   9.341  0.0370  0.0481  0.0083
  207loPI   C4B 3312  10.957   4.104   8.907 -0.2500  0.1327 -0.1448
  208loPI    C1 3313  12.944  11.997  11.108 -0.2835  0.0980 -0.0658
  208loPI    C2 3314  13.134  12.273  11.327  0.1599 -0.0664 -0.2319
  208loPI    C3 3315  12.802  12.100  11.468  0.0891  0.2759  0.0360
  208loPI   PO4 3316  12.826  11.997  10.849  0.0800 -0.3004  0.0453
  208loPI   GL1 3317  12.954  12.182  10.437 -0.0168 -0.3637 -0.0460
  208loPI   GL2 3318  13.184  12.374  10.251 -0.1538  0.3633 -0.2467
  208loPI   C1A 3319  12.858  12.168   9.985  0.0085  0.4443  0.0427
  208loPI   C2A 3320  12.792  12.100   9.519  0.1057 -0.1588  0.1340
  208loPI   C3A 3321  12.706  12.201   9.173 -0.1273  0.1872 -0.1362
  208loPI   C4A 3322  12.534  12.290   8.802 -0.1119  0.2128 -0.4417
  208loPI   C5A 3323  12.045  12.450   8.627  0.0405 -0.1394  0.1907
  208loPI   C6A 3324  11.586  12.577   8.544  0.1636  0.0224  0.1952
  208loPI   C1B 3325  13.239  12.497   9.812 -0.0478  0.0559 -0.0990
  208loPI   C2B 3326  13.180  12.426   9.413  0.2073 -0.1629 -0.4416
  208loPI   C3B 3327  13.064  12.486   9.054  0.0303  0.0728 -0.5412
  208loPI   C4B 3328  12.974  12.440   8.610  0.1011  0.0381 -0.0589
  209loPI    C1 3329   6.977  12.210  10.706 -0.1917  0.0195  0.4922
  209loPI    C2 3330   6.728  12.469  10.530  0.0631 -0.0090  0.0777
  209loPI    C3 3331   7.043  12.603  10.737  0.0860  0.0158  0.0266
  209loPI   PO4 3332   6.953  12.020  10.551  0.0402  0.2498  0.1326
  209loPI   GL1 3333   6.988  11.936  10.169 -0.0881  0.3328  0.4032
  209loPI   GL2 3334   6.889  12.144   9.883 -0.3093  0.2134 -0.2344
  209loPI   C1A 3335   7.056  11.675   9.771  0.0443 -0.3591 -0.1126
  209loPI   C2A 3336   7.034  11.709   9.403 -0.0986 -0.4031  0.1586
  209loPI   C3A 3337   7.075  11.623   8.936 -0.0367 -0.0055 -0.3088
  209loPI   C4A 3338   7.256  11.617   8.470  0.2655  0.1559 -0.2467
  209loPI   C5A 3339   7.668  11.706   8.271  0.0858 -0.2025  0.1362
  209loPI   C6A 3340   8.031  11.506   8.012 -0.2908 -0.2504 -0.0104
  209loPI   C1B 3341   6.926  12.187   9.442 -0.2708  0.0934  0.1592
  209loPI   C2B 3342   7.022  12.154   8.933  0.0579  0.1100 -0.1747
  209loPI   C3B 3343   7.046  12.334   8.497 -0.0174 -0.0103 -0.3914
  209loPI   C4B 3344   7.090  12.494   8.101 -0.0661  0.3434  0.3515
  210loPI    C1 3345  11.560  15.082  11.078 -0.0805  0.0766  0.0093
  210loPI    C2 3346  11.852  15.196  11.326  0.0186 -0.1241 -0.0136
  210loPI    C3 3347  11.543  14.984  11.466  0.0411 -0.1800 -0.0481
  210loPI   PO4 3348  11.702  15.109  10.868  0.0907 -0.0110  0.1976
  210loPI   GL1 3349  11.686  15.035  10.478  0.1638  0.1499  0.1784
  210loPI   GL2 3350  11.840  14.813  10.483 -0.0286 -0.2166 -0.0780
  210loPI   C1A 3351  11.673  14.976  10.023 -0.1483  0.1057 -0.0817
  210loPI   C2A 3352  11.599  14.985   9.634 -0.4107 -0.2127 -0.0228
  210loPI   C3A 3353  11.536  14.906   9.247  0.2922  0.0887  0.1671
  210loPI   C4A 3354  11.435  14.955   8.805  0.0788  0.1081  0.1590
  210loPI   C5A 3355  11.613  15.178   8.372  0.0303 -0.2572  0.2107
  210loPI   C6A 3356  11.994  15.477   8.273  0.1186 -0.1801  0.1957
  210loPI   C1B 3357  12.129  14.717  10.202  0.0677  0.3084  0.3072
  210loPI   C2B 3358  12.070  14.773   9.738 -0.0148 -0.0224  0.0044
  210loPI   C3B 3359  12.049  14.704   9.341 -0.0273  0.1554 -0.0403
  210loPI   C4B 3360  11.947  14.805   8.910  0.0010 -0.1591 -0.1232
  211loPI    C1 3361   6.110   9.222  10.996 -0.2262 -0.1396 -0.1104
  211loPI    C2 3362   5.826   9.413  11.203 -0.0426 -0.0459  0.0578
  211loPI    C3 3363   6.177   9.326  11.376 -0.0275 -0.3060 -0.0976
  211loPI   PO4 3364   6.115   9.290  10.664  0.1158  0.2608  0.1086
  211loPI   GL1 3365   5.994   8.922  10.350 -0.1919  0.0403 -0.0633
  211loPI   GL2 3366   5.807   9.104  10.236  0.2248  0.0075 -0.0906
  211loPI   C1A 3367   6.173   8.962   9.909 -0.3271  0.1182 -0.0408
  211loPI   C2A 3368   6.282   8.863   9.511  0.3127  0.1282 -0.0491
  211loPI   C3A 3369   6.326   8.939   9.113  0.1584  0.0390 -0.0207
  211loPI   C4A 3370   6.355   8.887   8.699 -0.0959 -0.0943 -0.2068
  211loPI   C5A 3371   6.602   9.063   8.451  0.0312  0.0461  0.1469
  211loPI   C6A 3372   6.753   9.474   8.533 -0.0096 -0.0488 -0.2474
  211loPI   C1B 3373   5.716   9.124   9.756 -0.1517  0.2657 -0.0450
  211loPI   C2B 3374   5.818   9.089   9.308  0.0311 -0.1602  0.0055
  211loPI   C3B 3375   5.879   9.081   8.831  0.1263  0.2023  0.1897
  211loPI   C4B 3376   5.570   9.180   8.523 -0.0166 -0.2014  0.0551
  212loPI    C1 3377   8.779  12.086  11.155 -0.2655 -0.1573 -0.0263
  212loPI    C2 3378   9.140  12.080  11.327 -0.2266  0.0667 -0.0964
  212loPI    C3 3379   8.830  11.900  11.505 -0.1449  0.1283  0.1116
  212loPI   PO4 3380   8.814  12.278  11.013  0.0937 -0.0221  0.0606
  212loPI   GL1 3381   8.571  12.485  10.689 -0.0299 -0.0381  0.0444
  212loPI   GL2 3382   8.377  12.622  10.656  0.1974  0.0655  0.1032
  212loPI   C1A 3383   8.768  12.543  10.289  0.0430 -0.1580 -0.4963
  212loPI   C2A 3384   8.844  12.570   9.846  0.1687 -0.0483 -0.0585
  212loPI   C3A 3385   8.796  12.533   9.317  0.2019 -0.1869  0.3392
  212loPI   C4A 3386   8.810  12.456   8.933  0.0927  0.1475 -0.0793
  212loPI   C5A 3387   8.521  12.340   8.536  0.0463  0.0115 -0.0818
  212loPI   C6A 3388   8.519  11.955   8.349  0.0582  0.0552  0.1020
  212loPI   C1B 3389   8.312  12.708  10.237 -0.1348 -0.1835 -0.0303
  212loPI   C2B 3390   8.366  12.741   9.816 -0.0129 -0.0137  0.2256
  212loPI   C3B 3391   8.291  12.686   9.383 -0.3502 -0.0800 -0.0006
  212loPI   C4B 3392   8.326  12.558   8.920  0.0604  0.0523  0.0882
  213loPI    C1 3393  17.575   4.501  10.495 -0.0235  0.0893  0.2262
  213loPI    C2 3394  17.801   4.813  10.600  0.2965 -0.0841  0.0676
  213loPI    C3 3395  17.565   4.638  10.871 -0.0184  0.3966  0.1172
  213loPI   PO4 3396  17.708   4.364  10.345 -0.1178  0.2259  0.0192
  213loPI   GL1 3397  17.757   4.461   9.892  0.1111 -0.0571  0.1255
  213loPI   GL2 3398  17.919   4.522   9.720 -0.1100 -0.3415 -0.1647
  213loPI   C1A 3399  17.401   4.693   9.546 -0.0678  0.5406 -0.2319
  213loPI   C2A 3400  17.300   4.669   9.077  0.1388  0.4381  0.3230
  213loPI   C3A 3401  17.341   4.763   8.597  0.1043 -0.2769 -0.4083
  213loPI   C4A 3402  17.224   4.792   8.164 -0.1821  0.2357 -0.0435
  213loPI   C5A 3403  16.856   4.722   8.006  0.1290  0.2321 -0.2094
  213loPI   C6A 3404  16.558   4.415   7.776  0.2577 -0.0016  0.4649
  213loPI   C1B 3405  17.819   4.577   9.355  0.1067  0.2188 -0.0313
  213loPI   C2B 3406  17.924   4.547   8.932 -0.1850 -0.0953 -0.1252
  213loPI   C3B 3407  17.833   4.527   8.576  0.3500 -0.0862  0.0154
  213loPI   C4B 3408  17.695   4.591   8.096  0.0429 -0.3608 -0.0969
  214loPI    C1 3409   2.543  12.105  10.458 -0.0740  0.2700  0.1079
  214loPI    C2 3410   2.426  11.963  10.813 -0.2756  0.2904  0.0508
  214loPI    C3 3411   2.703  12.252  10.795  0.0635 -0.0195  0.1717
  214loPI   PO4 3412   2.587  11.929  10.291 -0.0697 -0.1145 -0.1385
  214loPI   GL1 3413   2.388  11.727   9.898  0.0247  0.1531 -0.0536
  214loPI   GL2 3414   2.660  11.592   9.852  0.1962 -0.0749 -0.1833
  214loPI   C1A 3415   2.230  11.682   9.555  0.1059  0.1013 -0.2734
  214loPI   C2A 3416   2.372  11.543   9.152  0.0423 -0.2294 -0.1916
  214loPI   C3A 3417   2.434  11.545   8.728  0.3403 -0.0347 -0.1833
  214loPI   C4A 3418   2.577  11.377   8.290 -0.0420 -0.1958 -0.0568
  214loPI   C5A 3419   2.679  11.172   7.985 -0.0534 -0.2037  0.0652
  214loPI   C6A 3420   3.115  11.092   7.837 -0.0493  0.1708 -0.1630
  214loPI   C1B 3421   2.802  11.671   9.407  0.2039  0.2770  0.1058
  214loPI   C2B 3422   2.854  11.648   8.961  0.1521  0.2639  0.2879
  214loPI   C3B 3423   2.879  11.822   8.525  0.1032 -0.0497  0.2189
  214loPI   C4B 3424   2.972  12.100   8.173 -0.0293  0.0402 -0.1158
  215loPI    C1 3425   1.652  11.960  10.405  0.0466  0.1021  0.0312
  215loPI    C2 3426   1.281  11.965  10.554  0.1227 -0.1291  0.2342
  215loPI    C3 3427   1.588  11.856  10.786  0.2732 -0.2721 -0.0279
  215loPI   PO4 3428   1.639  12.181  10.208 -0.1704  0.2009  0.1164
  215loPI   GL1 3429   1.674  12.143   9.741  0.2318  0.2930  0.0242
  215loPI   GL2 3430   1.998  12.087   9.698  0.2845 -0.0845 -0.0033
  215loPI   C1A 3431   1.503  12.080   9.315 -0.0494  0.1363  0.0915
  215loPI   C2A 3432   1.559  11.902   8.962 -0.0757 -0.0583  0.0148
  215loPI   C3A 3433   1.687  11.771   8.563  0.2685 -0.1040 -0.2542
  215loPI   C4A 3434   1.743  11.685   8.126 -0.2207 -0.1217 -0.2108
  215loPI   C5A 3435   1.808  11.584   7.761 -0.2110 -0.0980  0.0005
  215loPI   C6A 3436   1.843  11.488   7.352  0.0591 -0.0797  0.0109
  215loPI   C1B 3437   2.001  12.039   9.287  0.3079 -0.1616 -0.0882
  215loPI   C2B 3438   2.120  11.891   8.906  0.1085  0.1285  0.1192
  215loPI   C3B 3439   2.163  11.888   8.427 -0.1859 -0.0004 -0.0685
  215loPI   C4B 3440   2.287  11.803   8.055  0.2483  0.0412 -0.2265
  216loPI    C1 3441   2.239   4.282  10.262 -0.1778  0.1377 -0.1013
  216loPI    C2 3442   2.510   4.082  10.477 -0.1369 -0.0556 -0.3286
  216loPI    C3 3443   2.469   4.477  10.525 -0.1219 -0.0935  0.0233
  216loPI   PO4 3444   2.326   4.116  10.008 -0.2204  0.3117  0.2255
  216loPI   GL1 3445   2.604   3.804   9.792 -0.0589  0.1671  0.0749
  216loPI   GL2 3446   2.748   3.648   9.986  0.1481  0.2045 -0.2569
  216loPI   C1A 3447   2.600   3.752   9.336  0.1609  0.1261 -0.1765
  216loPI   C2A 3448   2.735   3.695   8.880  0.1274 -0.1210 -0.2724
  216loPI   C3A 3449   2.828   3.748   8.539 -0.0866 -0.1382  0.0808
  216loPI   C4A 3450   2.711   3.652   8.124 -0.1374 -0.0953  0.0803
  216loPI   C5A 3451   2.378   3.424   7.898 -0.0537 -0.3293  0.0771
  216loPI   C6A 3452   2.191   3.474   7.533  0.1198  0.0521  0.1265
  216loPI   C1B 3453   2.934   3.366   9.697 -0.0777 -0.0383 -0.0311
  216loPI   C2B 3454   2.990   3.324   9.292  0.0507 -0.0717 -0.2066
  216loPI   C3B 3455   3.112   3.271   8.889 -0.1751  0.2994  0.1206
  216loPI   C4B 3456   2.989   3.270   8.550  0.1406 -0.1093  0.1342
  217loPI    C1 3457  14.148   2.670  11.182 -0.0592  0.0608 -0.0929
  217loPI    C2 3458  13.797   2.858  11.143 -0.1560  0.0109  0.4531
  217loPI    C3 3459  14.028   2.931  11.461  0.1915 -0.1826  0.2510
  217loPI   PO4 3460  14.225   2.618  11.009  0.0919  0.0508  0.4489
  217loPI   GL1 3461  14.029   2.755  10.591 -0.3277 -0.0523  0.1370
  217loPI   GL2 3462  14.333   2.781  10.550  0.3623  0.0335  0.0452
  217loPI   C1A 3463  13.796   2.663  10.239 -0.0104  0.0197 -0.5327
  217loPI   C2A 3464  13.705   2.688   9.856  0.0654  0.1438 -0.1534
  217loPI   C3A 3465  13.585   2.794   9.439 -0.1577  0.0486 -0.1168
  217loPI   C4A 3466  13.616   2.794   9.035  0.0558 -0.0988 -0.1467
  217loPI   C5A 3467  13.620   2.691   8.648  0.0440 -0.2725 -0.4967
  217loPI   C6A 3468  13.903   2.441   8.347  0.3085 -0.1599  0.0933
  217loPI   C1B 3469  14.292   2.510  10.295 -0.0132  0.2210  0.0261
  217loPI   C2B 3470  14.196   2.615   9.816  0.2989  0.1323 -0.0314
  217loPI   C3B 3471  14.104   2.685   9.344  0.0318  0.0160  0.0398
  217loPI   C4B 3472  14.102   2.489   8.899  0.2659  0.0279 -0.1707
  218loPI    C1 3473   8.647   0.172  11.258 -0.0725 -0.0928 -0.0142
  218loPI    C2 3474   8.412   0.114  11.576  0.0287 -0.0541  0.0683
  218loPI    C3 3475   8.612   0.458  11.534  0.1611 -0.1315  0.0584
  218loPI   PO4 3476   8.509   0.039  11.105 -0.2434 -0.1928 -0.0041
  218loPI   GL1 3477   8.637  -0.296  10.809  0.2442 -0.0489  0.2577
  218loPI   GL2 3478   8.402  -0.237  10.692  0.0157 -0.0867  0.3021
  218loPI   C1A 3479   8.790  -0.529  10.553 -0.1951  0.0226  0.1736
  218loPI   C2A 3480   8.724  -0.524  10.095  0.0472 -0.0701 -0.0035
  218loPI   C3A 3481   8.729  -0.546   9.607  0.1329 -0.0751 -0.0541
  218loPI   C4A 3482   8.772  -0.590   9.155 -0.0342 -0.1203  0.1161
  218loPI   C5A 3483   8.883  -0.368   8.929  0.0365 -0.1430  0.2369
  218loPI   C6A 3484   9.117  -0.307   8.613 -0.5716  0.1338  0.0335
  218loPI   C1B 3485   8.615  -0.056  10.303  0.1413 -0.0893  0.0027
  218loPI   C2B 3486   8.615  -0.024   9.887  0.1051  0.0837 -0.0469
  218loPI   C3B 3487   8.571   0.054   9.415  0.1247  0.2437  0.2017
  218loPI   C4B 3488   8.696   0.088   9.018  0.2916 -0.4655 -0.1031
  219loPI    C1 3489  15.338  14.334  10.638 -0.0540  0.0364 -0.0639
  219loPI    C2 3490  15.139  14.257  10.977 -0.0231  0.2805  0.0117
  219loPI    C3 3491  15.522  14.147  10.940 -0.0187  0.2774  0.0667
  219loPI   PO4 3492  15.238  14.435  10.442 -0.0091 -0.2291  0.1511
  219loPI   GL1 3493  15.067  14.624  10.126 -0.1129 -0.0871  0.0215
  219loPI   GL2 3494  14.735  14.608  10.211 -0.1161  0.2027 -0.0143
  219loPI   C1A 3495  14.958  14.679   9.740  0.1207  0.4724  0.1284
  219loPI   C2A 3496  14.897  14.755   9.296  0.2317  0.1006  0.0428
  219loPI   C3A 3497  14.806  14.834   8.951  0.0524  0.0966 -0.0498
  219loPI   C4A 3498  14.913  14.970   8.564 -0.1662 -0.2325  0.1662
  219loPI   C5A 3499  14.796  14.992   8.074 -0.0745  0.0156 -0.0912
  219loPI   C6A 3500  14.940  14.830   7.693  0.0419  0.2685  0.2507
  219loPI   C1B 3501  14.606  14.363   9.862 -0.0378  0.0592  0.0065
  219loPI   C2B 3502  14.516  14.436   9.441 -0.2276  0.1455  0.3038
  219loPI   C3B 3503  14.407  14.407   8.961  0.2812 -0.2939  0.0166
  219loPI   C4B 3504  14.516  14.620   8.595  0.0199  0.2009 -0.0454
  220loPI    C1 3505  15.009   8.976  11.126  0.0494 -0.2370 -0.0050
  220loPI    C2 3506  15.254   9.200  11.350 -0.0284 -0.2303  0.0737
  220loPI    C3 3507  15.382   8.852  11.201  0.0910 -0.1370 -0.0439
  220loPI   PO4 3508  14.874   9.109  10.995  0.0522 -0.0216  0.0581
  220loPI   GL1 3509  14.803   9.120  10.549  0.0479  0.0894  0.0907
  220loPI   GL2 3510  14.503   9.081  10.592 -0.1057 -0.1993  0.0162
  220loPI   C1A 3511  14.745   9.013  10.195 -0.1244 -0.2536 -0.0084
  220loPI   C2A 3512  14.582   8.959   9.757 -0.0686 -0.1397 -0.0496
  220loPI   C3A 3513  14.589   9.002   9.281  0.2641 -0.0026  0.1424
  220loPI   C4A 3514  14.574   9.047   8.832 -0.1040 -0.1583 -0.2293
  220loPI   C5A 3515  14.730   8.788   8.490 -0.3518  0.1585 -0.1750
  220loPI   C6A 3516  15.020   8.965   8.087  0.3076 -0.1693  0.0697
  220loPI   C1B 3517  14.302   9.258  10.150 -0.0866 -0.0724  0.0032
  220loPI   C2B 3518  14.202   9.350   9.823  0.1657 -0.0913 -0.0573
  220loPI   C3B 3519  14.128   9.251   9.441  0.0867 -0.2532 -0.1226
  220loPI   C4B 3520  14.140   9.222   8.954  0.0151  0.0922  0.2633
  221loPI    C1 3521  11.546   2.322  11.146 -0.0778 -0.1904  0.0749
  221loPI    C2 3522  11.678   2.581  11.420  0.0547 -0.0900 -0.0817
  221loPI    C3 3523  11.453   2.269  11.531  0.0893 -0.0387  0.1372
  221loPI   PO4 3524  11.621   2.470  10.893  0.0604 -0.1308 -0.4238
  221loPI   GL1 3525  11.488   2.618  10.477  0.0729 -0.0490  0.1801
  221loPI   GL2 3526  11.551   2.331  10.451 -0.1540  0.2319  0.4306
  221loPI   C1A 3527  11.517   2.475   9.997  0.1479  0.0577 -0.0988
  221loPI   C2A 3528  11.499   2.533   9.625 -0.4001 -0.1071 -0.1143
  221loPI   C3A 3529  11.319   2.505   9.185  0.0458  0.3157  0.2015
  221loPI   C4A 3530  11.307   2.333   8.765  0.0998  0.0116  0.1641
  221loPI   C5A 3531  11.421   2.613   8.472 -0.1838  0.0692  0.0321
  221loPI   C6A 3532  11.512   2.891   8.066 -0.3244  0.1214 -0.1729
  221loPI   C1B 3533  11.680   2.053  10.082  0.0444 -0.1103  0.0398
  221loPI   C2B 3534  11.590   2.009   9.635  0.1785  0.0454 -0.0392
  221loPI   C3B 3535  11.451   1.995   9.189  0.0449  0.0009 -0.0049
  221loPI   C4B 3536  11.592   1.939   8.762 -0.1258 -0.0405 -0.0948
  222loPI    C1 3537   7.926   7.544  11.164  0.2270 -0.0746  0.0001
  222loPI    C2 3538   7.678   7.781  11.370 -0.2416 -0.2510 -0.3438
  222loPI    C3 3539   7.849   7.467  11.548  0.0226  0.0745 -0.0089
  222loPI   PO4 3540   7.874   7.416  10.987 -0.1902 -0.0729 -0.1683
  222loPI   GL1 3541   8.003   7.283  10.657  0.1144 -0.1025  0.0723
  222loPI   GL2 3542   8.060   6.998  10.581 -0.0688  0.1868 -0.1270
  222loPI   C1A 3543   7.913   7.414  10.236 -0.3931  0.1015  0.1294
  222loPI   C2A 3544   7.917   7.341   9.794 -0.1141  0.0466  0.0957
  222loPI   C3A 3545   8.030   7.450   9.390 -0.1262 -0.0050 -0.0119
  222loPI   C4A 3546   8.033   7.445   8.938  0.0794  0.0637 -0.2939
  222loPI   C5A 3547   8.107   7.604   8.542  0.3155  0.0159  0.0512
  222loPI   C6A 3548   8.139   7.336   8.194  0.1234  0.2531 -0.1866
  222loPI   C1B 3549   8.042   6.837  10.242 -0.1504  0.0653 -0.0001
  222loPI   C2B 3550   8.085   6.848   9.844 -0.0001  0.2584 -0.2350
  222loPI   C3B 3551   8.237   6.952   9.433 -0.1364  0.0320  0.1718
  222loPI   C4B 3552   8.074   6.962   9.021 -0.0494  0.1057  0.3568
  223loPI    C1 3553   8.373   2.271  11.251 -0.0079 -0.1610 -0.2588
  223loPI    C2 3554   8.295   1.982  11.516 -0.0572  0.1693  0.0960
  223loPI    C3 3555   8.657   2.151  11.505 -0.0147  0.0671 -0.1410
  223loPI   PO4 3556   8.370   2.166  11.064  0.0230 -0.1895 -0.3888
  223loPI   GL1 3557   8.504   1.767  10.882 -0.2576 -0.0867 -0.0490
  223loPI   GL2 3558   8.282   1.539  10.699 -0.0592  0.0017 -0.0945
  223loPI   C1A 3559   8.504   1.903  10.441 -0.2605  0.0666 -0.0517
  223loPI   C2A 3560   8.685   1.878  10.057 -0.2295  0.0133  0.0189
  223loPI   C3A 3561   8.681   1.932   9.645  0.1927 -0.2848 -0.3941
  223loPI   C4A 3562   8.729   2.021   9.125  0.3250  0.2542  0.1454
  223loPI   C5A 3563   8.494   2.229   8.762 -0.1944  0.0708  0.1423
  223loPI   C6A 3564   8.225   2.551   8.640  0.1933  0.0738 -0.1277
  223loPI   C1B 3565   8.329   1.490  10.309 -0.0832  0.1865  0.1790
  223loPI   C2B 3566   8.343   1.578   9.908 -0.0992  0.0036  0.0395
  223loPI   C3B 3567   8.321   1.528   9.487  0.0819  0.2279 -0.3932
  223loPI   C4B 3568   8.325   1.652   9.004 -0.1309 -0.2860 -0.0909
  224loPI    C1 3569   4.074   1.868  10.839 -0.1907 -0.2917  0.1496
  224loPI    C2 3570   4.129   2.088  11.169  0.3970  0.0955 -0.1881
  224loPI    C3 3571   3.826   2.171  10.922  0.1424  0.0054  0.0887
  224loPI   PO4 3572   4.274   1.841  10.716 -0.2523  0.2514  0.2431
  224loPI   GL1 3573   4.502   1.722  10.376 -0.0058  0.1776 -0.1736
  224loPI   GL2 3574   4.230   1.490  10.282 -0.5985 -0.2508  0.0465
  224loPI   C1A 3575   4.861   1.670  10.083  0.2476  0.1330 -0.1117
  224loPI   C2A 3576   4.975   1.677   9.597 -0.3162  0.0571 -0.2943
  224loPI   C3A 3577   5.111   1.617   9.230 -0.0057  0.2461 -0.1664
  224loPI   C4A 3578   5.241   1.541   8.783 -0.2419 -0.0263  0.2107
  224loPI   C5A 3579   5.487   1.317   8.511  0.1014  0.1385  0.2702
  224loPI   C6A 3580   5.849   1.472   8.275 -0.1457 -0.2051  0.1210
  224loPI   C1B 3581   4.410   1.678   9.847 -0.1115  0.3291 -0.0047
  224loPI   C2B 3582   4.509   1.747   9.514 -0.1487  0.2310 -0.0388
  224loPI   C3B 3583   4.626   1.826   9.055  0.2175  0.1860  0.0859
  224loPI   C4B 3584   4.808   1.830   8.594  0.2929 -0.2514 -0.2936
  225loPI    C1 3585   5.566   5.938  11.004  0.0547  0.0627 -0.0387
  225loPI    C2 3586   5.638   5.647  11.268  0.1167  0.0864 -0.0295
  225loPI    C3 3587   5.265   5.712  11.139  0.1233 -0.0919 -0.1425
  225loPI   PO4 3588   5.809   5.995  10.892  0.1478  0.0304 -0.1204
  225loPI   GL1 3589   6.037   5.879  10.530  0.2933 -0.0827 -0.1010
  225loPI   GL2 3590   5.995   6.248  10.474 -0.0743 -0.1578 -0.0544
  225loPI   C1A 3591   5.947   5.832  10.104  0.2057  0.0191  0.0355
  225loPI   C2A 3592   6.003   5.741   9.682 -0.2421 -0.1234  0.2875
  225loPI   C3A 3593   6.062   5.704   9.272  0.3759 -0.2839  0.0296
  225loPI   C4A 3594   6.108   5.657   8.836 -0.0451 -0.1619 -0.1767
  225loPI   C5A 3595   6.132   5.811   8.444  0.0105 -0.0094  0.0276
  225loPI   C6A 3596   5.964   6.222   8.310 -0.0845 -0.0706  0.3720
  225loPI   C1B 3597   5.851   6.282  10.071  0.2587  0.1001  0.1954
  225loPI   C2B 3598   5.891   6.256   9.631 -0.0297 -0.2098  0.0392
  225loPI   C3B 3599   5.951   6.238   9.229  0.3788  0.0516 -0.0362
  225loPI   C4B 3600   6.067   6.181   8.804  0.2601 -0.0605  0.0832
  226loPI    C1 3601  11.802   0.268  11.147  0.2042 -0.0731 -0.0442
  226loPI    C2 3602  11.453   0.373  11.310  0.1514  0.1800 -0.3123
  226loPI    C3 3603  11.743   0.224  11.540 -0.1372 -0.0514 -0.0897
  226loPI   PO4 3604  11.852   0.487  11.035 -0.0355  0.0111  0.2229
  226loPI   GL1 3605  11.789   0.493  10.627  0.2951  0.3210 -0.1517
  226loPI   GL2 3606  12.017   0.184  10.653  0.0138 -0.0863  0.1857
  226loPI   C1A 3607  11.684   0.545  10.292 -0.2886  0.0635  0.1140
  226loPI   C2A 3608  11.681   0.858   9.910 -0.3973  0.2300  0.0471
  226loPI   C3A 3609  11.707   0.973   9.514 -0.1695  0.1732 -0.0197
  226loPI   C4A 3610  11.789   0.940   9.133  0.1481 -0.0847  0.0436
  226loPI   C5A 3611  11.689   0.862   8.717  0.1338 -0.0554  0.0300
  226loPI   C6A 3612  11.499   0.948   8.348  0.0508  0.1953  0.4326
  226loPI   C1B 3613  11.887   0.081  10.258 -0.2298  0.0313  0.0304
  226loPI   C2B 3614  11.953  -0.092   9.896 -0.2825  0.0548  0.0768
  226loPI   C3B 3615  11.830  -0.085   9.457 -0.2700 -0.4612  0.0438
  226loPI   C4B 3616  11.989  -0.085   9.041  0.0677 -0.3422 -0.2018
  227loPI    C1 3617  10.207  10.583  11.100  0.1910 -0.0240  0.0116
  227loPI    C2 3618  10.332  10.403  11.435  0.0981 -0.0274  0.0447
  227loPI    C3 3619  10.224  10.788  11.443 -0.0066 -0.0564  0.0420
  227loPI   PO4 3620  10.407  10.415  10.898 -0.1235  0.3973 -0.0556
  227loPI   GL1 3621  10.573  10.112  10.597  0.2572  0.3058 -0.1693
  227loPI   GL2 3622  10.402   9.702  10.463 -0.0314  0.1809  0.3391
  227loPI   C1A 3623  10.731  10.045  10.214 -0.2931  0.1203  0.1568
  227loPI   C2A 3624  10.840  10.064   9.745  0.0484 -0.0305 -0.1419
  227loPI   C3A 3625  10.916   9.959   9.381  0.1463 -0.1623 -0.2243
  227loPI   C4A 3626  10.668   9.848   9.009 -0.0013  0.0657  0.2227
  227loPI   C5A 3627  10.764   9.817   8.594  0.2164 -0.0985 -0.1263
  227loPI   C6A 3628  10.502   9.772   8.335  0.0044  0.0560 -0.0263
  227loPI   C1B 3629  10.235   9.649  10.041 -0.2360  0.0422 -0.0332
  227loPI   C2B 3630  10.162   9.588   9.680  0.0934 -0.1304 -0.0568
  227loPI   C3B 3631  10.311   9.618   9.267 -0.0031  0.1483  0.0484
  227loPI   C4B 3632  10.320   9.584   8.804  0.0734  0.0193 -0.2866
  228loPI    C1 3633  15.243  16.409  11.001 -0.0465  0.0619 -0.1212
  228loPI    C2 3634  15.450  16.715  10.848  0.1694  0.0124  0.0662
  228loPI    C3 3635  15.443  16.656  11.244  0.0438 -0.1646  0.0387
  228loPI   PO4 3636  15.016  16.367  10.831 -0.1107  0.1348  0.1303
  228loPI   GL1 3637  14.940  16.367  10.377 -0.2236  0.1773  0.3076
  228loPI   GL2 3638  14.738  16.219  10.208  0.1076  0.0374  0.2134
  228loPI   C1A 3639  15.032  16.516   9.903  0.2310  0.1062  0.2829
  228loPI   C2A 3640  15.008  16.649   9.508  0.2201  0.0863  0.2228
  228loPI   C3A 3641  14.890  16.790   9.106 -0.0243  0.0128 -0.0233
  228loPI   C4A 3642  14.913  16.628   8.720 -0.2178  0.2857  0.0871
  228loPI   C5A 3643  14.821  16.740   8.316 -0.1194  0.0097 -0.0160
  228loPI   C6A 3644  14.529  16.658   8.083 -0.0012  0.0442  0.0362
  228loPI   C1B 3645  14.698  16.183   9.794 -0.2285 -0.3268  0.2414
  228loPI   C2B 3646  14.660  16.215   9.377 -0.0441 -0.1677  0.1111
  228loPI   C3B 3647  14.538  16.265   8.968 -0.2785  0.0217  0.2342
  228loPI   C4B 3648  14.437  16.370   8.551  0.3893  0.1162 -0.1937
  229loPI    C1 3649  12.655   1.807  11.111  0.2864  0.0362  0.1271
  229loPI    C2 3650  12.449   2.058  10.878  0.0333 -0.3413 -0.0669
  229loPI    C3 3651  12.455   2.113  11.274  0.0672  0.0248 -0.1143
  229loPI   PO4 3652  12.976   1.793  10.954  0.3731  0.1469  0.1061
  229loPI   GL1 3653  12.914   1.826  10.601 -0.0068  0.1050 -0.1771
  229loPI   GL2 3654  13.102   2.020  10.455  0.1029 -0.1603 -0.1453
  229loPI   C1A 3655  12.757   1.672  10.177 -0.0583  0.4642  0.1327
  229loPI   C2A 3656  12.765   1.712   9.680 -0.0752 -0.0548  0.0380
  229loPI   C3A 3657  12.567   1.727   9.372  0.2461  0.1057 -0.2127
  229loPI   C4A 3658  12.422   1.705   8.960  0.0048 -0.1861  0.0353
  229loPI   C5A 3659  12.142   1.778   8.599 -0.0005  0.0631 -0.3277
  229loPI   C6A 3660  11.822   1.745   8.339 -0.1074 -0.0765  0.0219
  229loPI   C1B 3661  13.016   2.073  10.005  0.3007 -0.1871 -0.0883
  229loPI   C2B 3662  12.897   2.188   9.556 -0.0781 -0.0198 -0.2016
  229loPI   C3B 3663  12.788   2.087   9.106  0.0076 -0.0224 -0.1366
  229loPI   C4B 3664  13.036   2.031   8.765 -0.0495  0.1233 -0.0377
  230loPI    C1 3665   5.624   0.272  11.175  0.0929  0.0265 -0.1598
  230loPI    C2 3666   5.724   0.253  11.562  0.0854  0.0198 -0.1581
  230loPI    C3 3667   5.794  -0.059  11.321  0.1065  0.0307 -0.1660
  230loPI   PO4 3668   5.714   0.441  11.033 -0.0707  0.0032  0.1490
  230loPI   GL1 3669   5.828   0.668  10.662  0.1085 -0.1523  0.1050
  230loPI   GL2 3670   5.513   0.648  10.580  0.2118 -0.3061  0.2636
  230loPI   C1A 3671   5.984   0.850  10.345 -0.1123  0.1488 -0.2365
  230loPI   C2A 3672   6.031   0.889   9.866  0.0048 -0.0549  0.0231
  230loPI   C3A 3673   6.129   0.815   9.427  0.2275  0.1528  0.1379
  230loPI   C4A 3674   6.107   0.794   9.003  0.2309 -0.2599  0.0302
  230loPI   C5A 3675   6.377   0.882   8.622 -0.0371  0.1698 -0.2757
  230loPI   C6A 3676   6.315   1.089   8.161  0.1336 -0.0407  0.0693
  230loPI   C1B 3677   5.520   0.884  10.149  0.3530  0.1364  0.2305
  230loPI   C2B 3678   5.545   1.042   9.757  0.0834  0.0262 -0.1969
  230loPI   C3B 3679   5.624   0.927   9.281 -0.1667  0.2122  0.0666
  230loPI   C4B 3680   5.592   0.928   8.812  0.3215  0.2754 -0.0668
  231loPI    C1 3681   7.186  11.116  11.022  0.1173  0.2625  0.0188
  231loPI    C2 3682   7.424  11.161  11.340 -0.0466  0.1792  0.1552
  231loPI    C3 3683   7.081  11.366  11.317 -0.0770  0.1194  0.0734
  231loPI   PO4 3684   7.318  11.125  10.798 -0.1945 -0.0711 -0.1370
  231loPI   GL1 3685   7.321  11.079  10.357  0.2217  0.0506  0.1582
  231loPI   GL2 3686   7.195  10.792  10.189 -0.3160 -0.0840 -0.0417
  231loPI   C1A 3687   7.595  11.025  10.020  0.1754 -0.1175  0.0595
  231loPI   C2A 3688   7.639  10.953   9.716 -0.4211 -0.0369  0.1565
  231loPI   C3A 3689   7.575  11.039   9.338  0.0460  0.2351 -0.0410
  231loPI   C4A 3690   7.706  10.896   8.932 -0.0400  0.2753  0.0878
  231loPI   C5A 3691   8.013  11.026   8.556 -0.0198  0.1110  0.2546
  231loPI   C6A 3692   8.472  10.986   8.299 -0.0093  0.0406 -0.0001
  231loPI   C1B 3693   7.234  10.602   9.707 -0.0510 -0.1141 -0.1318
  231loPI   C2B 3694   7.323  10.605   9.312  0.1623 -0.0935 -0.0219
  231loPI   C3B 3695   7.292  10.513   8.952 -0.0450  0.1973 -0.1708
  231loPI   C4B 3696   7.074  10.499   8.634 -0.1426  0.0927 -0.0341
  232loPI    C1 3697  11.999   7.846  10.892  0.0929 -0.0666 -0.0172
  232loPI    C2 3698  11.660   8.012  10.759 -0.0061 -0.0158  0.2922
  232loPI    C3 3699  11.660   7.633  10.888  0.1578 -0.1686 -0.1419
  232loPI   PO4 3700  12.193   7.860  10.725  0.0425  0.3022 -0.1941
  232loPI   GL1 3701  12.232   7.933  10.292  0.0117 -0.0487  0.2503
  232loPI   GL2 3702  12.567   7.779  10.366  0.0707 -0.2797 -0.2392
  232loPI   C1A 3703  12.076   7.896   9.895  0.4788 -0.1204  0.1584
  232loPI   C2A 3704  12.107   8.031   9.424  0.0453  0.2662 -0.0228
  232loPI   C3A 3705  12.066   7.948   8.973  0.0328  0.0315 -0.1056
  232loPI   C4A 3706  12.121   7.934   8.535  0.1002 -0.0601  0.0808
  232loPI   C5A 3707  12.445   7.678   8.253  0.0007 -0.0059 -0.1189
  232loPI   C6A 3708  12.676   7.295   8.230  0.2826  0.1225 -0.0972
  232loPI   C1B 3709  12.667   7.809   9.969  0.0007  0.0599  0.1228
  232loPI   C2B 3710  12.558   7.820   9.559  0.1275 -0.0922 -0.3103
  232loPI   C3B 3711  12.520   7.769   9.150  0.3218  0.1414  0.3056
  232loPI   C4B 3712  12.510   7.666   8.748  0.1277  0.2701 -0.0267
  233loPI    C1 3713   5.660   3.062  11.208  0.0727  0.0649 -0.1198
  233loPI    C2 3714   5.526   2.718  11.364  0.0678  0.1037 -0.0381
  233loPI    C3 3715   5.676   3.002  11.603  0.1178  0.1386 -0.1101
  233loPI   PO4 3716   5.809   2.980  10.922  0.0700 -0.0578  0.0590
  233loPI   GL1 3717   5.960   2.922  10.479  0.0302 -0.0947 -0.0697
  233loPI   GL2 3718   5.899   3.166  10.356 -0.0003  0.0266  0.1203
  233loPI   C1A 3719   5.985   2.751  10.011 -0.0778 -0.0679 -0.2842
  233loPI   C2A 3720   6.241   2.825   9.626 -0.3136 -0.0608  0.2974
  233loPI   C3A 3721   6.517   2.905   9.302  0.2073  0.2110  0.0017
  233loPI   C4A 3722   6.679   2.885   8.928  0.1209  0.0719  0.1304
  233loPI   C5A 3723   6.980   3.048   8.642 -0.1741  0.0511 -0.3684
  233loPI   C6A 3724   6.858   3.306   8.183 -0.0902  0.1642 -0.0115
  233loPI   C1B 3725   5.945   3.251  10.030  0.1371 -0.0835 -0.0207
  233loPI   C2B 3726   6.017   3.267   9.651 -0.2060 -0.2754 -0.0232
  233loPI   C3B 3727   6.170   3.250   9.204 -0.1056 -0.0068  0.2081
  233loPI   C4B 3728   6.326   3.177   8.842  0.2222  0.2419  0.1274
  234loPI    C1 3729   2.440  15.446  10.524  0.1765  0.2666 -0.0444
  234loPI    C2 3730   2.165  15.325  10.260  0.2209  0.0527  0.0054
  234loPI    C3 3731   2.076  15.337  10.650  0.1886  0.2683 -0.0077
  234loPI   PO4 3732   2.497  15.691  10.499 -0.1190 -0.1065 -0.0041
  234loPI   GL1 3733   2.610  15.865  10.129  0.3771  0.0483  0.0097
  234loPI   GL2 3734   2.952  15.770  10.100 -0.0205 -0.0047  0.2736
  234loPI   C1A 3735   2.407  15.894   9.700 -0.1135  0.0541 -0.4916
  234loPI   C2A 3736   2.420  15.976   9.298 -0.0124  0.1201 -0.0018
  234loPI   C3A 3737   2.469  16.080   8.870 -0.0144 -0.0566  0.0045
  234loPI   C4A 3738   2.327  16.201   8.455 -0.1273  0.0113  0.1890
  234loPI   C5A 3739   2.384  16.557   8.187 -0.0638 -0.1291 -0.1483
  234loPI   C6A 3740   2.357  16.711   7.791  0.3368  0.1408  0.0780
  234loPI   C1B 3741   2.867  15.617   9.675  0.0308  0.3377  0.2859
  234loPI   C2B 3742   2.962  15.466   9.295  0.0468  0.1589 -0.0382
  234loPI   C3B 3743   2.990  15.388   8.871  0.1088  0.1083  0.0310
  234loPI   C4B 3744   3.039  15.273   8.446 -0.0024 -0.0134  0.1947
  235loPI    C1 3745   9.935   2.186  11.271 -0.1875  0.1301 -0.1744
  235loPI    C2 3746   9.679   2.006  11.520 -0.0216  0.0910 -0.0299
  235loPI    C3 3747   9.687   2.405  11.496  0.0651  0.1007  0.1409
  235loPI   PO4 3748   9.897   2.056  11.043  0.2998  0.2223 -0.0184
  235loPI   GL1 3749   9.910   1.984  10.650 -0.0525 -0.0267 -0.0706
  235loPI   GL2 3750   9.784   1.624  10.567  0.0925 -0.0959  0.3924
  235loPI   C1A 3751  10.019   1.959  10.271  0.2145  0.7910  0.1939
  235loPI   C2A 3752  10.057   2.035   9.817 -0.1572 -0.2617 -0.1891
  235loPI   C3A 3753  10.113   1.965   9.390  0.0621  0.1669  0.0035
  235loPI   C4A 3754  10.055   2.119   8.970  0.1603 -0.2230 -0.1459
  235loPI   C5A 3755  10.276   2.186   8.621  0.3345 -0.0106  0.2755
  235loPI   C6A 3756  10.485   2.414   8.249 -0.0922 -0.0752 -0.0373
  235loPI   C1B 3757   9.706   1.596  10.097  0.2475  0.0768  0.3858
  235loPI   C2B 3758   9.711   1.644   9.691  0.0577  0.1648  0.0847
  235loPI   C3B 3759   9.750   1.614   9.266  0.0306 -0.0896  0.5117
  235loPI   C4B 3760   9.640   1.816   8.925 -0.2507  0.1664  0.0407
  236loPI    C1 3761   7.104   6.405  11.151 -0.1228  0.0652 -0.0063
  236loPI    C2 3762   6.737   6.459  11.300 -0.0762  0.0521  0.1143
  236loPI    C3 3763   7.057   6.575  11.510 -0.0144  0.1382 -0.0260
  236loPI   PO4 3764   7.117   6.465  10.877 -0.0063  0.1125 -0.0563
  236loPI   GL1 3765   7.304   6.582  10.626 -0.3019  0.0532 -0.0125
  236loPI   GL2 3766   7.624   6.567  10.578  0.3350 -0.0550 -0.2707
  236loPI   C1A 3767   7.135   6.794  10.194  0.1596  0.1199 -0.4344
  236loPI   C2A 3768   7.202   6.791   9.762 -0.2829  0.0406 -0.2051
  236loPI   C3A 3769   7.173   6.807   9.301  0.0269  0.2005  0.3185
  236loPI   C4A 3770   7.278   6.819   8.994 -0.2344  0.0341 -0.1936
  236loPI   C5A 3771   7.283   6.819   8.536  0.0222  0.3839 -0.3666
  236loPI   C6A 3772   7.482   6.832   8.155  0.1162 -0.0523 -0.4357
  236loPI   C1B 3773   7.569   6.531  10.145 -0.2726  0.2736 -0.1062
  236loPI   C2B 3774   7.640   6.513   9.645  0.3126 -0.0683 -0.1323
  236loPI   C3B 3775   7.723   6.596   9.223  0.3460  0.0217  0.0727
  236loPI   C4B 3776   7.821   6.657   8.716 -0.0360 -0.4255  0.1857
  237loPI    C1 3777   7.815  12.491  11.318  0.1901 -0.1652  0.2888
  237loPI    C2 3778   7.912  12.268  11.635  0.0093 -0.3207  0.2362
  237loPI    C3 3779   7.536  12.269  11.498 -0.0779  0.2892  0.4504
  237loPI   PO4 3780   7.976  12.430  11.111 -0.0825 -0.0106 -0.0859
  237loPI   GL1 3781   7.935  12.356  10.620  0.1393 -0.2592  0.1347
  237loPI   GL2 3782   7.914  12.055  10.644  0.2597  0.1871 -0.0464
  237loPI   C1A 3783   7.751  12.297  10.194 -0.0987 -0.2183 -0.0118
  237loPI   C2A 3784   7.813  12.284   9.834  0.3127  0.2884 -0.3652
  237loPI   C3A 3785   7.809  12.345   9.339  0.0365 -0.2242 -0.1012
  237loPI   C4A 3786   7.910  12.283   8.998 -0.0275 -0.1969 -0.3501
  237loPI   C5A 3787   8.064  12.098   8.713 -0.0343 -0.0321 -0.1459
  237loPI   C6A 3788   8.182  11.698   8.587 -0.0713 -0.0717  0.1769
  237loPI   C1B 3789   7.959  11.798  10.247  0.1411 -0.2294 -0.0084
  237loPI   C2B 3790   7.918  11.783   9.805 -0.0333 -0.0659  0.0709
  237loPI   C3B 3791   7.898  11.835   9.402 -0.1654 -0.1887 -0.1418
  237loPI   C4B 3792   7.983  11.730   9.015  0.1725  0.0270  0.1041
  238loPI    C1 3793  11.887   3.012  11.273 -0.2393 -0.1359 -0.1003
  238loPI    C2 3794  12.107   3.135  11.584 -0.2085 -0.0694 -0.1482
  238loPI    C3 3795  11.725   3.029  11.639 -0.2172 -0.0115 -0.0958
  238loPI   PO4 3796  11.969   3.154  11.067  0.2599 -0.3601  0.2650
  238loPI   GL1 3797  12.298   3.238  10.735  0.0437  0.0185  0.1868
  238loPI   GL2 3798  12.442   2.986  10.749  0.2506 -0.0048  0.2609
  238loPI   C1A 3799  12.228   3.216  10.248 -0.0233 -0.0004  0.0715
  238loPI   C2A 3800  12.191   3.284   9.833  0.1295 -0.0875  0.0705
  238loPI   C3A 3801  12.139   3.220   9.383 -0.0736 -0.0730  0.1602
  238loPI   C4A 3802  12.099   3.163   8.903 -0.2227  0.1823  0.0430
  238loPI   C5A 3803  12.391   3.000   8.687 -0.3009 -0.1449 -0.0883
  238loPI   C6A 3804  12.701   2.593   8.695  0.2167 -0.1395 -0.0146
  238loPI   C1B 3805  12.682   3.050  10.500 -0.1319  0.1986  0.2163
  238loPI   C2B 3806  12.676   3.123   9.998 -0.1148  0.0354  0.3087
  238loPI   C3B 3807  12.586   3.091   9.579  0.1370  0.1840  0.0902
  238loPI   C4B 3808  12.598   3.078   9.124  0.0262  0.0856 -0.0275
  239loPI    C1 3809   8.625   7.961  11.288 -0.0716 -0.2159  0.1719
  239loPI    C2 3810   8.886   8.116  11.548  0.0152  0.1021 -0.0979
  239loPI    C3 3811   8.513   8.260  11.529 -0.0250  0.0023 -0.0730
  239loPI   PO4 3812   8.836   7.939  11.077  0.0906  0.1365 -0.0636
  239loPI   GL1 3813   8.838   8.136  10.745 -0.0457 -0.0209 -0.2029
  239loPI   GL2 3814   9.025   7.886  10.549  0.1715 -0.1287  0.1286
  239loPI   C1A 3815   8.588   8.112  10.388  0.1920 -0.0177  0.2661
  239loPI   C2A 3816   8.541   8.120   9.887  0.0005 -0.1316  0.1475
  239loPI   C3A 3817   8.793   8.249   9.554  0.0251  0.0138 -0.0346
  239loPI   C4A 3818   8.757   8.162   9.251 -0.1492  0.0670 -0.1226
  239loPI   C5A 3819   8.729   8.083   8.843  0.6649  0.0568  0.2631
  239loPI   C6A 3820   8.429   8.036   8.505  0.0410  0.2259 -0.3243
  239loPI   C1B 3821   9.055   7.929  10.146 -0.0860 -0.1167  0.2717
  239loPI   C2B 3822   9.190   7.995   9.753  0.4629  0.0493  0.2382
  239loPI   C3B 3823   9.342   7.939   9.403  0.2017  0.0091  0.2432
  239loPI   C4B 3824   9.274   8.149   9.026  0.1661  0.1101 -0.0808
  240loPI    C1 3825  11.324  12.621  11.256  0.0359  0.2469  0.2498
  240loPI    C2 3826  11.028  12.880  11.329 -0.2006  0.0455  0.0270
  240loPI    C3 3827  11.047  12.535  11.531 -0.1154  0.0591  0.0426
  240loPI   PO4 3828  11.382  12.616  10.883  0.1163 -0.0132  0.0782
  240loPI   GL1 3829  11.656  12.501  10.573 -0.0376 -0.0608  0.0928
  240loPI   GL2 3830  11.582  12.784  10.442 -0.1866  0.1891 -0.1030
  240loPI   C1A 3831  12.077  12.652  10.428 -0.0223  0.0555  0.0960
  240loPI   C2A 3832  12.230  12.767  10.051 -0.1653 -0.0632  0.0234
  240loPI   C3A 3833  12.167  12.754   9.635  0.0249  0.1622  0.1865
  240loPI   C4A 3834  11.968  12.821   9.286  0.0158  0.0972 -0.1446
  240loPI   C5A 3835  11.915  12.843   8.857  0.0192 -0.0617 -0.0478
  240loPI   C6A 3836  12.126  12.943   8.465  0.0346 -0.3816  0.2451
  240loPI   C1B 3837  11.654  12.965  10.071 -0.0761  0.0404  0.0152
  240loPI   C2B 3838  11.606  12.999   9.668  0.0226  0.0499 -0.0061
  240loPI   C3B 3839  11.476  12.960   9.171 -0.1591 -0.1497 -0.0483
  240loPI   C4B 3840  11.421  13.024   8.737  0.4088  0.1838 -0.1139
  241loPI    C1 3841   3.695   9.030  10.618  0.2307 -0.0704  0.0581
  241loPI    C2 3842   3.775   8.657  10.739  0.0569 -0.0580  0.2156
  241loPI    C3 3843   3.396   8.786  10.724  0.1025  0.0546 -0.0113
  241loPI   PO4 3844   3.907   9.061  10.402 -0.2087  0.0360 -0.0553
  241loPI   GL1 3845   4.018   8.894   9.910 -0.3036  0.1938  0.0882
  241loPI   GL2 3846   3.996   8.634   9.700 -0.0395 -0.1623 -0.1160
  241loPI   C1A 3847   4.427   8.808   9.821 -0.1322 -0.0649  0.2447
  241loPI   C2A 3848   4.668   8.850   9.564 -0.0129  0.0573  0.0159
  241loPI   C3A 3849   4.750   9.304   9.371 -0.1561  0.0621  0.1089
  241loPI   C4A 3850   4.756   9.566   8.941  0.3549  0.0639  0.4704
  241loPI   C5A 3851   4.744   9.499   8.476 -0.1665  0.2049  0.2991
  241loPI   C6A 3852   4.529   9.373   7.999  0.1642 -0.1162  0.1021
  241loPI   C1B 3853   4.089   8.734   9.348  0.0563  0.0488  0.0039
  241loPI   C2B 3854   4.037   8.622   8.804  0.2927  0.1022 -0.1200
  241loPI   C3B 3855   4.045   8.816   8.428 -0.1976 -0.1556  0.2917
  241loPI   C4B 3856   3.991   8.600   8.020 -0.0949 -0.0582  0.1700
  242loPI    C1 3857   6.132   9.781  10.870 -0.1357 -0.2333  0.1686
  242loPI    C2 3858   6.183  10.029  11.179 -0.2356 -0.2308  0.1832
  242loPI    C3 3859   6.417   9.707  11.141  0.0065 -0.0455  0.0729
  242loPI   PO4 3860   6.043   9.952  10.640 -0.2052  0.0431  0.1325
  242loPI   GL1 3861   6.092  10.081  10.259  0.0902 -0.2369  0.1122
  242loPI   GL2 3862   5.886   9.992  10.137 -0.2765 -0.1518 -0.1123
  242loPI   C1A 3863   6.393   9.900   9.946 -0.1524 -0.2865 -0.2179
  242loPI   C2A 3864   6.623   9.827   9.425 -0.1719 -0.0485 -0.3052
  242loPI   C3A 3865   6.966   9.689   9.330 -0.4490 -0.1734 -0.3014
  242loPI   C4A 3866   7.096   9.615   8.950 -0.2162 -0.1311  0.1711
  242loPI   C5A 3867   7.462   9.581   8.516  0.1619 -0.2537  0.0965
  242loPI   C6A 3868   7.738   9.316   8.379  0.0872  0.1227  0.2506
  242loPI   C1B 3869   5.931   9.952   9.762  0.0797  0.4182  0.0167
  242loPI   C2B 3870   6.029   9.921   9.312 -0.1195 -0.1163  0.1518
  242loPI   C3B 3871   6.065   9.926   8.893 -0.0394 -0.1448  0.1711
  242loPI   C4B 3872   6.502   9.801   8.914 -0.2259 -0.2348  0.0563
  243loPI    C1 3873   8.416  12.585  11.169 -0.1322 -0.0264 -0.2165
  243loPI    C2 3874   8.272  12.651  11.536  0.1990 -0.0998 -0.0700
  243loPI    C3 3875   8.395  12.285  11.432  0.3602 -0.0205 -0.1622
  243loPI   PO4 3876   8.631  12.765  11.053 -0.0718  0.2125  0.1060
  243loPI   GL1 3877   8.720  13.058  10.745 -0.1611 -0.0083 -0.1917
  243loPI   GL2 3878   8.995  13.326  10.712  0.0532  0.1872  0.2482
  243loPI   C1A 3879   8.774  13.085  10.241 -0.3036 -0.0926  0.1764
  243loPI   C2A 3880   8.776  13.047   9.812  0.0666  0.0758 -0.1262
  243loPI   C3A 3881   8.747  13.005   9.393  0.1516 -0.0470 -0.1549
  243loPI   C4A 3882   8.662  13.031   9.010 -0.1796  0.0958 -0.2148
  243loPI   C5A 3883   8.360  13.063   8.726 -0.0468 -0.0220  0.0515
  243loPI   C6A 3884   8.303  12.825   8.432  0.3325 -0.4083 -0.4024
  243loPI   C1B 3885   9.163  13.343  10.171 -0.4337 -0.1032 -0.0520
  243loPI   C2B 3886   9.215  13.338   9.822  0.0686  0.0582  0.2234
  243loPI   C3B 3887   9.087  13.435   9.448 -0.1228 -0.0932  0.2046
  243loPI   C4B 3888   9.048  13.370   9.005  0.0215  0.2403 -0.4257
  244loPI    C1 3889   9.646   9.175  11.054  0.2844  0.1726  0.0077
  244loPI    C2 3890   9.795   9.012  11.387  0.1199  0.2351  0.1130
  244loPI    C3 3891   9.591   9.355  11.406 -0.0719  0.1308 -0.0229
  244loPI   PO4 3892   9.798   8.998  10.881  0.3027 -0.0578  0.0007
  244loPI   GL1 3893   9.673   8.676  10.630  0.0661  0.0356 -0.3563
  244loPI   GL2 3894   9.948   8.852  10.450 -0.0315 -0.1380  0.0829
  244loPI   C1A 3895   9.755   8.446  10.201 -0.1181 -0.2008 -0.1845
  244loPI   C2A 3896   9.664   8.383   9.782  0.0383 -0.0671 -0.0456
  244loPI   C3A 3897   9.703   8.349   9.394 -0.2056  0.1107  0.1853
  244loPI   C4A 3898   9.727   8.392   9.030  0.2146  0.0452  0.0235
  244loPI   C5A 3899   9.585   8.176   8.622 -0.2898 -0.2939  0.0775
  244loPI   C6A 3900   9.727   8.235   8.210  0.2609 -0.1274  0.1325
  244loPI   C1B 3901  10.051   8.814   9.988  0.0240  0.2731  0.1454
  244loPI   C2B 3902  10.085   8.690   9.616  0.0753 -0.0229  0.0364
  244loPI   C3B 3903  10.140   8.782   9.162 -0.1239 -0.0369 -0.1260
  244loPI   C4B 3904   9.922   8.725   8.705 -0.2342  0.4932 -0.0503
  245loPI    C1 3905  11.773  13.993  11.453 -0.1254 -0.0030  0.0675
  245loPI    C2 3906  11.920  14.309  11.649  0.2539 -0.0906 -0.0673
  245loPI    C3 3907  11.917  13.950  11.824 -0.1928 -0.0149  0.0925
  245loPI   PO4 3908  11.733  14.134  11.179 -0.1985 -0.0337  0.0264
  245loPI   GL1 3909  11.785  14.009  10.739  0.3128 -0.1465 -0.2327
  245loPI   GL2 3910  11.400  14.009  10.624 -0.0962 -0.0377 -0.2483
  245loPI   C1A 3911  11.824  14.308  10.475 -0.2243  0.1640  0.1415
  245loPI   C2A 3912  11.778  14.429  10.085  0.2009 -0.1369  0.2839
  245loPI   C3A 3913  11.752  14.413   9.658  0.2410 -0.0295  0.1367
  245loPI   C4A 3914  11.705  14.398   9.191  0.0583 -0.2585 -0.1699
  245loPI   C5A 3915  11.648  14.331   8.781 -0.0378  0.0158  0.1492
  245loPI   C6A 3916  11.425  14.494   8.491 -0.0954 -0.2994 -0.3023
  245loPI   C1B 3917  11.422  14.041  10.164  0.3771 -0.0306 -0.0159
  245loPI   C2B 3918  11.395  14.033   9.683  0.0532 -0.1900  0.0341
  245loPI   C3B 3919  11.276  14.116   9.360 -0.1370 -0.0497 -0.2455
  245loPI   C4B 3920  11.299  13.943   8.914  0.2050  0.0497 -0.0790
  246loPI    C1 3921   4.627   2.066  10.932  0.0479  0.1025  0.0679
  246loPI    C2 3922   4.685   2.089  11.327  0.1073 -0.0711  0.0700
  246loPI    C3 3923   4.615   1.735  11.155 -0.0038  0.0147 -0.0639
  246loPI   PO4 3924   4.590   2.307  10.864  0.1305 -0.1167 -0.0682
  246loPI   GL1 3925   4.701   2.443  10.472  0.0406  0.0156 -0.0181
  246loPI   GL2 3926   4.517   2.198  10.256 -0.0816  0.0426 -0.0024
  246loPI   C1A 3927   4.880   2.605  10.185  0.2010  0.1540  0.0812
  246loPI   C2A 3928   4.994   2.571   9.794 -0.1848  0.3918 -0.1177
  246loPI   C3A 3929   5.195   2.554   9.456  0.1786 -0.0062 -0.1355
  246loPI   C4A 3930   5.541   2.473   9.187  0.1264  0.1522  0.1205
  246loPI   C5A 3931   5.726   2.530   8.867  0.1741 -0.1300  0.0069
  246loPI   C6A 3932   5.925   2.208   8.626 -0.1007 -0.1798  0.0691
  246loPI   C1B 3933   4.745   2.118   9.889  0.0719  0.0108 -0.1503
  246loPI   C2B 3934   4.807   2.162   9.431 -0.2113  0.1228  0.0934
  246loPI   C3B 3935   4.984   2.150   9.046 -0.1857  0.2745  0.0761
  246loPI   C4B 3936   5.215   2.525   8.852 -0.1102  0.2024 -0.0781
  247loPI    C1 3937  17.682   8.057  10.240  0.0343 -0.0978 -0.2742
  247loPI    C2 3938  17.829   7.719  10.396  0.0625 -0.0236 -0.1381
  247loPI    C3 3939  17.524   7.906  10.575  0.1183  0.0814 -0.1523
  247loPI   PO4 3940  17.670   7.961   9.958 -0.1026  0.3568  0.2309
  247loPI   GL1 3941  17.452   8.113   9.685  0.0122  0.0280 -0.1623
  247loPI   GL2 3942  17.612   8.352   9.512  0.1615 -0.2280  0.1744
  247loPI   C1A 3943  17.523   7.966   9.240 -0.1817  0.0796  0.2552
  247loPI   C2A 3944  17.641   8.011   8.788 -0.1870 -0.1667  0.0766
  247loPI   C3A 3945  17.693   8.166   8.397 -0.0888  0.0338 -0.1746
  247loPI   C4A 3946  17.869   8.280   7.988  0.1402  0.2341  0.0786
  247loPI   C5A 3947  17.600   8.194   7.642  0.0495  0.1102  0.0688
  247loPI   C6A 3948  17.459   8.341   7.256 -0.1653 -0.1568  0.3290
  247loPI   C1B 3949  17.535   8.418   9.049 -0.1528  0.0757  0.3458
  247loPI   C2B 3950  17.499   8.588   8.605 -0.1845 -0.2106 -0.0127
  247loPI   C3B 3951  17.652   8.705   8.217  0.0626  0.2148  0.0019
  247loPI   C4B 3952  17.623   8.790   7.865  0.1707 -0.1226  0.0090
  248loPI    C1 3953  11.767   3.503  11.450  0.0219  0.0847 -0.0418
  248loPI    C2 3954  11.812   3.828  11.679  0.0797  0.0149  0.0466
  248loPI    C3 3955  11.687   3.484  11.841  0.0490 -0.0155 -0.0407
  248loPI   PO4 3956  11.640   3.655  11.216 -0.0952  0.2776 -0.1579
  248loPI   GL1 3957  11.479   3.427  10.776 -0.1147  0.2089  0.2655
  248loPI   GL2 3958  11.308   3.555  10.638 -0.1410 -0.4079 -0.0266
  248loPI   C1A 3959  11.693   3.380  10.381  0.2361 -0.0102 -0.0684
  248loPI   C2A 3960  11.723   3.408   9.956 -0.2643  0.0920 -0.0517
  248loPI   C3A 3961  11.639   3.388   9.515 -0.0995  0.1396  0.1780
  248loPI   C4A 3962  11.570   3.290   9.051 -0.2789 -0.1726 -0.2076
  248loPI   C5A 3963  11.541   3.330   8.629  0.0926  0.2263 -0.0207
  248loPI   C6A 3964  11.117   3.195   8.297  0.0702 -0.3513  0.0210
  248loPI   C1B 3965  11.208   3.474  10.301 -0.2450  0.3095 -0.2411
  248loPI   C2B 3966  11.190   3.536   9.839  0.0020 -0.2499  0.0118
  248loPI   C3B 3967  11.188   3.516   9.399 -0.2081 -0.0778 -0.3267
  248loPI   C4B 3968  11.023   3.483   8.865  0.0604 -0.0526 -0.0247
  249loPI    C1 3969  14.389  15.830  11.041  0.0854  0.1084 -0.1845
  249loPI    C2 3970  14.189  15.549  11.244 -0.0905  0.2226 -0.1969
  249loPI    C3 3971  14.589  15.559  11.256 -0.0862  0.0183 -0.1364
  249loPI   PO4 3972  14.185  15.792  10.777 -0.0661 -0.1220 -0.1650
  249loPI   GL1 3973  14.027  15.753  10.458 -0.2972  0.1690 -0.3752
  249loPI   GL2 3974  14.295  15.841  10.187 -0.1010  0.0132  0.0819
  249loPI   C1A 3975  13.806  15.653  10.047  0.0273  0.1013  0.3747
  249loPI   C2A 3976  13.856  15.583   9.609  0.1190  0.3344 -0.2534
  249loPI   C3A 3977  13.775  15.601   9.091 -0.2385 -0.2040  0.2017
  249loPI   C4A 3978  13.595  15.697   8.767 -0.0230  0.1130 -0.0048
  249loPI   C5A 3979  13.442  15.827   8.332 -0.1323 -0.0071 -0.1034
  249loPI   C6A 3980  13.582  15.851   8.023 -0.1230 -0.0188 -0.3027
  249loPI   C1B 3981  14.263  15.895   9.689  0.0051  0.0572  0.0100
  249loPI   C2B 3982  14.202  15.950   9.273 -0.0019 -0.1819 -0.0492
  249loPI   C3B 3983  14.041  15.994   8.937 -0.1834 -0.1528  0.2911
  249loPI   C4B 3984  13.948  16.036   8.568  0.1723 -0.0887 -0.0903
  250loPI    C1 3985  14.111   9.600  11.001  0.1527  0.0619  0.0174
  250loPI    C2 3986  14.335   9.541  10.674  0.1627  0.1002  0.0173
  250loPI    C3 3987  14.468   9.424  11.033 -0.0146 -0.2976 -0.0415
  250loPI   PO4 3988  14.048   9.833  10.972  0.1566  0.3431  0.0008
  250loPI   GL1 3989  14.103  10.010  10.571 -0.0912  0.0870 -0.2265
  250loPI   GL2 3990  13.988   9.725  10.415  0.2029 -0.0669 -0.2309
  250loPI   C1A 3991  14.061  10.245  10.211  0.1086 -0.3888 -0.0473
  250loPI   C2A 3992  14.075  10.261   9.717 -0.2093  0.2917 -0.0565
  250loPI   C3A 3993  13.951  10.235   9.316  0.0778 -0.0229  0.0532
  250loPI   C4A 3994  13.985  10.294   8.936 -0.1402 -0.2102 -0.1372
  250loPI   C5A 3995  13.973  10.440   8.505  0.3231  0.1695 -0.0303
  250loPI   C6A 3996  14.216  10.336   8.159  0.2639  0.1124 -0.0743
  250loPI   C1B 3997  14.062   9.828   9.981  0.0522 -0.0352 -0.0273
  250loPI   C2B 3998  14.067   9.747   9.579  0.0707  0.0981 -0.2699
  250loPI   C3B 3999  14.120   9.784   9.170 -0.0470  0.1913  0.0554
  250loPI   C4B 4000  14.072   9.772   8.785  0.1524 -0.0780  0.2078
  251loPI    C1 4001   3.720   5.470  10.547  0.0496 -0.1481  0.0175
  251loPI    C2 4002   3.939   5.591  10.859 -0.0474 -0.1094  0.0713
  251loPI    C3 4003   3.562   5.718  10.819  0.0258  0.0400 -0.1648
  251loPI   PO4 4004   3.782   5.208  10.573 -0.0565 -0.1942  0.0404
  251loPI   GL1 4005   3.968   5.058  10.214 -0.0392  0.1831 -0.1254
  251loPI   GL2 4006   4.187   5.081  10.077  0.3914  0.0548  0.0382
  251loPI   C1A 4007   3.765   5.157   9.758 -0.1035 -0.0901 -0.1228
  251loPI   C2A 4008   3.794   5.041   9.327 -0.2245  0.1331  0.3753
  251loPI   C3A 4009   3.883   4.941   8.928  0.0307 -0.0958 -0.2979
  251loPI   C4A 4010   3.991   4.914   8.494 -0.0228 -0.2264 -0.1198
  251loPI   C5A 4011   3.719   4.877   8.127  0.1926  0.0394  0.2860
  251loPI   C6A 4012   3.568   4.551   7.917 -0.2216 -0.1874 -0.1607
  251loPI   C1B 4013   4.197   4.907   9.752  0.2162  0.2794 -0.1808
  251loPI   C2B 4014   4.318   4.861   9.394 -0.0524 -0.4130  0.0123
  251loPI   C3B 4015   4.332   4.755   8.993  0.1469 -0.1269  0.1879
  251loPI   C4B 4016   4.477   4.648   8.536  0.1992  0.1977 -0.0947
  252loPI    C1 4017   4.063   8.310  10.452 -0.2506  0.0648 -0.0530
  252loPI    C2 4018   4.460   8.273  10.475 -0.2840 -0.3376 -0.0546
  252loPI    C3 4019   4.265   8.496  10.743 -0.0415  0.0222 -0.1689
  252loPI   PO4 4020   4.053   8.356  10.157  0.0080  0.2339  0.0715
  252loPI   GL1 4021   4.408   8.240   9.977  0.1346  0.0377  0.0465
  252loPI   GL2 4022   4.318   7.919  10.027  0.1400  0.1555 -0.1036
  252loPI   C1A 4023   4.374   8.413   9.539  0.3100  0.0299  0.0323
  252loPI   C2A 4024   4.478   8.502   9.057 -0.0125  0.3587  0.0749
  252loPI   C3A 4025   4.636   8.638   8.724  0.2334  0.1603  0.2168
  252loPI   C4A 4026   4.643   8.805   8.445  0.1498  0.0500  0.1831
  252loPI   C5A 4027   4.435   8.885   8.073 -0.0155  0.0789  0.0794
  252loPI   C6A 4028   4.062   9.136   8.008 -0.1772  0.2115  0.1879
  252loPI   C1B 4029   4.429   7.905   9.539 -0.0026  0.1185  0.1865
  252loPI   C2B 4030   4.582   8.019   9.134  0.0917  0.1070  0.0480
  252loPI   C3B 4031   4.701   8.086   8.767  0.1035 -0.2875  0.0646
  252loPI   C4B 4032   4.775   8.134   8.283  0.0608  0.0940 -0.2664
  253loPI    C1 4033  14.319  14.137  10.918 -0.1220  0.1011  0.1366
  253loPI    C2 4034  14.521  13.855  11.117 -0.0023  0.0698 -0.0277
  253loPI    C3 4035  14.676  14.221  11.075 -0.0692  0.1033  0.0165
  253loPI   PO4 4036  14.309  14.074  10.715 -0.1096  0.0307  0.0840
  253loPI   GL1 4037  14.357  14.208  10.242 -0.0138 -0.3016 -0.1302
  253loPI   GL2 4038  14.163  14.478  10.196  0.0637  0.0503  0.1406
  253loPI   C1A 4039  14.189  14.041   9.927  0.0816 -0.0390 -0.0994
  253loPI   C2A 4040  14.145  14.050   9.520  0.0501  0.0145  0.0371
  253loPI   C3A 4041  14.037  14.065   9.080  0.0552 -0.0169  0.0205
  253loPI   C4A 4042  13.986  14.159   8.653 -0.0871  0.0783  0.2787
  253loPI   C5A 4043  13.908  14.332   8.243  0.1383 -0.2036 -0.1882
  253loPI   C6A 4044  13.603  14.518   8.105  0.2449 -0.0697  0.0613
  253loPI   C1B 4045  14.015  14.491   9.772  0.0245 -0.1128  0.1016
  253loPI   C2B 4046  14.017  14.606   9.352 -0.0181  0.3875 -0.4190
  253loPI   C3B 4047  13.860  14.576   8.995 -0.0754  0.1013 -0.0242
  253loPI   C4B 4048  14.025  14.691   8.579  0.0865  0.1916  0.0694
  254loPI    C1 4049  17.772   2.894  10.392  0.2457  0.0437  0.0161
  254loPI    C2 4050  18.124   2.788  10.550  0.1758 -0.4016 -0.1106
  254loPI    C3 4051  17.803   2.829  10.785  0.2284 -0.3656 -0.0449
  254loPI   PO4 4052  17.847   2.859  10.155 -0.0287 -0.0576 -0.1215
  254loPI   GL1 4053  18.027   2.856   9.722 -0.0945 -0.0928  0.1148
  254loPI   GL2 4054  18.284   2.981   9.643  0.1879 -0.1728 -0.3075
  254loPI   C1A 4055  17.784   2.823   9.325  0.0784  0.1502  0.0002
  254loPI   C2A 4056  17.765   2.977   8.911 -0.1433 -0.0356 -0.1958
  254loPI   C3A 4057  17.789   3.156   8.535 -0.1157 -0.1034  0.0480
  254loPI   C4A 4058  17.900   3.069   8.092 -0.0544  0.2376 -0.0191
  254loPI   C5A 4059  17.999   2.977   7.726  0.1663 -0.4381 -0.2096
  254loPI   C6A 4060  17.922   2.821   7.303 -0.0570  0.0526 -0.0969
  254loPI   C1B 4061  18.239   3.056   9.237 -0.2365  0.0691  0.0724
  254loPI   C2B 4062  18.262   3.055   8.841 -0.0177  0.1433 -0.2078
  254loPI   C3B 4063  18.321   3.185   8.446 -0.1939  0.2014  0.1596
  254loPI   C4B 4064  18.433   3.092   8.024 -0.0499  0.2965  0.3023
  255loPI    C1 4065   2.370   4.849  10.224  0.0551 -0.0368 -0.2176
  255loPI    C2 4066   2.456   5.223  10.113 -0.1547  0.0531 -0.0837
  255loPI    C3 4067   2.503   5.112  10.494 -0.2361 -0.0134 -0.0927
  255loPI   PO4 4068   2.478   4.640  10.042 -0.0097 -0.1202 -0.1836
  255loPI   GL1 4069   2.456   4.541   9.662 -0.0254 -0.2768  0.3012
  255loPI   GL2 4070   2.553   4.253   9.517  0.2388  0.1117 -0.0225
  255loPI   C1A 4071   2.400   4.699   9.259  0.0948  0.2924  0.0628
  255loPI   C2A 4072   2.498   4.703   8.831 -0.0907  0.1254 -0.1106
  255loPI   C3A 4073   2.474   4.629   8.538  0.1855 -0.2651  0.0033
  255loPI   C4A 4074   2.392   4.567   8.040  0.1642 -0.3227  0.0418
  255loPI   C5A 4075   2.224   4.502   7.668  0.1532  0.1236 -0.1802
  255loPI   C6A 4076   2.055   4.406   7.299 -0.0732  0.1817  0.2501
  255loPI   C1B 4077   2.624   4.208   9.076 -0.0910 -0.1843 -0.1020
  255loPI   C2B 4078   2.687   4.196   8.638  0.0230 -0.0978  0.1454
  255loPI   C3B 4079   2.650   4.172   8.261  0.0603 -0.0865 -0.0436
  255loPI   C4B 4080   2.649   4.169   7.927 -0.2161  0.0205 -0.1256
  256loPI    C1 4081   9.792   4.090  11.213 -0.0014 -0.0816  0.0689
  256loPI    C2 4082   9.950   4.277  11.529  0.0020 -0.0424  0.0441
  256loPI    C3 4083   9.599   4.090  11.563 -0.1340  0.2006 -0.0014
  256loPI   PO4 4084   9.755   4.320  11.000 -0.0753 -0.1692  0.1156
  256loPI   GL1 4085   9.618   4.277  10.692  0.3257 -0.1461  0.0064
  256loPI   GL2 4086   9.671   4.149  10.389  0.1792 -0.2061 -0.0951
  256loPI   C1A 4087   9.445   4.561  10.501  0.0492  0.1590 -0.0848
  256loPI   C2A 4088   9.496   4.522  10.058 -0.0874 -0.1920 -0.1767
  256loPI   C3A 4089   9.505   4.556   9.625 -0.1915 -0.0290 -0.2896
  256loPI   C4A 4090   9.653   4.617   9.172  0.3503 -0.1030 -0.1525
  256loPI   C5A 4091   9.756   4.872   8.735 -0.0237 -0.2381  0.0294
  256loPI   C6A 4092   9.452   5.091   8.465  0.0230  0.1661  0.0651
  256loPI   C1B 4093   9.707   4.105   9.980  0.0513 -0.0412  0.0665
  256loPI   C2B 4094   9.698   4.087   9.688  0.4877  0.2626 -0.2063
  256loPI   C3B 4095   9.671   4.090   9.204  0.1956  0.1565  0.0822
  256loPI   C4B 4096   9.572   4.003   8.809 -0.2292 -0.2852  0.0318
  257loPI    C1 4097   1.775  14.849  10.570 -0.2067  0.0503 -0.0762
  257loPI    C2 4098   1.543  15.127  10.740 -0.1289 -0.0669  0.2297
  257loPI    C3 4099   1.840  14.960  10.949 -0.0358 -0.2230 -0.0222
  257loPI   PO4 4100   1.831  14.945  10.359  0.2294  0.1419 -0.1291
  257loPI   GL1 4101   1.688  15.061   9.979  0.1930 -0.1766  0.0785
  257loPI   GL2 4102   1.618  15.327   9.824  0.0046 -0.0729 -0.2465
  257loPI   C1A 4103   2.054  15.155   9.760 -0.2011  0.1700 -0.1092
  257loPI   C2A 4104   2.039  15.208   9.384  0.1162  0.2701 -0.0632
  257loPI   C3A 4105   2.149  15.103   9.082 -0.0288  0.1126 -0.2249
  257loPI   C4A 4106   2.073  15.286   8.618 -0.1909 -0.1324 -0.1166
  257loPI   C5A 4107   2.267  15.154   8.175 -0.2001  0.1215  0.0439
  257loPI   C6A 4108   2.683  15.258   8.088  0.2342 -0.1002 -0.0997
  257loPI   C1B 4109   1.562  15.418   9.371  0.0761  0.1590  0.1680
  257loPI   C2B 4110   1.551  15.408   8.857  0.0952 -0.2177 -0.2012
  257loPI   C3B 4111   1.602  15.559   8.428 -0.1342  0.2511 -0.2337
  257loPI   C4B 4112   1.822  15.464   7.993 -0.3333  0.1012  0.3307
  258loPI    C1 4113  11.004   0.154  11.116 -0.0357  0.0594  0.1252
  258loPI    C2 4114  10.993   0.047  11.502 -0.0474  0.1094  0.1387
  258loPI    C3 4115  10.889   0.418  11.394  0.3406  0.2210  0.1323
  258loPI   PO4 4116  11.019  -0.078  11.009 -0.3147 -0.1547 -0.2450
  258loPI   GL1 4117  11.079  -0.091  10.629  0.3429 -0.3206 -0.0093
  258loPI   GL2 4118  10.818  -0.351  10.643 -0.1282 -0.0613  0.1830
  258loPI   C1A 4119  11.083  -0.246  10.202  0.2047 -0.4112  0.0528
  258loPI   C2A 4120  10.990  -0.218   9.792  0.1182 -0.0068 -0.1198
  258loPI   C3A 4121  10.992  -0.306   9.367 -0.1202 -0.1370 -0.2947
  258loPI   C4A 4122  11.110  -0.360   8.932  0.0093  0.0867 -0.1268
  258loPI   C5A 4123  10.912  -0.458   8.592 -0.0845 -0.2019  0.3026
  258loPI   C6A 4124  10.536  -0.770   8.479 -0.1767 -0.0086 -0.1382
  258loPI   C1B 4125  10.582  -0.209  10.291 -0.2433 -0.8095  0.0029
  258loPI   C2B 4126  10.477  -0.067   9.892  0.1969 -0.0508 -0.1970
  258loPI   C3B 4127  10.537  -0.197   9.443 -0.0388 -0.3482 -0.0955
  258loPI   C4B 4128  10.628  -0.163   9.027  0.2088 -0.3086 -0.1258
  259loPI    C1 4129  16.513  11.888  10.255  0.0595  0.2042  0.1175
  259loPI    C2 4130  16.275  11.841  10.573 -0.0158  0.0047  0.0336
  259loPI    C3 4131  16.265  12.182  10.364 -0.0488  0.0921  0.1768
  259loPI   PO4 4132  16.480  11.777  10.035 -0.4535  0.0418 -0.3186
  259loPI   GL1 4133  16.599  11.977   9.589 -0.0010  0.0225  0.3629
  259loPI   GL2 4134  16.770  11.853   9.458 -0.1545  0.4098 -0.1192
  259loPI   C1A 4135  16.347  12.110   9.204  0.1339  0.2102  0.3285
  259loPI   C2A 4136  16.321  12.093   8.739  0.1881  0.0402 -0.3665
  259loPI   C3A 4137  16.421  11.998   8.302  0.3260  0.0237 -0.1171
  259loPI   C4A 4138  16.760  11.952   7.929  0.0326 -0.3069  0.0540
  259loPI   C5A 4139  16.934  11.645   7.629  0.2415  0.2811  0.1813
  259loPI   C6A 4140  16.858  11.312   7.317  0.1257  0.0087  0.2172
  259loPI   C1B 4141  16.660  11.728   9.112  0.0910 -0.0995  0.2190
  259loPI   C2B 4142  16.676  11.727   8.695  0.2841 -0.2557 -0.1991
  259loPI   C3B 4143  16.833  11.667   8.354  0.0299  0.1834  0.0436
  259loPI   C4B 4144  16.753  11.334   8.010  0.3601 -0.0001  0.0182
  260loPI    C1 4145   3.038   6.038  10.795  0.3089 -0.1387  0.0691
  260loPI    C2 4146   3.077   6.421  10.686  0.0553 -0.0807  0.1734
  260loPI    C3 4147   2.905   6.330  11.035 -0.3575 -0.3027 -0.0793
  260loPI   PO4 4148   3.158   5.936  10.578  0.1215 -0.2557  0.0745
  260loPI   GL1 4149   3.496   5.872  10.348 -0.2714  0.2408  0.1024
  260loPI   GL2 4150   3.725   6.013  10.085 -0.1632  0.0155 -0.0226
  260loPI   C1A 4151   3.491   5.584   9.955 -0.1060  0.1324 -0.2727
  260loPI   C2A 4152   3.696   5.619   9.552  0.4803 -0.0035  0.0214
  260loPI   C3A 4153   3.850   5.523   9.067 -0.0125  0.2700 -0.2146
  260loPI   C4A 4154   3.985   5.465   8.652 -0.0078 -0.2126  0.4684
  260loPI   C5A 4155   4.305   5.296   8.436 -0.0461 -0.1898  0.1105
  260loPI   C6A 4156   4.653   5.319   8.140 -0.0191 -0.1532  0.0230
  260loPI   C1B 4157   3.882   6.068   9.731 -0.1566 -0.0709 -0.0985
  260loPI   C2B 4158   3.993   5.993   9.309 -0.2641 -0.2805  0.1380
  260loPI   C3B 4159   4.230   5.770   8.953 -0.3293 -0.0877  0.1220
  260loPI   C4B 4160   4.326   5.863   8.590  0.3748  0.0162  0.0856
  261loPI    C1 4161  15.593   1.891  10.748 -0.2395 -0.0512  0.1356
  261loPI    C2 4162  15.961   1.738  10.788 -0.0794  0.3316  0.1696
  261loPI    C3 4163  15.696   1.704  11.086 -0.1461 -0.1285  0.0651
  261loPI   PO4 4164  15.488   1.830  10.559 -0.1055  0.1597  0.0498
  261loPI   GL1 4165  15.276   1.801  10.174  0.0870  0.3379  0.2128
  261loPI   GL2 4166  15.475   1.603  10.046  0.1207 -0.0854 -0.2084
  261loPI   C1A 4167  15.156   2.171   9.963 -0.0230 -0.1173  0.0471
  261loPI   C2A 4168  15.104   2.265   9.495  0.2025  0.0478 -0.1058
  261loPI   C3A 4169  15.125   2.181   9.051  0.1505 -0.0461 -0.1407
  261loPI   C4A 4170  15.122   2.242   8.602  0.4521  0.0270 -0.0004
  261loPI   C5A 4171  14.998   2.142   8.132 -0.1208 -0.4910  0.0037
  261loPI   C6A 4172  14.761   2.465   7.839  0.0827  0.1623 -0.2343
  261loPI   C1B 4173  15.395   1.673   9.605 -0.1298  0.1586 -0.1035
  261loPI   C2B 4174  15.306   1.699   9.184 -0.1850  0.1769  0.1257
  261loPI   C3B 4175  15.197   1.709   8.758 -0.3878 -0.0035 -0.1439
  261loPI   C4B 4176  15.173   1.734   8.344 -0.1221 -0.1962  0.2376
  262loPI    C1 4177  13.678  16.545  10.873 -0.1156  0.0924  0.1495
  262loPI    C2 4178  13.380  16.632  11.126 -0.2847 -0.1378  0.0338
  262loPI    C3 4179  13.593  16.297  11.175  0.0611  0.1012  0.2073
  262loPI   PO4 4180  13.556  16.623  10.637  0.0296  0.0789 -0.3999
  262loPI   GL1 4181  13.338  16.559  10.319 -0.0378  0.2461 -0.3009
  262loPI   GL2 4182  13.265  16.317  10.232  0.2967  0.3040  0.0426
  262loPI   C1A 4183  13.224  16.746   9.930  0.1072  0.0195 -0.1090
  262loPI   C2A 4184  13.186  16.721   9.523 -0.2405 -0.0217  0.0505
  262loPI   C3A 4185  13.014  16.914   9.198 -0.0554  0.0277 -0.1201
  262loPI   C4A 4186  12.969  17.031   8.790 -0.0183 -0.0612 -0.2523
  262loPI   C5A 4187  13.072  16.953   8.343  0.3204  0.2230  0.2330
  262loPI   C6A 4188  13.170  17.142   7.875  0.1886  0.0635  0.2941
  262loPI   C1B 4189  13.331  16.228   9.859  0.1449 -0.2318  0.1319
  262loPI   C2B 4190  13.259  16.182   9.519 -0.0385  0.0700  0.0256
  262loPI   C3B 4191  13.134  16.375   9.071 -0.0660  0.1439  0.1983
  262loPI   C4B 4192  13.078  16.514   8.615 -0.1566 -0.1270  0.4069
  263loPI    C1 4193   8.160   0.452  11.271 -0.3028 -0.0544 -0.1177
  263loPI    C2 4194   7.890   0.548  11.550 -0.1203 -0.0255  0.0512
  263loPI    C3 4195   7.913   0.172  11.414 -0.1579 -0.0576  0.1329
  263loPI   PO4 4196   8.154   0.635  11.138  0.0704  0.1075 -0.1032
  263loPI   GL1 4197   8.259   0.685  10.805  0.1982  0.0427  0.0706
  263loPI   GL2 4198   8.013   0.616  10.625 -0.1692  0.0552 -0.0666
  263loPI   C1A 4199   8.475   0.601  10.352  0.0116  0.3387 -0.0905
  263loPI   C2A 4200   8.479   0.499   9.960 -0.2748  0.0959 -0.2292
  263loPI   C3A 4201   8.500   0.502   9.581 -0.2126  0.0939  0.2290
  263loPI   C4A 4202   8.528   0.582   9.228 -0.1360  0.0635 -0.1850
  263loPI   C5A 4203   8.757   0.577   8.840 -0.0163 -0.3569 -0.1790
  263loPI   C6A 4204   9.061   0.841   8.718  0.0230  0.0623  0.0547
  263loPI   C1B 4205   8.032   0.730  10.197 -0.2622 -0.0392  0.0907
  263loPI   C2B 4206   8.048   0.777   9.795 -0.0652 -0.0554  0.2602
  263loPI   C3B 4207   8.008   0.715   9.375  0.0829  0.2470 -0.0242
  263loPI   C4B 4208   8.121   0.711   9.016 -0.1465 -0.3057 -0.0401
  264loPI    C1 4209  15.233  12.807  10.570  0.2132  0.1217 -0.0948
  264loPI    C2 4210  15.475  12.524  10.717  0.1894  0.1603  0.0202
  264loPI    C3 4211  15.204  12.698  10.954 -0.0218  0.0443 -0.1332
  264loPI   PO4 4212  15.183  12.771  10.349  0.1621  0.3757  0.2399
  264loPI   GL1 4213  15.203  12.631   9.903 -0.1348 -0.0103 -0.0228
  264loPI   GL2 4214  14.993  12.840   9.882  0.2949  0.0111 -0.1148
  264loPI   C1A 4215  15.150  12.316   9.664  0.0479 -0.1157 -0.1037
  264loPI   C2A 4216  15.000  12.385   9.269  0.0918 -0.2645 -0.0244
  264loPI   C3A 4217  14.919  12.337   8.914 -0.0433 -0.0229 -0.1057
  264loPI   C4A 4218  14.760  12.350   8.502 -0.2187  0.0169  0.1008
  264loPI   C5A 4219  14.728  12.376   8.164  0.1756 -0.0691 -0.0582
  264loPI   C6A 4220  14.328  12.391   7.865  0.1295 -0.3075  0.2540
  264loPI   C1B 4221  14.866  12.873   9.413 -0.0405  0.5228  0.2631
  264loPI   C2B 4222  14.817  12.862   8.911  0.0731 -0.1398  0.0157
  264loPI   C3B 4223  14.593  12.833   8.445 -0.1277  0.0006  0.0498
  264loPI   C4B 4224  14.465  12.804   8.039 -0.1287 -0.0277  0.1417
  265loPI    C1 4225   5.784  12.681  11.009  0.0281  0.1550  0.0523
  265loPI    C2 4226   5.693  12.889  11.339 -0.0708  0.0676  0.0803
  265loPI    C3 4227   5.673  12.489  11.342  0.0316  0.0614 -0.0002
  265loPI   PO4 4228   5.696  12.896  10.864  0.1297  0.0257  0.1015
  265loPI   GL1 4229   5.533  13.075  10.495 -0.2290  0.0584 -0.1169
  265loPI   GL2 4230   5.445  13.296  10.334  0.5206 -0.1952  0.1869
  265loPI   C1A 4231   5.693  13.012  10.028 -0.2597  0.2671 -0.1661
  265loPI   C2A 4232   5.801  12.984   9.710  0.2900 -0.3854 -0.2784
  265loPI   C3A 4233   5.863  12.925   9.317 -0.2457 -0.2217 -0.1881
  265loPI   C4A 4234   5.948  13.030   8.881  0.1973 -0.1296 -0.1278
  265loPI   C5A 4235   5.997  13.069   8.512  0.3843 -0.1688  0.0011
  265loPI   C6A 4236   5.803  13.305   8.283  0.0131 -0.1085  0.0033
  265loPI   C1B 4237   5.275  13.174   9.865  0.1083  0.1624 -0.0275
  265loPI   C2B 4238   5.401  13.117   9.469 -0.0044  0.1117 -0.0347
  265loPI   C3B 4239   5.433  13.158   9.013  0.5581  0.2280  0.1037
  265loPI   C4B 4240   5.448  13.164   8.572  0.2786  0.0368 -0.0474
  266loPI    C1 4241   3.059  14.913  10.754 -0.1167  0.1271 -0.2905
  266loPI    C2 4242   2.741  14.734  10.917  0.0909 -0.0244 -0.0450
  266loPI    C3 4243   2.803  15.124  10.976 -0.0527  0.0071 -0.1000
  266loPI   PO4 4244   3.061  14.790  10.465 -0.0149  0.0217  0.1942
  266loPI   GL1 4245   2.907  14.673  10.071 -0.1195  0.3083  0.1839
  266loPI   GL2 4246   3.256  14.721   9.991  0.1943  0.1806 -0.1401
  266loPI   C1A 4247   2.982  14.543   9.609  0.0574 -0.1714 -0.0713
  266loPI   C2A 4248   3.179  14.459   9.306  0.0531 -0.2216 -0.0487
  266loPI   C3A 4249   3.326  14.437   8.957  0.0323 -0.0109  0.0017
  266loPI   C4A 4250   3.340  14.346   8.530 -0.2008 -0.4670 -0.2495
  266loPI   C5A 4251   3.669  14.490   8.254 -0.1046 -0.1121 -0.0868
  266loPI   C6A 4252   4.037  14.173   8.243  0.0141  0.1106  0.1217
  266loPI   C1B 4253   3.501  14.782   9.565  0.4287  0.1766 -0.1673
  266loPI   C2B 4254   3.686  14.731   9.089  0.0764 -0.0226  0.0890
  266loPI   C3B 4255   3.672  14.768   8.648 -0.2081  0.1057 -0.1724
  266loPI   C4B 4256   3.460  14.953   8.296 -0.0429 -0.2537 -0.2055
  267loPI    C1 4257  14.803   7.730  11.001 -0.1961  0.0168 -0.1334
  267loPI    C2 4258  14.640   7.376  11.092  0.3494 -0.2544 -0.1725
  267loPI    C3 4259  14.846   7.579  11.369 -0.3159  0.2504 -0.0212
  267loPI   PO4 4260  14.835   7.709  10.695 -0.0905  0.2733  0.1324
  267loPI   GL1 4261  14.774   7.424  10.434 -0.0994 -0.3736  0.3540
  267loPI   GL2 4262  14.472   7.314  10.395  0.1265 -0.1992 -0.2402
  267loPI   C1A 4263  14.812   7.219  10.043  0.1082 -0.2168  0.0492
  267loPI   C2A 4264  14.847   7.145   9.643  0.3514  0.0702 -0.1521
  267loPI   C3A 4265  14.697   7.095   9.242  0.0319 -0.1641 -0.2394
  267loPI   C4A 4266  14.536   7.177   8.812 -0.3032  0.0200 -0.1921
  267loPI   C5A 4267  14.428   7.046   8.403  0.2102  0.3602  0.0022
  267loPI   C6A 4268  14.140   6.812   8.094 -0.0627 -0.1202 -0.0984
  267loPI   C1B 4269  14.419   7.517   9.890  0.0256 -0.0147  0.0408
  267loPI   C2B 4270  14.449   7.477   9.472  0.2564  0.2823 -0.0237
  267loPI   C3B 4271  14.434   7.641   9.112 -0.1028 -0.0613  0.1988
  267loPI   C4B 4272  14.288   7.701   8.688 -0.1027 -0.1771 -0.0703
  268loPI    C1 4273  11.085  16.670  11.022 -0.1334 -0.0037 -0.0583
  268loPI    C2 4274  11.089  16.423  11.337 -0.1957 -0.0145 -0.0660
  268loPI    C3 4275  10.750  16.608  11.232 -0.2217 -0.1597 -0.2430
  268loPI   PO4 4276  11.345  16.770  11.035 -0.1980  0.2702 -0.1602
  268loPI   GL1 4277  11.486  16.898  10.654 -0.2138  0.0602 -0.0821
  268loPI   GL2 4278  11.869  16.980  10.544 -0.2222 -0.2302  0.1413
  268loPI   C1A 4279  11.330  16.559  10.358 -0.0988 -0.3627 -0.0233
  268loPI   C2A 4280  11.252  16.505   9.934 -0.0828 -0.1794  0.0783
  268loPI   C3A 4281  11.295  16.460   9.534 -0.0101  0.0275 -0.1999
  268loPI   C4A 4282  11.238  16.529   9.175  0.0631  0.3151  0.3687
  268loPI   C5A 4283  11.276  16.415   8.702 -0.1849 -0.4565 -0.2366
  268loPI   C6A 4284  11.331  16.375   8.327 -0.2095 -0.0783  0.1759
  268loPI   C1B 4285  11.679  16.824  10.102  0.2132  0.0904  0.0334
  268loPI   C2B 4286  11.638  16.789   9.610 -0.1106  0.0695 -0.0149
  268loPI   C3B 4287  11.579  16.830   9.159 -0.0921  0.0378  0.3460
  268loPI   C4B 4288  11.336  16.887   8.732  0.0480  0.0396 -0.0861
  269loPI    C1 4289  12.641   0.741  11.140 -0.0271  0.0716  0.0462
  269loPI    C2 4290  12.659   1.006  11.438 -0.0441 -0.0777  0.1814
  269loPI    C3 4291  12.838   0.650  11.476  0.0122 -0.0713 -0.0145
  269loPI   PO4 4292  12.768   0.875  10.873  0.0959  0.0596 -0.0329
  269loPI   GL1 4293  12.977   1.282  10.723  0.0327  0.3869 -0.3100
  269loPI   GL2 4294  13.188   1.051  10.619  0.2904  0.2006  0.0037
  269loPI   C1A 4295  12.990   1.263  10.277 -0.0630  0.2100 -0.1268
  269loPI   C2A 4296  13.017   1.310   9.862 -0.0182 -0.0205 -0.0589
  269loPI   C3A 4297  13.022   1.398   9.396  0.0160  0.1045 -0.1362
  269loPI   C4A 4298  12.973   1.641   9.056  0.5056  0.0134  0.3527
  269loPI   C5A 4299  13.059   1.479   8.728  0.0319  0.0495  0.0496
  269loPI   C6A 4300  13.033   1.586   8.318  0.0450 -0.0083 -0.0871
  269loPI   C1B 4301  13.283   0.773  10.206  0.0515  0.2604  0.3245
  269loPI   C2B 4302  13.064   0.835   9.832  0.2480 -0.1559 -0.1994
  269loPI   C3B 4303  13.064   0.833   9.428  0.1823 -0.1544 -0.2746
  269loPI   C4B 4304  13.113   1.018   9.105  0.1407  0.1464 -0.0089
  270loPI    C1 4305  12.049  16.737  11.150 -0.1180  0.1223  0.2120
  270loPI    C2 4306  12.107  16.524  11.484 -0.0885  0.2392  0.2824
  270loPI    C3 4307  12.404  16.748  11.336 -0.0052 -0.0431  0.0106
  270loPI   PO4 4308  11.782  16.568  10.971  0.1227 -0.2174 -0.1395
  270loPI   GL1 4309  11.827  16.311  10.600  0.4793  0.0585  0.1544
  270loPI   GL2 4310  11.835  16.490  10.431  0.1805  0.0111 -0.2197
  270loPI   C1A 4311  12.280  16.243  10.376  0.0830  0.1260 -0.2701
  270loPI   C2A 4312  12.442  16.145  10.040 -0.0134 -0.1274  0.2876
  270loPI   C3A 4313  12.382  16.094   9.576 -0.0358 -0.1587  0.1951
  270loPI   C4A 4314  12.168  16.199   9.214 -0.1609  0.0544 -0.0448
  270loPI   C5A 4315  12.165  16.298   8.868  0.1011 -0.0690  0.1548
  270loPI   C6A 4316  12.120  16.248   8.434 -0.2366  0.3075 -0.0617
  270loPI   C1B 4317  11.864  16.248  10.054  0.2053  0.0955  0.1840
  270loPI   C2B 4318  11.813  16.306   9.589  0.1459 -0.3378 -0.2956
  270loPI   C3B 4319  11.701  16.333   9.116  0.1867  0.1367  0.1143
  270loPI   C4B 4320  11.771  16.559   8.710  0.1183  0.2605 -0.2552
  271loPI    C1 4321  12.324  13.154  11.003  0.0116 -0.0460 -0.0048
  271loPI    C2 4322  12.379  13.540  11.093  0.1262 -0.0266 -0.1539
  271loPI    C3 4323  12.560  13.256  11.309  0.0129  0.0011 -0.0215
  271loPI   PO4 4324  12.332  13.149  10.812  0.1522 -0.0330 -0.0629
  271loPI   GL1 4325  12.447  13.119  10.343 -0.1200 -0.0711  0.2596
  271loPI   GL2 4326  12.621  12.848  10.486 -0.3247 -0.1669  0.0973
  271loPI   C1A 4327  12.577  13.138   9.975 -0.0026 -0.3052 -0.2270
  271loPI   C2A 4328  12.506  13.126   9.524  0.3654 -0.1144  0.0823
  271loPI   C3A 4329  12.303  13.148   9.233  0.1156  0.1016 -0.0576
  271loPI   C4A 4330  12.373  13.251   8.814  0.1173  0.1365 -0.0065
  271loPI   C5A 4331  12.691  13.309   8.372 -0.1280  0.2041  0.0524
  271loPI   C6A 4332  12.724  13.442   8.010  0.4144  0.2892 -0.0534
  271loPI   C1B 4333  12.706  12.622  10.115 -0.0471  0.1347 -0.0904
  271loPI   C2B 4334  12.644  12.581   9.633 -0.1228  0.0350  0.2833
  271loPI   C3B 4335  12.632  12.662   9.272 -0.0442 -0.1818  0.2215
  271loPI   C4B 4336  12.372  12.726   8.946  0.1237 -0.3219  0.0085
  272loPI    C1 4337  14.305  17.619  11.008 -0.0599  0.0517 -0.2035
  272loPI    C2 4338  14.253  17.839  11.337  0.0437  0.0502 -0.1858
  272loPI    C3 4339  14.268  17.440  11.364 -0.3013  0.0299 -0.2374
  272loPI   PO4 4340  14.195  17.846  10.844 -0.2824 -0.0723  0.2913
  272loPI   GL1 4341  14.155  17.882  10.321  0.3948  0.1406  0.2338
  272loPI   GL2 4342  13.829  17.965  10.423 -0.0221 -0.1347  0.1282
  272loPI   C1A 4343  13.987  17.889   9.886  0.3323 -0.1304 -0.0675
  272loPI   C2A 4344  13.816  18.142   9.528  0.0138  0.1033  0.0255
  272loPI   C3A 4345  13.799  18.056   9.092 -0.2004  0.1990 -0.1759
  272loPI   C4A 4346  13.744  18.079   8.639  0.1468 -0.2651 -0.0735
  272loPI   C5A 4347  13.966  18.305   8.404 -0.0394 -0.2804  0.4155
  272loPI   C6A 4348  14.409  18.308   8.151  0.2027 -0.0840 -0.0233
  272loPI   C1B 4349  13.636  18.137  10.114  0.1611  0.2635  0.1692
  272loPI   C2B 4350  13.387  18.215   9.733  0.1677  0.1121 -0.0644
  272loPI   C3B 4351  13.326  18.190   9.280 -0.0849  0.0207 -0.2191
  272loPI   C4B 4352  13.167  18.318   8.984 -0.3472  0.1894  0.1266
  273loPI    C1 4353   9.860   2.855  11.350  0.3874 -0.1524  0.0044
  273loPI    C2 4354  10.076   2.935  11.678 -0.1230  0.2937  0.2468
  273loPI    C3 4355   9.691   2.830  11.712 -0.0392 -0.1964 -0.1922
  273loPI   PO4 4356  10.084   2.748  11.174 -0.1947  0.4039 -0.0330
  273loPI   GL1 4357  10.102   2.871  10.710  0.2029  0.2872  0.0003
  273loPI   GL2 4358  10.332   2.792  10.625  0.1924 -0.0266 -0.4216
  273loPI   C1A 4359   9.742   2.748  10.390  0.1253  0.0932 -0.0751
  273loPI   C2A 4360   9.550   2.770  10.117  0.1375  0.0663 -0.0237
  273loPI   C3A 4361   9.455   2.706   9.755 -0.0623  0.1251  0.1353
  273loPI   C4A 4362   9.494   2.701   9.303 -0.1329  0.0379 -0.0893
  273loPI   C5A 4363   9.456   2.780   8.982  0.1548  0.2333  0.0233
  273loPI   C6A 4364   9.558   2.742   8.613 -0.1003  0.1605 -0.0466
  273loPI   C1B 4365  10.539   2.749  10.265 -0.0574  0.1424 -0.0581
  273loPI   C2B 4366  10.510   2.818   9.820 -0.4045  0.0528  0.0771
  273loPI   C3B 4367  10.403   2.842   9.393  0.2699 -0.1722 -0.1196
  273loPI   C4B 4368  10.316   2.894   9.136  0.0013  0.3187 -0.0647
  274loPI    C1 4369   8.803  15.143  11.413 -0.0725 -0.1183 -0.1768
  274loPI    C2 4370   9.131  15.310  11.570 -0.0902 -0.0950 -0.1642
  274loPI    C3 4371   8.770  15.414  11.705 -0.1065 -0.0596 -0.2349
  274loPI   PO4 4372   8.918  15.118  11.169 -0.1449 -0.0336  0.4284
  274loPI   GL1 4373   8.894  15.299  10.789 -0.0535  0.2789  0.0074
  274loPI   GL2 4374   9.243  15.369  10.664  0.0371  0.0561 -0.0020
  274loPI   C1A 4375   8.742  15.450  10.406  0.0556  0.2140 -0.2202
  274loPI   C2A 4376   8.878  15.470  10.027  0.2155 -0.2501 -0.0767
  274loPI   C3A 4377   8.725  15.337   9.736 -0.3784 -0.1423 -0.2412
  274loPI   C4A 4378   8.767  15.305   9.270  0.2259  0.4457  0.0342
  274loPI   C5A 4379   8.739  15.444   8.821  0.1541  0.0887  0.4462
  274loPI   C6A 4380   8.827  15.458   8.374 -0.1108  0.0684  0.0710
  274loPI   C1B 4381   9.274  15.144  10.312  0.3228  0.3352 -0.2972
  274loPI   C2B 4382   9.281  15.223   9.919 -0.1380 -0.2229  0.2000
  274loPI   C3B 4383   9.235  15.189   9.507  0.0461  0.1381 -0.3925
  274loPI   C4B 4384   9.277  15.169   9.081  0.0281 -0.0431 -0.3996
  275loPI    C1 4385  11.030   8.726  10.990 -0.1043  0.3261  0.0256
  275loPI    C2 4386  10.639   8.665  11.045 -0.0571  0.0215  0.0385
  275loPI    C3 4387  10.906   8.465  11.266  0.1086  0.1034 -0.0851
  275loPI   PO4 4388  11.126   8.731  10.737  0.3579  0.1062  0.1472
  275loPI   GL1 4389  11.006   8.921  10.375 -0.0376 -0.1422 -0.0293
  275loPI   GL2 4390  11.272   9.117  10.337 -0.0945 -0.2140 -0.0256
  275loPI   C1A 4391  10.886   8.908   9.997  0.1909 -0.1177 -0.0867
  275loPI   C2A 4392  10.896   8.896   9.558  0.0450 -0.0855 -0.1701
  275loPI   C3A 4393  11.021   8.961   9.167  0.1181  0.0374 -0.3270
  275loPI   C4A 4394  10.978   8.973   8.780  0.2150  0.0773  0.0365
  275loPI   C5A 4395  10.973   8.874   8.303  0.1706  0.1678  0.1535
  275loPI   C6A 4396  10.872   8.953   7.945 -0.2343 -0.3865 -0.0300
  275loPI   C1B 4397  11.329   9.224   9.837 -0.1918  0.2421  0.2146
  275loPI   C2B 4398  11.309   9.281   9.399 -0.1029  0.4801 -0.2148
  275loPI   C3B 4399  11.347   9.305   8.954 -0.0151 -0.0033 -0.0884
  275loPI   C4B 4400  11.570   9.373   8.583  0.1043  0.0790 -0.1115
  276loPI    C1 4401  16.416   1.118  10.616  0.1276 -0.0774 -0.0505
  276loPI    C2 4402  16.680   1.223  10.897 -0.0912  0.2704  0.0315
  276loPI    C3 4403  16.451   0.899  10.948  0.2221  0.0425  0.0194
  276loPI   PO4 4404  16.213   1.372  10.507 -0.1283 -0.0136 -0.2640
  276loPI   GL1 4405  15.937   1.517  10.164 -0.0425 -0.0096  0.1279
  276loPI   GL2 4406  15.897   1.761  10.270 -0.1733 -0.1560 -0.0026
  276loPI   C1A 4407  15.883   1.504   9.784 -0.1923  0.1115 -0.4420
  276loPI   C2A 4408  15.865   1.637   9.425  0.1087 -0.1192 -0.1969
  276loPI   C3A 4409  15.726   1.497   9.058 -0.1125  0.1948  0.3202
  276loPI   C4A 4410  15.686   1.534   8.637 -0.1296  0.1309 -0.0530
  276loPI   C5A 4411  15.806   1.679   8.237 -0.0243  0.0147  0.3031
  276loPI   C6A 4412  15.937   2.073   8.014  0.0042 -0.1284  0.3322
  276loPI   C1B 4413  15.724   1.975   9.850 -0.2130  0.2052  0.0445
  276loPI   C2B 4414  15.629   2.042   9.363 -0.1069  0.2309 -0.2062
  276loPI   C3B 4415  15.581   2.030   8.872  0.1474 -0.1040  0.0616
  276loPI   C4B 4416  15.523   2.127   8.287  0.0715  0.2821 -0.2781
  277loPI    C1 4417   8.649   3.324  11.137  0.1304  0.0521  0.0681
  277loPI    C2 4418   8.421   3.163  11.423  0.0191 -0.1705 -0.1422
  277loPI    C3 4419   8.724   3.406  11.521 -0.1139 -0.1202  0.1543
  277loPI   PO4 4420   8.469   3.357  10.909  0.0840  0.2664  0.0850
  277loPI   GL1 4421   8.470   3.438  10.532  0.3620  0.4245 -0.0234
  277loPI   GL2 4422   8.085   3.322  10.399 -0.1113 -0.0278  0.1663
  277loPI   C1A 4423   8.760   3.401  10.264 -0.1740  0.0227 -0.0642
  277loPI   C2A 4424   8.826   3.335   9.814  0.1041  0.1024 -0.1258
  277loPI   C3A 4425   8.916   3.462   9.334  0.2031 -0.0514 -0.4824
  277loPI   C4A 4426   8.945   3.514   8.874 -0.0538 -0.1304 -0.0498
  277loPI   C5A 4427   8.814   3.218   8.524 -0.0895 -0.1160  0.1474
  277loPI   C6A 4428   8.884   3.158   8.067 -0.0530  0.4769 -0.2310
  277loPI   C1B 4429   7.888   3.214   9.959  0.1369 -0.0023  0.0955
  277loPI   C2B 4430   7.999   3.191   9.538 -0.0693  0.2293  0.0660
  277loPI   C3B 4431   8.062   3.133   9.154 -0.1818 -0.1544 -0.0126
  277loPI   C4B 4432   7.957   2.997   8.815 -0.3802 -0.3727 -0.0456
  278loPI    C1 4433  15.779  12.050  10.250 -0.2065  0.0013  0.0940
  278loPI    C2 4434  15.768  11.783  10.547  0.1570 -0.0658  0.0520
  278loPI    C3 4435  15.834  12.169  10.627 -0.3350  0.0137  0.1094
  278loPI   PO4 4436  15.651  11.839  10.034 -0.1074 -0.1599 -0.1744
  278loPI   GL1 4437  15.670  11.606   9.774  0.0853  0.1278  0.0295
  278loPI   GL2 4438  15.770  11.388   9.692  0.3097 -0.0384  0.1002
  278loPI   C1A 4439  15.868  11.940   9.420 -0.0188 -0.1593 -0.0636
  278loPI   C2A 4440  15.806  11.976   8.896 -0.1332 -0.0519 -0.1314
  278loPI   C3A 4441  15.780  12.062   8.418 -0.1415 -0.0295 -0.3731
  278loPI   C4A 4442  15.896  11.812   7.962 -0.0177  0.1888  0.0587
  278loPI   C5A 4443  16.058  11.391   7.816  0.1132 -0.1274  0.1596
  278loPI   C6A 4444  16.264  11.068   7.992 -0.2118 -0.1721 -0.1805
  278loPI   C1B 4445  15.618  11.528   9.234  0.2444 -0.0503  0.1032
  278loPI   C2B 4446  15.550  11.536   8.818  0.0596 -0.0442  0.0225
  278loPI   C3B 4447  15.382  11.724   8.481 -0.0217  0.2203  0.1218
  278loPI   C4B 4448  15.381  11.871   8.025 -0.0467  0.0824 -0.3071
  279loPI    C1 4449   0.064  16.217  10.703 -0.0039 -0.0502  0.1907
  279loPI    C2 4450   0.090  15.819  10.671  0.0745 -0.0400  0.1226
  279loPI    C3 4451   0.406  16.047  10.582  0.0249  0.0385  0.1468
  279loPI   PO4 4452  -0.118  16.374  10.633 -0.3087  0.1612  0.4402
  279loPI   GL1 4453  -0.247  16.491  10.108  0.1236  0.0013 -0.0907
  279loPI   GL2 4454  -0.013  16.404  10.155 -0.1978  0.0185  0.1208
  279loPI   C1A 4455  -0.480  16.515   9.747 -0.1440  0.3120  0.3668
  279loPI   C2A 4456  -0.438  16.637   9.315 -0.1117  0.1743 -0.0005
  279loPI   C3A 4457  -0.294  16.750   8.806  0.0787 -0.0542 -0.1627
  279loPI   C4A 4458  -0.311  16.815   8.338 -0.0927 -0.1711  0.0034
  279loPI   C5A 4459  -0.491  16.748   7.933  0.0674 -0.0453  0.0294
  279loPI   C6A 4460  -0.906  16.561   8.016 -0.1073  0.0687 -0.3591
  279loPI   C1B 4461  -0.006  16.487   9.660 -0.0262 -0.4103 -0.0780
  279loPI   C2B 4462   0.081  16.704   9.270 -0.0079  0.2254 -0.5671
  279loPI   C3B 4463   0.210  16.866   8.767  0.1011  0.0292 -0.2706
  279loPI   C4B 4464   0.171  16.702   8.361 -0.2089 -0.1127 -0.2556
  280loPI    C1 4465  10.604  17.408  11.237  0.0042 -0.0698  0.0593
  280loPI    C2 4466  10.830  17.110  11.094  0.0722  0.0305 -0.0436
  280loPI    C3 4467  10.980  17.364  11.364  0.0406  0.0210 -0.0168
  280loPI   PO4 4468  10.469  17.447  10.993 -0.2132  0.1724  0.1336
  280loPI   GL1 4469  10.273  17.411  10.645  0.0301 -0.0973 -0.0953
  280loPI   GL2 4470  10.185  17.739  10.557 -0.3375  0.0078 -0.1094
  280loPI   C1A 4471  10.062  17.290  10.290  0.3714 -0.3163  0.1151
  280loPI   C2A 4472  10.024  17.353   9.917 -0.1705  0.0842  0.1550
  280loPI   C3A 4473  10.191  17.225   9.576  0.1269 -0.0168 -0.1247
  280loPI   C4A 4474  10.183  17.376   9.154 -0.1162 -0.1672 -0.0211
  280loPI   C5A 4475  10.047  17.685   8.827  0.3416 -0.0599  0.0101
  280loPI   C6A 4476   9.674  17.752   8.603 -0.0457 -0.2024  0.1928
  280loPI   C1B 4477  10.017  17.760  10.157  0.0557 -0.0904 -0.4031
  280loPI   C2B 4478  10.001  17.801   9.717 -0.0086 -0.0826 -0.2694
  280loPI   C3B 4479  10.074  17.835   9.317 -0.2492  0.1456 -0.1543
  280loPI   C4B 4480  10.341  18.014   8.805 -0.3505 -0.1465 -0.0708
  281loPI    C1 4481   4.935   8.118  10.743 -0.1145 -0.1782 -0.2227
  281loPI    C2 4482   4.620   8.204  10.975 -0.2090 -0.0926 -0.3814
  281loPI    C3 4483   4.861   7.900  11.070 -0.0715  0.1267 -0.0045
  281loPI   PO4 4484   5.033   8.328  10.699  0.3378 -0.0081  0.2867
  281loPI   GL1 4485   5.107   8.543  10.361 -0.3644 -0.0205  0.2074
  281loPI   GL2 4486   4.836   8.527  10.154 -0.0233  0.1106  0.0628
  281loPI   C1A 4487   5.377   8.746  10.111  0.0287 -0.0254  0.1529
  281loPI   C2A 4488   5.374   8.783   9.674  0.0147 -0.0444  0.1188
  281loPI   C3A 4489   5.371   8.744   9.244  0.2579 -0.0118 -0.1688
  281loPI   C4A 4490   5.462   8.786   8.845 -0.0398 -0.2503 -0.0215
  281loPI   C5A 4491   5.651   8.653   8.454  0.3227  0.0524  0.0514
  281loPI   C6A 4492   5.603   8.366   8.216  0.1168 -0.0225 -0.2001
  281loPI   C1B 4493   4.938   8.463   9.810  0.2218  0.1320  0.1016
  281loPI   C2B 4494   4.961   8.426   9.429 -0.4963  0.1742 -0.1005
  281loPI   C3B 4495   5.053   8.424   8.946  0.0134 -0.1735  0.1004
  281loPI   C4B 4496   5.179   8.402   8.534  0.0273  0.0117  0.4186
  282loPI    C1 4497   3.516  16.966  10.577 -0.0316  0.0159  0.0918
  282loPI    C2 4498   3.514  16.821  10.949 -0.1583  0.0971  0.1233
  282loPI    C3 4499   3.568  17.212  10.888 -0.2629  0.1026  0.0639
  282loPI   PO4 4500   3.647  16.719  10.453  0.3159  0.1286  0.3689
  282loPI   GL1 4501   3.741  16.395  10.123  0.0771 -0.2625 -0.2157
  282loPI   GL2 4502   3.906  16.592   9.974  0.1816 -0.2934  0.4168
  282loPI   C1A 4503   3.461  16.429   9.800  0.3395 -0.1134  0.1535
  282loPI   C2A 4504   3.174  16.544   9.386  0.1635  0.1740 -0.0808
  282loPI   C3A 4505   3.209  16.730   8.910  0.0971  0.1671 -0.0273
  282loPI   C4A 4506   3.175  16.831   8.385  0.1604  0.0278  0.2468
  282loPI   C5A 4507   2.784  17.029   8.125  0.6010 -0.2015  0.0570
  282loPI   C6A 4508   2.379  17.113   8.248 -0.1791 -0.0304  0.1394
  282loPI   C1B 4509   3.812  16.576   9.469 -0.0626 -0.0967 -0.3177
  282loPI   C2B 4510   3.722  16.552   9.096  0.1386  0.3017  0.2265
  282loPI   C3B 4511   3.743  16.640   8.728  0.2133 -0.1093  0.2604
  282loPI   C4B 4512   3.664  16.584   8.298  0.2243  0.1978  0.2705
  283loPI    C1 4513   0.990   1.645  10.644 -0.1182 -0.0709 -0.2182
  283loPI    C2 4514   1.108   1.270  10.717 -0.0232  0.0142  0.0815
  283loPI    C3 4515   1.380   1.558  10.661 -0.0958  0.0278 -0.2182
  283loPI   PO4 4516   0.838   1.680  10.430 -0.2810  0.2144  0.1099
  283loPI   GL1 4517   0.695   1.561  10.029  0.0319  0.1515  0.2381
  283loPI   GL2 4518   0.700   1.932   9.939  0.2826  0.2754  0.0837
  283loPI   C1A 4519   0.652   1.545   9.577 -0.2782  0.2480 -0.0648
  283loPI   C2A 4520   0.566   1.566   9.021 -0.0267 -0.2007  0.1836
  283loPI   C3A 4521   0.446   1.270   8.701 -0.2020 -0.3351 -0.2249
  283loPI   C4A 4522   0.086   1.137   8.683  0.0830  0.2395 -0.2066
  283loPI   C5A 4523  -0.167   0.827   8.416 -0.0447 -0.0172  0.0352
  283loPI   C6A 4524  -0.415   0.580   8.154 -0.0765  0.2684 -0.3455
  283loPI   C1B 4525   0.769   2.050   9.497  0.1062  0.0238  0.1613
  283loPI   C2B 4526   0.779   2.024   8.984 -0.0166 -0.2198  0.1848
  283loPI   C3B 4527   0.653   2.064   8.616 -0.3437 -0.1623 -0.0154
  283loPI   C4B 4528   0.593   2.238   8.217 -0.1904  0.1955  0.2819
  284loPI    C1 4529   4.080  17.312  10.811  0.2411  0.0387  0.1044
  284loPI    C2 4530   3.821  17.604  10.721  0.0703 -0.1686 -0.0902
  284loPI    C3 4531   3.934  17.546  11.100 -0.0424  0.0277 -0.0253
  284loPI   PO4 4532   3.996  17.098  10.651  0.0121 -0.1621 -0.1163
  284loPI   GL1 4533   3.893  17.056  10.173  0.0343 -0.4196 -0.3249
  284loPI   GL2 4534   3.757  17.329  10.280 -0.0575  0.1764  0.0021
  284loPI   C1A 4535   4.011  16.994   9.718  0.0574 -0.3598 -0.1300
  284loPI   C2A 4536   4.121  16.906   9.254  0.1058 -0.0184 -0.0144
  284loPI   C3A 4537   4.155  16.868   8.909 -0.1605 -0.0138 -0.1067
  284loPI   C4A 4538   4.226  16.786   8.576  0.1263 -0.1042  0.0297
  284loPI   C5A 4539   4.321  17.117   8.211 -0.2773  0.1827  0.2603
  284loPI   C6A 4540   4.270  17.456   8.047 -0.1396 -0.1448 -0.2503
  284loPI   C1B 4541   3.754  17.438   9.848  0.1144  0.0959 -0.0971
  284loPI   C2B 4542   3.999  17.394   9.414 -0.0668  0.1569 -0.1620
  284loPI   C3B 4543   4.145  17.399   9.004  0.1484 -0.0432  0.1232
  284loPI   C4B 4544   4.036  17.321   8.622  0.2196 -0.4431  0.0758
  285loPI    C1 4545   9.026   3.847  11.299 -0.0727  0.0164 -0.3452
  285loPI    C2 4546   9.366   3.773  11.100  0.0364 -0.0411 -0.1400
  285loPI    C3 4547   9.119   3.472  11.195  0.0519 -0.0318 -0.0690
  285loPI   PO4 4548   8.889   4.037  11.191 -0.2529  0.0671 -0.0864
  285loPI   GL1 4549   9.028   4.078  10.778  0.3574  0.0373 -0.2505
  285loPI   GL2 4550   9.061   4.305  10.670 -0.2217  0.2708  0.0246
  285loPI   C1A 4551   8.796   3.927  10.375  0.0880 -0.0293  0.0810
  285loPI   C2A 4552   8.766   3.814   9.924 -0.2791 -0.2307  0.1014
  285loPI   C3A 4553   8.761   3.884   9.517  0.0193  0.1172  0.1648
  285loPI   C4A 4554   8.728   3.933   9.134  0.2469 -0.1584 -0.0275
  285loPI   C5A 4555   8.787   4.000   8.728 -0.0998  0.0124 -0.0129
  285loPI   C6A 4556   8.973   4.344   8.532  0.1740 -0.1425 -0.0451
  285loPI   C1B 4557   9.180   4.180  10.200  0.2521  0.1368  0.1248
  285loPI   C2B 4558   9.154   4.117   9.755 -0.3422  0.0052  0.2494
  285loPI   C3B 4559   9.208   4.237   9.358  0.0533  0.0865 -0.1715
  285loPI   C4B 4560   9.187   4.256   8.943 -0.2054 -0.1017 -0.0229
  286loPI    C1 4561  14.463   9.898  11.165 -0.2539 -0.1827 -0.0697
  286loPI    C2 4562  14.490  10.268  11.316 -0.1931 -0.2534  0.0953
  286loPI    C3 4563  14.189  10.028  11.425 -0.1050 -0.3326  0.1665
  286loPI   PO4 4564  14.576   9.979  10.872  0.0237  0.0757  0.0730
  286loPI   GL1 4565  14.600  10.157  10.482 -0.3590 -0.0420 -0.2002
  286loPI   GL2 4566  14.542   9.854  10.213 -0.0775  0.1395  0.1260
  286loPI   C1A 4567  14.513  10.526  10.247  0.1206  0.0354 -0.3172
  286loPI   C2A 4568  14.510  10.554   9.753 -0.1757  0.1183  0.0235
  286loPI   C3A 4569  14.367  10.667   9.414 -0.0276  0.2430  0.2135
  286loPI   C4A 4570  14.377  10.570   8.965  0.1173 -0.0281 -0.2593
  286loPI   C5A 4571  14.411  10.699   8.446  0.0806 -0.1034 -0.1330
  286loPI   C6A 4572  14.803  10.648   8.096 -0.1282 -0.1421  0.1080
  286loPI   C1B 4573  14.517  10.100   9.952 -0.1886 -0.3247 -0.1820
  286loPI   C2B 4574  14.455  10.102   9.511  0.0819 -0.0362  0.3575
  286loPI   C3B 4575  14.491  10.100   9.132 -0.0717  0.0937 -0.2378
  286loPI   C4B 4576  14.436  10.109   8.670 -0.2326 -0.0450 -0.0548
  287loPI    C1 4577  15.906   4.252  10.670  0.0892 -0.0290  0.2214
  287loPI    C2 4578  15.790   4.377  11.032  0.0804 -0.1299  0.2537
  287loPI    C3 4579  16.164   4.446  10.906 -0.0119  0.1980  0.1487
  287loPI   PO4 4580  15.668   4.229  10.572  0.0567  0.1490  0.0751
  287loPI   GL1 4581  15.621   4.007  10.193  0.0873  0.0569 -0.0908
  287loPI   GL2 4582  15.316   4.087  10.195  0.0251 -0.2782 -0.3714
  287loPI   C1A 4583  15.761   3.873   9.784 -0.0907 -0.1241 -0.2480
  287loPI   C2A 4584  15.718   3.805   9.362 -0.3584 -0.0582 -0.2398
  287loPI   C3A 4585  15.695   3.957   8.993  0.0178 -0.0025  0.0530
  287loPI   C4A 4586  15.668   4.103   8.615  0.0132 -0.0792  0.0784
  287loPI   C5A 4587  15.510   4.177   8.165  0.1093  0.0191  0.0088
  287loPI   C6A 4588  15.245   3.948   7.903 -0.0300 -0.2726 -0.2125
  287loPI   C1B 4589  15.210   4.077   9.713 -0.2010 -0.0367  0.0662
  287loPI   C2B 4590  15.232   4.011   9.253  0.1753 -0.0709  0.2929
  287loPI   C3B 4591  15.214   4.145   8.788  0.0053  0.0884 -0.2376
  287loPI   C4B 4592  15.009   4.021   8.406 -0.0854  0.1541 -0.0741
  288loPI    C1 4593  12.052   4.429  11.384  0.2095 -0.5067  0.1518
  288loPI    C2 4594  11.683   4.279  11.348  0.1406 -0.2947 -0.0488
  288loPI    C3 4595  11.844   4.327  11.711 -0.0515 -0.3329  0.0429
  288loPI   PO4 4596  12.042   4.456  11.049 -0.1706  0.0058  0.1483
  288loPI   GL1 4597  12.267   4.723  10.711  0.3610  0.1069 -0.0643
  288loPI   GL2 4598  11.977   4.851  10.684  0.1529 -0.1336  0.2070
  288loPI   C1A 4599  12.409   4.669  10.332  0.0712 -0.0575  0.2736
  288loPI   C2A 4600  12.303   4.683   9.859  0.0144 -0.0118  0.0829
  288loPI   C3A 4601  12.330   4.595   9.399 -0.2397 -0.1178  0.2565
  288loPI   C4A 4602  12.140   4.556   8.977  0.1005 -0.1717 -0.0385
  288loPI   C5A 4603  12.304   4.331   8.618  0.1065 -0.1661 -0.0578
  288loPI   C6A 4604  12.387   3.916   8.546 -0.1809 -0.1443  0.2072
  288loPI   C1B 4605  11.881   4.797  10.209 -0.1668 -0.1304  0.2649
  288loPI   C2B 4606  11.776   4.693   9.770  0.1205 -0.1605  0.0169
  288loPI   C3B 4607  11.816   4.692   9.378  0.2019 -0.0466  0.0152
  288loPI   C4B 4608  11.674   4.768   8.929  0.0444  0.1892  0.2238
  289loPI    C1 4609   1.834   2.350  10.403 -0.0093 -0.0284 -0.0449
  289loPI    C2 4610   1.749   2.019  10.610  0.0942 -0.0126  0.0236
  289loPI    C3 4611   1.964   2.311  10.779 -0.1081  0.1471  0.0086
  289loPI   PO4 4612   1.709   2.265  10.132 -0.1542 -0.1800 -0.4368
  289loPI   GL1 4613   1.731   2.504   9.734  0.0019  0.3674  0.1014
  289loPI   GL2 4614   1.613   2.825   9.775 -0.0055  0.0244 -0.1489
  289loPI   C1A 4615   1.687   2.320   9.273 -0.0787 -0.0752  0.0309
  289loPI   C2A 4616   1.799   2.296   8.871  0.3894 -0.1126  0.0835
  289loPI   C3A 4617   1.804   2.107   8.597 -0.0272  0.1962 -0.0962
  289loPI   C4A 4618   1.577   2.025   8.204 -0.1549 -0.0448 -0.1763
  289loPI   C5A 4619   1.645   2.333   7.893  0.1367 -0.0848 -0.0200
  289loPI   C6A 4620   1.796   2.632   7.608 -0.0046 -0.3316 -0.0274
  289loPI   C1B 4621   1.673   2.840   9.311 -0.0011  0.0912  0.0399
  289loPI   C2B 4622   1.745   2.866   8.922 -0.0456  0.1250 -0.0300
  289loPI   C3B 4623   1.790   2.618   8.483  0.2370 -0.1210 -0.0348
  289loPI   C4B 4624   2.064   2.413   8.217  0.1060 -0.0958 -0.1150
  290loPI    C1 4625   2.320   9.604  10.483 -0.1080  0.0343  0.0222
  290loPI    C2 4626   2.597   9.794  10.700 -0.0505 -0.1084  0.0747
  290loPI    C3 4627   2.210   9.831  10.793 -0.0347 -0.0688  0.1245
  290loPI   PO4 4628   2.430   9.529  10.240 -0.2250  0.0875  0.0267
  290loPI   GL1 4629   2.528   9.648   9.773  0.1330 -0.0078  0.2920
  290loPI   GL2 4630   2.705   9.409   9.769 -0.2239  0.0184  0.1797
  290loPI   C1A 4631   2.364   9.809   9.345 -0.3391 -0.1742  0.2316
  290loPI   C2A 4632   2.360   9.717   8.906  0.0005 -0.0521 -0.1384
  290loPI   C3A 4633   2.360   9.827   8.459 -0.0606  0.1537  0.0196
  290loPI   C4A 4634   2.556   9.906   8.067  0.1629  0.2666 -0.1013
  290loPI   C5A 4635   2.793   9.744   7.750 -0.1837 -0.0060 -0.0131
  290loPI   C6A 4636   3.186   9.531   7.991 -0.0554  0.2961 -0.2249
  290loPI   C1B 4637   2.503   9.284   9.358  0.0207 -0.0412 -0.0963
  290loPI   C2B 4638   2.512   9.258   8.886  0.1423 -0.0048 -0.1331
  290loPI   C3B 4639   2.571   9.136   8.477 -0.0385 -0.2046 -0.1348
  290loPI   C4B 4640   2.709   9.344   8.153 -0.0198 -0.0289  0.2380
  291loPI    C1 4641  16.036   4.977  11.034  0.1444  0.0850  0.0155
  291loPI    C2 4642  16.406   4.859  11.129  0.1881  0.2693  0.0781
  291loPI    C3 4643  16.187   5.062  11.394 -0.0140  0.0346  0.0946
  291loPI   PO4 4644  16.028   5.143  10.845  0.1436  0.0926  0.1091
  291loPI   GL1 4645  15.871   5.280  10.420  0.0372  0.0459  0.3543
  291loPI   GL2 4646  15.765   5.102  10.349  0.0104  0.3915 -0.0932
  291loPI   C1A 4647  16.014   5.294   9.906  0.1175  0.3150 -0.6293
  291loPI   C2A 4648  15.963   5.258   9.521 -0.0114  0.1286  0.0417
  291loPI   C3A 4649  15.787   5.236   9.129 -0.2462  0.2471 -0.0400
  291loPI   C4A 4650  15.755   5.321   8.749 -0.0735 -0.1612  0.0394
  291loPI   C5A 4651  15.846   5.266   8.341 -0.0770 -0.0558  0.2312
  291loPI   C6A 4652  15.462   5.174   8.224 -0.1428  0.1887 -0.0101
  291loPI   C1B 4653  15.653   4.875   9.958 -0.1451 -0.1710 -0.3934
  291loPI   C2B 4654  15.506   4.952   9.623 -0.1853  0.1805 -0.1595
  291loPI   C3B 4655  15.370   4.912   9.228  0.1400 -0.0822 -0.0685
  291loPI   C4B 4656  15.426   4.973   8.779 -0.1905  0.1748 -0.4903
  292loPI    C1 4657  17.266   9.783  10.332 -0.0000  0.1047 -0.1151
  292loPI    C2 4658  17.072  10.060  10.545  0.0283  0.1013 -0.0848
  292loPI    C3 4659  17.401   9.887  10.694 -0.0653 -0.0450 -0.0467
  292loPI   PO4 4660  17.317   9.895  10.035 -0.0771 -0.3239  0.1666
  292loPI   GL1 4661  17.175   9.997   9.612 -0.3107 -0.0346  0.1815
  292loPI   GL2 4662  17.219   9.646   9.612 -0.0014  0.0001 -0.1719
  292loPI   C1A 4663  16.808  10.252   9.389  0.1095 -0.2307 -0.1239
  292loPI   C2A 4664  16.850  10.245   8.961  0.1108 -0.0090 -0.2656
  292loPI   C3A 4665  16.663  10.363   8.521 -0.3737  0.2801  0.3087
  292loPI   C4A 4666  16.813  10.422   8.117 -0.2152 -0.0215  0.0227
  292loPI   C5A 4667  17.060  10.378   7.727  0.0177  0.0342 -0.3865
  292loPI   C6A 4668  17.486  10.355   7.582  0.1265 -0.0832 -0.0090
  292loPI   C1B 4669  17.057   9.856   9.145 -0.0215 -0.1364 -0.1728
  292loPI   C2B 4670  16.919   9.792   8.747  0.0114  0.0632  0.1131
  292loPI   C3B 4671  16.869   9.857   8.319 -0.1667  0.0097  0.2736
  292loPI   C4B 4672  16.974   9.909   7.885  0.1747 -0.2787  0.0589
  293loPI    C1 4673   5.385  14.365  10.886  0.2645  0.0254  0.0502
  293loPI    C2 4674   5.165  14.255  11.202  0.1707 -0.0589 -0.0434
  293loPI    C3 4675   5.565  14.249  11.224  0.1646 -0.1125  0.0570
  293loPI   PO4 4676   5.357  14.223  10.630  0.1524 -0.1962 -0.0663
  293loPI   GL1 4677   5.542  14.201  10.348  0.1226 -0.0058 -0.2566
  293loPI   GL2 4678   5.515  13.797  10.292  0.0696  0.1410  0.3647
  293loPI   C1A 4679   5.546  14.484  10.016 -0.1103  0.4019 -0.0204
  293loPI   C2A 4680   5.468  14.555   9.564  0.1454  0.0216  0.0594
  293loPI   C3A 4681   5.497  14.521   9.162  0.1142  0.0647  0.2506
  293loPI   C4A 4682   5.594  14.573   8.703 -0.4407  0.1756  0.2352
  293loPI   C5A 4683   5.844  14.420   8.221 -0.0756  0.1990 -0.0609
  293loPI   C6A 4684   6.102  14.537   7.883  0.1557 -0.0296 -0.2856
  293loPI   C1B 4685   5.647  13.920   9.838 -0.1141 -0.0853  0.0668
  293loPI   C2B 4686   5.614  13.923   9.395  0.1745 -0.1230  0.1890
  293loPI   C3B 4687   5.616  14.047   9.031  0.0979  0.0493  0.1133
  293loPI   C4B 4688   5.669  14.067   8.682 -0.3042  0.2347 -0.2163
  294loPI    C1 4689   2.316  14.888  10.552 -0.0174 -0.3471 -0.2277
  294loPI    C2 4690   2.325  15.018  10.930  0.1152  0.0072 -0.3483
  294loPI    C3 4691   2.275  14.629  10.853 -0.3585 -0.0145  0.0217
  294loPI   PO4 4692   2.578  14.991  10.480  0.0193  0.1643  0.0003
  294loPI   GL1 4693   2.769  15.186  10.111 -0.2176  0.0444 -0.0999
  294loPI   GL2 4694   2.497  15.388   9.940 -0.0169 -0.0751  0.0611
  294loPI   C1A 4695   2.994  15.016   9.688 -0.0446 -0.2025 -0.0806
  294loPI   C2A 4696   3.129  14.966   9.246  0.0972 -0.2200 -0.3142
  294loPI   C3A 4697   3.144  14.881   8.811 -0.0124  0.1633 -0.2741
  294loPI   C4A 4698   2.923  14.727   8.525  0.1252  0.2246 -0.1050
  294loPI   C5A 4699   2.808  14.288   8.290  0.0428 -0.1801 -0.0600
  294loPI   C6A 4700   2.866  13.983   7.968  0.2403 -0.0720  0.1640
  294loPI   C1B 4701   2.447  15.477   9.493 -0.0480 -0.1379 -0.0640
  294loPI   C2B 4702   2.501  15.499   9.064  0.1456  0.1604  0.1356
  294loPI   C3B 4703   2.578  15.594   8.640  0.4950  0.0227 -0.0475
  294loPI   C4B 4704   2.557  15.710   8.234  0.0215  0.4725 -0.2632
  295loPI    C1 4705   8.117  14.942  11.181 -0.0891  0.3278  0.1994
  295loPI    C2 4706   7.800  14.752  11.335  0.0426  0.0456  0.1292
  295loPI    C3 4707   7.971  15.053  11.537 -0.2306  0.1597  0.1948
  295loPI   PO4 4708   8.068  14.978  10.915 -0.0260  0.1783 -0.0680
  295loPI   GL1 4709   7.887  14.963  10.490  0.1922 -0.2655 -0.1493
  295loPI   GL2 4710   8.206  14.957  10.372 -0.1633 -0.1267  0.2679
  295loPI   C1A 4711   7.934  14.727  10.061  0.1795  0.0091  0.2666
  295loPI   C2A 4712   7.923  14.737   9.519  0.0809  0.0241  0.1199
  295loPI   C3A 4713   8.044  14.829   9.136  0.1774 -0.1399  0.2018
  295loPI   C4A 4714   8.052  14.682   8.727 -0.0857 -0.2236  0.0192
  295loPI   C5A 4715   8.317  14.488   8.477  0.2322 -0.1664  0.0626
  295loPI   C6A 4716   8.261  14.060   8.397  0.3090 -0.0719  0.0011
  295loPI   C1B 4717   8.329  15.024   9.896  0.1300  0.0273  0.0359
  295loPI   C2B 4718   8.388  15.091   9.476 -0.1722  0.1918 -0.6324
  295loPI   C3B 4719   8.336  15.157   8.966 -0.0184  0.0774 -0.0157
  295loPI   C4B 4720   8.205  15.157   8.486 -0.1375 -0.3531  0.0579
  296loPI    C1 4721  17.772   5.454  10.056 -0.3098  0.2533 -0.0858
  296loPI    C2 4722  17.762   5.299  10.424  0.2677  0.2053 -0.0801
  296loPI    C3 4723  17.645   5.676  10.362 -0.1202  0.1187  0.0937
  296loPI   PO4 4724  17.866   5.220   9.906  0.1485 -0.2141  0.0727
  296loPI   GL1 4725  17.797   5.089   9.483  0.0887  0.1832  0.1282
  296loPI   GL2 4726  18.220   5.106   9.525  0.1471  0.0555 -0.0352
  296loPI   C1A 4727  17.713   5.006   9.076 -0.0342  0.1676 -0.0111
  296loPI   C2A 4728  17.742   5.049   8.719  0.1761 -0.2544 -0.0497
  296loPI   C3A 4729  17.658   5.061   8.240  0.0971  0.1032 -0.0931
  296loPI   C4A 4730  17.799   5.004   7.807  0.1254 -0.0464  0.0586
  296loPI   C5A 4731  17.990   5.201   7.598  0.2286  0.0911 -0.0591
  296loPI   C6A 4732  17.970   5.685   7.532 -0.1118  0.3120 -0.1427
  296loPI   C1B 4733  18.171   4.896   9.174 -0.4719  0.0194  0.0574
  296loPI   C2B 4734  18.272   4.902   8.776 -0.0242  0.0530  0.2754
  296loPI   C3B 4735  18.131   4.915   8.403  0.0347  0.0475 -0.0779
  296loPI   C4B 4736  18.222   5.055   8.068  0.0988  0.1330 -0.1482
  297loPI    C1 4737  17.501  15.476  10.449 -0.0546  0.2423 -0.0967
  297loPI    C2 4738  17.692  15.365  10.783 -0.0373  0.1995 -0.1204
  297loPI    C3 4739  17.321  15.514  10.805  0.0334  0.3702 -0.0654
  297loPI   PO4 4740  17.617  15.346  10.254 -0.0770  0.0561 -0.1742
  297loPI   GL1 4741  17.708  15.559   9.832 -0.0612 -0.0080 -0.0795
  297loPI   GL2 4742  17.733  15.815   9.731  0.0426  0.0327 -0.2101
  297loPI   C1A 4743  17.880  15.342   9.532 -0.2003 -0.2185 -0.0292
  297loPI   C2A 4744  17.945  15.331   9.097  0.0407 -0.1163 -0.1384
  297loPI   C3A 4745  18.036  15.214   8.622  0.0193 -0.0263 -0.0386
  297loPI   C4A 4746  17.801  15.125   8.324 -0.0426 -0.2133 -0.3202
  297loPI   C5A 4747  17.587  15.056   7.986 -0.3704 -0.0820 -0.0963
  297loPI   C6A 4748  17.179  15.051   8.048 -0.0541  0.1874 -0.2159
  297loPI   C1B 4749  17.779  15.779   9.337  0.1067  0.0088  0.3300
  297loPI   C2B 4750  17.855  15.826   8.884 -0.1764  0.1311 -0.1224
  297loPI   C3B 4751  17.953  15.686   8.496 -0.4213  0.2226  0.1595
  297loPI   C4B 4752  18.017  15.562   8.106  0.0850  0.1426 -0.1707
  298loPI    C1 4753   8.133   3.891  10.925  0.1279 -0.0306 -0.0462
  298loPI    C2 4754   8.482   3.886  10.729 -0.0069  0.1428 -0.2966
  298loPI    C3 4755   8.380   4.205  10.947  0.1662 -0.0709  0.1079
  298loPI   PO4 4756   7.979   3.704  10.743  0.3065 -0.0819 -0.2523
  298loPI   GL1 4757   8.141   3.776  10.399 -0.2495 -0.1190 -0.0414
  298loPI   GL2 4758   8.249   4.015  10.204  0.1869  0.1540 -0.3624
  298loPI   C1A 4759   8.314   3.544  10.001 -0.2543 -0.0593  0.2645
  298loPI   C2A 4760   8.375   3.526   9.557 -0.2208 -0.2228  0.1295
  298loPI   C3A 4761   8.404   3.501   9.208 -0.0631  0.0330  0.4951
  298loPI   C4A 4762   8.357   3.675   8.749  0.2334 -0.1925  0.1300
  298loPI   C5A 4763   8.012   3.930   8.656 -0.1829  0.3008 -0.1507
  298loPI   C6A 4764   7.977   4.356   8.681  0.1514  0.1570 -0.1621
  298loPI   C1B 4765   8.320   3.997   9.758 -0.1452  0.0051  0.1768
  298loPI   C2B 4766   8.248   3.980   9.290 -0.2119  0.4602  0.4568
  298loPI   C3B 4767   8.336   4.168   8.966  0.1322  0.0566  0.0422
  298loPI   C4B 4768   8.441   4.247   8.520 -0.0972 -0.0997 -0.1959
  299loPI    C1 4769   4.468   4.759  10.520  0.1657  0.0225 -0.1387
  299loPI    C2 4770   4.406   4.733  10.914  0.2009  0.0366 -0.1321
  299loPI    C3 4771   4.095   4.747  10.663  0.1787 -0.0428 -0.1095
  299loPI   PO4 4772   4.679   4.936  10.526  0.0738 -0.1163  0.0011
  299loPI   GL1 4773   4.902   5.037  10.154 -0.1599 -0.0494  0.1215
  299loPI   GL2 4774   4.637   5.188  10.066 -0.2270  0.1201  0.1764
  299loPI   C1A 4775   5.183   5.128   9.736 -0.1192  0.0687 -0.1436
  299loPI   C2A 4776   5.367   4.980   9.348  0.1301  0.0479 -0.2117
  299loPI   C3A 4777   5.316   5.001   8.878 -0.0456 -0.0607  0.2609
  299loPI   C4A 4778   5.403   4.901   8.451 -0.1561 -0.1745 -0.0923
  299loPI   C5A 4779   5.405   4.469   8.221  0.0897  0.0611  0.0723
  299loPI   C6A 4780   5.503   4.341   7.871 -0.0818 -0.0500 -0.0450
  299loPI   C1B 4781   4.660   5.143   9.666 -0.3714  0.0004 -0.1375
  299loPI   C2B 4782   4.810   5.159   9.304 -0.1545 -0.0121  0.1045
  299loPI   C3B 4783   4.867   5.029   8.988  0.2947 -0.0288  0.1642
  299loPI   C4B 4784   4.754   5.065   8.629 -0.1592 -0.4231  0.1318
  300loPI    C1 4785   0.987   8.654   9.899  0.0029  0.0062 -0.0199
  300loPI    C2 4786   0.832   8.669  10.268  0.1609  0.0292  0.0463
  300loPI    C3 4787   0.640   8.470   9.978  0.0643 -0.0365  0.1545
  300loPI   PO4 4788   1.076   8.978   9.812  0.0911  0.0965  0.0885
  300loPI   GL1 4789   1.150   9.218   9.478 -0.0213 -0.2682 -0.2328
  300loPI   GL2 4790   1.467   9.043   9.540  0.0720  0.0494  0.0996
  300loPI   C1A 4791   1.159   9.136   9.080 -0.0944  0.3425 -0.0755
  300loPI   C2A 4792   1.176   9.235   8.642 -0.1265 -0.0881  0.1784
  300loPI   C3A 4793   1.099   9.380   8.173 -0.1728  0.0809 -0.0935
  300loPI   C4A 4794   0.868   9.498   7.868 -0.3003  0.1342  0.0909
  300loPI   C5A 4795   0.777   9.694   7.486 -0.4990  0.3075 -0.0566
  300loPI   C6A 4796   0.693   9.704   7.078 -0.0333  0.1133 -0.2151
  300loPI   C1B 4797   1.659   8.955   9.153  0.1998 -0.1085  0.1068
  300loPI   C2B 4798   1.571   8.908   8.726 -0.1039 -0.0929 -0.0009
  300loPI   C3B 4799   1.640   9.073   8.421 -0.0035 -0.0838 -0.1873
  300loPI   C4B 4800   1.700   9.121   7.886  0.1965 -0.2197 -0.0583
  301loPI    C1 4801  13.096   6.856  11.163  0.0297  0.1316 -0.0722
  301loPI    C2 4802  13.201   7.235  11.237  0.0352  0.0923  0.1287
  301loPI    C3 4803  13.065   7.004  11.533 -0.1361 -0.0109 -0.0278
  301loPI   PO4 4804  13.275   6.849  10.945 -0.2596  0.0459  0.0288
  301loPI   GL1 4805  13.041   6.761  10.519  0.1346  0.0883  0.0155
  301loPI   GL2 4806  12.750   6.721  10.502 -0.0370 -0.1699  0.1006
  301loPI   C1A 4807  13.201   6.990  10.079 -0.1746 -0.0311  0.2449
  301loPI   C2A 4808  13.239   7.087   9.651  0.1290  0.2102  0.1172
  301loPI   C3A 4809  13.125   7.212   9.262  0.4474 -0.0881  0.2189
  301loPI   C4A 4810  13.158   7.070   8.800  0.1248 -0.1176  0.0344
  301loPI   C5A 4811  13.179   7.066   8.323 -0.1412  0.1065 -0.1214
  301loPI   C6A 4812  13.114   6.771   7.985  0.0714  0.1117 -0.2126
  301loPI   C1B 4813  12.767   6.707  10.057  0.0816 -0.1125 -0.0334
  301loPI   C2B 4814  12.805   6.805   9.620  0.2736  0.0602  0.0082
  301loPI   C3B 4815  12.798   6.843   9.108 -0.1014  0.0628 -0.0935
  301loPI   C4B 4816  12.609   7.117   8.710  0.0980  0.0696 -0.1617
  302loPI    C1 4817  11.371   6.684  11.197 -0.0759  0.1347  0.0229
  302loPI    C2 4818  11.675   6.541  11.414 -0.0130  0.0880 -0.0948
  302loPI    C3 4819  11.298   6.479  11.533  0.0118 -0.2205 -0.1696
  302loPI   PO4 4820  11.398   6.587  10.856  0.0658  0.1423 -0.4315
  302loPI   GL1 4821  11.407   6.426  10.500 -0.0786  0.1754  0.3570
  302loPI   GL2 4822  11.773   6.452  10.537  0.4626 -0.2168 -0.1956
  302loPI   C1A 4823  11.477   6.168  10.107  0.0139  0.2071 -0.1752
  302loPI   C2A 4824  11.533   6.198   9.678 -0.1788  0.0497  0.1466
  302loPI   C3A 4825  11.511   6.353   9.219 -0.1087 -0.1167  0.0314
  302loPI   C4A 4826  11.469   6.295   8.811  0.0778  0.2069  0.0030
  302loPI   C5A 4827  11.448   6.615   8.513  0.2831  0.1736 -0.2390
  302loPI   C6A 4828  11.110   6.911   8.397  0.0858  0.0959  0.0947
  302loPI   C1B 4829  11.824   6.493  10.117 -0.0557 -0.2662  0.1334
  302loPI   C2B 4830  11.873   6.569   9.712 -0.4158  0.3178 -0.0118
  302loPI   C3B 4831  11.825   6.679   9.310  0.2505  0.0121  0.1272
  302loPI   C4B 4832  11.840   6.667   8.920 -0.0573 -0.3067  0.1027
  303loPI    C1 4833   7.177   3.350  11.161  0.0514 -0.1991 -0.0847
  303loPI    C2 4834   7.375   3.537  11.454  0.2652 -0.3114 -0.1560
  303loPI    C3 4835   6.986   3.458  11.496  0.2001  0.0354 -0.0730
  303loPI   PO4 4836   7.187   3.434  10.960 -0.0340 -0.0246  0.4078
  303loPI   GL1 4837   7.034   3.357  10.515  0.0794  0.1126 -0.1737
  303loPI   GL2 4838   6.810   3.222  10.548  0.2372  0.0625 -0.1503
  303loPI   C1A 4839   7.188   3.646  10.372 -0.0560 -0.2650  0.2365
  303loPI   C2A 4840   7.157   3.876   9.979 -0.0776 -0.2715  0.1318
  303loPI   C3A 4841   7.292   3.893   9.630 -0.1944  0.0110  0.0125
  303loPI   C4A 4842   7.424   3.948   9.152  0.0950  0.3243 -0.4031
  303loPI   C5A 4843   7.396   3.981   8.737 -0.3030  0.0042 -0.1072
  303loPI   C6A 4844   7.613   4.182   8.387 -0.1212 -0.0667  0.1262
  303loPI   C1B 4845   6.890   3.437  10.056  0.0089  0.2563 -0.1613
  303loPI   C2B 4846   7.014   3.456   9.738 -0.1116  0.3171 -0.0456
  303loPI   C3B 4847   7.131   3.541   9.380 -0.2960 -0.2119 -0.0727
  303loPI   C4B 4848   7.233   3.511   8.905 -0.0024 -0.1779 -0.0260
  304loPI    C1 4849   3.447  15.564  10.724 -0.0584  0.1079 -0.0975
  304loPI    C2 4850   3.097  15.648  10.898 -0.0565  0.1517 -0.1146
  304loPI    C3 4851   3.289  15.309  10.988  0.0102  0.2375  0.0703
  304loPI   PO4 4852   3.359  15.654  10.440  0.0132  0.0563 -0.0575
  304loPI   GL1 4853   3.253  15.374  10.006 -0.1294 -0.0665 -0.0608
  304loPI   GL2 4854   3.534  15.498   9.966  0.1464  0.0681  0.3251
  304loPI   C1A 4855   3.441  15.297   9.573 -0.0665  0.3696  0.0972
  304loPI   C2A 4856   3.479  15.291   9.121 -0.2174 -0.0206  0.0211
  304loPI   C3A 4857   3.518  15.264   8.677  0.2510 -0.0538 -0.0243
  304loPI   C4A 4858   3.689  15.476   8.374  0.0283  0.3384 -0.0495
  304loPI   C5A 4859   4.146  15.411   8.123 -0.1498 -0.0095 -0.1144
  304loPI   C6A 4860   4.461  15.551   7.899 -0.1597 -0.0610  0.3122
  304loPI   C1B 4861   3.872  15.542   9.629 -0.0854  0.1304 -0.1233
  304loPI   C2B 4862   3.938  15.589   9.182  0.2022 -0.4369  0.1301
  304loPI   C3B 4863   4.069  15.599   8.684  0.2125  0.1389  0.1533
  304loPI   C4B 4864   4.308  15.804   8.336  0.1214  0.0445  0.0549
  305loPI    C1 4865   6.909  10.302  11.112 -0.1612 -0.1464 -0.0342
  305loPI    C2 4866   6.809  10.687  11.068 -0.2324 -0.1681 -0.0647
  305loPI    C3 4867   6.533  10.420  11.178 -0.1792 -0.2079 -0.0268
  305loPI   PO4 4868   7.074  10.293  10.925  0.1402  0.1536 -0.1939
  305loPI   GL1 4869   7.129  10.152  10.573  0.1545  0.5425 -0.0900
  305loPI   GL2 4870   7.012   9.877  10.495 -0.0549  0.0151 -0.2441
  305loPI   C1A 4871   7.257  10.300  10.213  0.0628  0.0563  0.0946
  305loPI   C2A 4872   7.377  10.143   9.831  0.2133 -0.1991  0.1181
  305loPI   C3A 4873   7.408  10.023   9.402  0.1741  0.3549  0.1429
  305loPI   C4A 4874   7.467  10.064   9.010 -0.2044  0.0766  0.2298
  305loPI   C5A 4875   7.417  10.137   8.525 -0.1261  0.1155 -0.1328
  305loPI   C6A 4876   7.794  10.269   8.216  0.0814 -0.4268 -0.0401
  305loPI   C1B 4877   6.793   9.574  10.192 -0.2178 -0.1524 -0.2077
  305loPI   C2B 4878   6.757   9.496   9.783 -0.3156  0.0551  0.0919
  305loPI   C3B 4879   6.686   9.314   9.338  0.1028  0.0873 -0.0880
  305loPI   C4B 4880   6.676   9.304   8.975 -0.0431  0.1573 -0.0062
  306loPI    C1 4881   6.121   4.300  10.898  0.0461 -0.0396  0.0482
  306loPI    C2 4882   5.732   4.369  10.963  0.0083 -0.1467 -0.0591
  306loPI    C3 4883   5.940   4.137  11.215  0.0040 -0.0853  0.0010
  306loPI   PO4 4884   6.179   4.204  10.615 -0.1377  0.1386 -0.3153
  306loPI   GL1 4885   6.400   4.242  10.226  0.0837 -0.0441  0.3083
  306loPI   GL2 4886   6.605   4.498  10.294 -0.0623  0.1408 -0.2658
  306loPI   C1A 4887   6.219   4.178   9.855 -0.2228 -0.3062 -0.1628
  306loPI   C2A 4888   6.310   4.316   9.477  0.3199 -0.1109 -0.0197
  306loPI   C3A 4889   6.447   4.228   9.111  0.0639  0.2858  0.1754
  306loPI   C4A 4890   6.417   4.322   8.639  0.2124  0.1100  0.2023
  306loPI   C5A 4891   6.697   4.639   8.313 -0.0256 -0.5392 -0.0609
  306loPI   C6A 4892   7.000   4.930   8.089  0.2601  0.0052 -0.1644
  306loPI   C1B 4893   6.615   4.560   9.862 -0.1940  0.0433 -0.0275
  306loPI   C2B 4894   6.736   4.640   9.437  0.0884  0.2886 -0.0057
  306loPI   C3B 4895   6.894   4.468   9.087 -0.0823  0.2034  0.0352
  306loPI   C4B 4896   6.908   4.342   8.680 -0.1455  0.0872  0.0303
  307loPI    C1 4897   8.654   9.986  10.858 -0.1465  0.0158  0.0239
  307loPI    C2 4898   8.584   9.739  11.165  0.0155  0.1077  0.1367
  307loPI    C3 4899   8.741  10.100  11.232 -0.0433  0.1681 -0.0458
  307loPI   PO4 4900   8.447   9.990  10.739 -0.1011  0.1375  0.3004
  307loPI   GL1 4901   8.531   9.741  10.372  0.0852  0.0709 -0.1383
  307loPI   GL2 4902   8.219   9.761  10.360  0.1500  0.2120  0.0953
  307loPI   C1A 4903   8.695   9.728  10.019  0.0397 -0.0556 -0.0672
  307loPI   C2A 4904   8.848   9.638   9.599  0.3947  0.1550  0.1943
  307loPI   C3A 4905   8.956   9.594   9.226 -0.2210  0.0297  0.1578
  307loPI   C4A 4906   8.940   9.479   8.816  0.1162 -0.2379 -0.2028
  307loPI   C5A 4907   9.210   9.445   8.483  0.1393  0.2702 -0.2124
  307loPI   C6A 4908   9.429   9.492   8.145 -0.0469 -0.0154 -0.0948
  307loPI   C1B 4909   8.231   9.783   9.950 -0.1201  0.0460  0.0305
  307loPI   C2B 4910   8.371   9.736   9.498 -0.2255  0.0751 -0.0325
  307loPI   C3B 4911   8.389   9.719   9.011 -0.0694 -0.0412  0.1237
  307loPI   C4B 4912   8.557   9.692   8.616 -0.0482  0.2071  0.1875
  308loPI    C1 4913  15.342   9.241  10.462  0.2673 -0.0586 -0.0353
  308loPI    C2 4914  15.256   8.945  10.718 -0.0808  0.0353 -0.0391
  308loPI    C3 4915  15.321   9.316  10.855  0.1619 -0.0010 -0.0517
  308loPI   PO4 4916  15.579   9.081  10.325  0.1356 -0.0492 -0.1552
  308loPI   GL1 4917  15.558   8.719   9.980  0.0217 -0.1993 -0.1009
  308loPI   GL2 4918  15.700   9.078   9.810  0.1385  0.0088  0.2270
  308loPI   C1A 4919  15.387   8.688   9.653  0.2098  0.0790 -0.1501
  308loPI   C2A 4920  15.254   8.627   9.244  0.0080 -0.0002  0.1733
  308loPI   C3A 4921  15.278   8.262   8.919 -0.0825 -0.3552 -0.1288
  308loPI   C4A 4922  15.294   8.144   8.386  0.0878 -0.0534  0.2575
  308loPI   C5A 4923  15.217   7.917   8.002 -0.0474  0.2497  0.0236
  308loPI   C6A 4924  14.971   7.547   7.926  0.1230 -0.0202 -0.2510
  308loPI   C1B 4925  15.574   9.117   9.340 -0.4273  0.1707 -0.1447
  308loPI   C2B 4926  15.452   9.164   8.880  0.0904 -0.2359 -0.1064
  308loPI   C3B 4927  15.542   9.314   8.466 -0.0344  0.0302  0.1273
  308loPI   C4B 4928  15.297   9.420   8.140  0.2152 -0.0404 -0.2457
  309loPI    C1 4929   2.990   6.931  10.423 -0.1767  0.0230 -0.0732
  309loPI    C2 4930   2.917   7.279  10.240 -0.1864  0.0510 -0.0163
  309loPI    C3 4931   2.792   7.220  10.615 -0.0354  0.0492  0.0347
  309loPI   PO4 4932   3.013   6.768  10.232 -0.0779  0.0045  0.0838
  309loPI   GL1 4933   3.153   6.912   9.846 -0.1547  0.2409 -0.2704
  309loPI   GL2 4934   2.797   6.981   9.812 -0.0067  0.2202 -0.0348
  309loPI   C1A 4935   3.342   6.794   9.442 -0.2057  0.1199  0.0350
  309loPI   C2A 4936   3.481   6.774   9.014 -0.1832 -0.0554  0.0105
  309loPI   C3A 4937   3.425   6.606   8.589  0.1327  0.1215 -0.0922
  309loPI   C4A 4938   3.647   6.304   8.436 -0.0402 -0.2204 -0.0896
  309loPI   C5A 4939   4.014   6.140   8.189 -0.1096  0.0270  0.1597
  309loPI   C6A 4940   4.234   6.160   7.746 -0.0491  0.4460  0.0362
  309loPI   C1B 4941   2.867   6.902   9.369  0.1662  0.2281  0.0638
  309loPI   C2B 4942   2.974   6.848   8.887  0.3098  0.1936 -0.2196
  309loPI   C3B 4943   2.956   6.564   8.468 -0.0827 -0.4605  0.0601
  309loPI   C4B 4944   3.130   6.228   8.261 -0.0325  0.2204 -0.2500
  310loPI    C1 4945   0.737   7.436  10.145 -0.0991 -0.0942  0.2096
  310loPI    C2 4946   0.998   7.620  10.386 -0.0951 -0.0157  0.1460
  310loPI    C3 4947   0.605   7.660  10.449 -0.0958  0.1034  0.0673
  310loPI   PO4 4948   0.763   7.517   9.956  0.0327 -0.1480 -0.2877
  310loPI   GL1 4949   0.865   7.531   9.552  0.1513  0.1807  0.0483
  310loPI   GL2 4950   0.876   7.827   9.405 -0.1421 -0.2013 -0.1786
  310loPI   C1A 4951   0.545   7.404   9.311  0.2247  0.0645  0.1347
  310loPI   C2A 4952   0.476   7.310   8.905  0.0607  0.1809  0.0288
  310loPI   C3A 4953   0.485   7.350   8.483  0.2604 -0.2514 -0.1486
  310loPI   C4A 4954   0.620   7.394   8.102 -0.3604 -0.1195 -0.5033
  310loPI   C5A 4955   0.668   7.682   7.795 -0.2173  0.0932 -0.1886
  310loPI   C6A 4956   0.697   7.794   7.432 -0.3505 -0.4641  0.0821
  310loPI   C1B 4957   0.882   7.691   9.029 -0.2581 -0.0214 -0.0732
  310loPI   C2B 4958   0.876   7.747   8.597  0.0453 -0.1560 -0.0809
  310loPI   C3B 4959   0.996   7.846   8.159  0.1097  0.5069 -0.0905
  310loPI   C4B 4960   1.130   8.046   7.718 -0.1411 -0.1689 -0.0255
  311loPI    C1 4961  12.919   8.700  11.149 -0.0600 -0.0308 -0.0740
  311loPI    C2 4962  13.128   9.029  11.058 -0.1573  0.0144 -0.1365
  311loPI    C3 4963  12.978   8.981  11.426  0.0380 -0.0599 -0.0654
  311loPI   PO4 4964  12.894   8.621  10.861  0.2646 -0.0956  0.1590
  311loPI   GL1 4965  12.685   8.660  10.488  0.1538 -0.0425  0.4124
  311loPI   GL2 4966  12.428   8.442  10.334  0.0205  0.1531 -0.2164
  311loPI   C1A 4967  12.882   8.772  10.081  0.0465 -0.0058 -0.0903
  311loPI   C2A 4968  12.941   8.739   9.599 -0.0368  0.0330  0.1634
  311loPI   C3A 4969  12.850   8.683   9.250 -0.0991  0.3064  0.0567
  311loPI   C4A 4970  12.970   8.674   8.844  0.0207  0.0482 -0.0608
  311loPI   C5A 4971  12.653   8.605   8.409 -0.0522 -0.1474 -0.1633
  311loPI   C6A 4972  12.222   8.712   8.289 -0.3662  0.1798 -0.1817
  311loPI   C1B 4973  12.528   8.299   9.975  0.0278 -0.2304  0.1917
  311loPI   C2B 4974  12.551   8.390   9.561 -0.0301 -0.0655 -0.0461
  311loPI   C3B 4975  12.456   8.265   9.143 -0.2165  0.1841  0.0821
  311loPI   C4B 4976  12.580   8.153   8.590  0.0211 -0.1319  0.3139
  312loPI    C1 4977   0.194  15.084  10.477  0.1429 -0.0449 -0.3103
  312loPI    C2 4978   0.363  15.398  10.658  0.0103 -0.0429 -0.1876
  312loPI    C3 4979   0.356  15.042  10.841  0.0125 -0.0777 -0.2554
  312loPI   PO4 4980   0.271  15.103  10.123 -0.1866  0.0125 -0.0766
  312loPI   GL1 4981   0.522  15.188   9.755 -0.0792  0.1550 -0.1322
  312loPI   GL2 4982   0.618  14.865   9.770  0.0225 -0.3394 -0.4173
  312loPI   C1A 4983   0.596  15.334   9.328 -0.1016 -0.1239  0.1609
  312loPI   C2A 4984   0.647  15.378   8.877 -0.0055  0.3293  0.0145
  312loPI   C3A 4985   0.663  15.399   8.415  0.0762  0.3027 -0.0489
  312loPI   C4A 4986   0.941  15.381   8.116  0.0670  0.0839 -0.1786
  312loPI   C5A 4987   0.918  15.077   7.863  0.3082 -0.0031 -0.0925
  312loPI   C6A 4988   0.581  14.789   7.699 -0.0502 -0.2521 -0.3178
  312loPI   C1B 4989   0.648  14.838   9.329 -0.1215 -0.0064  0.2854
  312loPI   C2B 4990   0.709  14.844   8.888 -0.0989 -0.2859  0.3004
  312loPI   C3B 4991   0.703  14.934   8.419  0.1079  0.2477  0.3702
  312loPI   C4B 4992   0.430  15.091   8.055 -0.2242  0.1586  0.1616
  313loPI    C1 4993  14.599  12.163  10.644 -0.0313 -0.0195  0.1200
  313loPI    C2 4994  14.970  12.297  10.714 -0.0637  0.0737  0.1147
  313loPI    C3 4995  14.819  12.001  10.937  0.0918 -0.1113 -0.0218
  313loPI   PO4 4996  14.409  12.440  10.686 -0.0467 -0.1399 -0.2729
  313loPI   GL1 4997  14.331  12.725  10.332 -0.1160 -0.2455  0.0781
  313loPI   GL2 4998  14.512  12.893  10.143 -0.0236  0.3674 -0.1812
  313loPI   C1A 4999  14.096  12.757   9.988 -0.1138 -0.2692 -0.2485
  313loPI   C2A 5000  13.968  12.713   9.620  0.1711 -0.0024 -0.0837
  313loPI   C3A 5001  14.005  12.696   9.171  0.2384 -0.3134  0.0447
  313loPI   C4A 5002  13.895  12.606   8.867 -0.1019 -0.1286  0.1574
  313loPI   C5A 5003  13.660  12.675   8.456 -0.0415  0.1093 -0.1700
  313loPI   C6A 5004  13.380  12.683   8.102  0.0111  0.0511  0.0028
  313loPI   C1B 5005  14.431  12.940   9.732 -0.2768 -0.0928  0.1056
  313loPI   C2B 5006  14.286  13.085   9.306 -0.2315 -0.1908  0.1115
  313loPI   C3B 5007  14.300  13.028   8.925 -0.0306 -0.2330  0.1379
  313loPI   C4B 5008  14.071  12.945   8.474 -0.2243 -0.1121 -0.3216
  314loPI    C1 5009  12.085  17.471  11.305  0.1788  0.1112  0.2649
  314loPI    C2 5010  12.190  17.730  11.592  0.2144  0.1375  0.2281
  314loPI    C3 5011  11.849  17.523  11.624  0.1977  0.1712  0.2691
  314loPI   PO4 5012  12.034  17.590  11.107  0.1998  0.0077  0.4433
  314loPI   GL1 5013  11.954  17.466  10.626  0.2852  0.1332  0.3383
  314loPI   GL2 5014  11.714  17.594  10.745 -0.0782 -0.2721 -0.0680
  314loPI   C1A 5015  11.982  17.236  10.184 -0.0384  0.2295 -0.0283
  314loPI   C2A 5016  11.889  17.142   9.793  0.0245 -0.0429 -0.0718
  314loPI   C3A 5017  12.006  17.213   9.276 -0.1243  0.3065  0.0386
  314loPI   C4A 5018  12.039  17.086   8.762 -0.1129  0.1559  0.2447
  314loPI   C5A 5019  12.246  16.735   8.565  0.3083  0.0154 -0.2686
  314loPI   C6A 5020  12.631  16.769   8.412 -0.2577  0.1112 -0.2926
  314loPI   C1B 5021  11.517  17.418  10.431  0.1730  0.0512  0.1319
  314loPI   C2B 5022  11.517  17.452   9.993 -0.0142  0.4071 -0.0351
  314loPI   C3B 5023  11.507  17.296   9.445 -0.0704 -0.0905 -0.1960
  314loPI   C4B 5024  11.607  17.317   9.016 -0.0259 -0.1404 -0.0653
  315loPI    C1 5025  16.287   8.411  10.522 -0.1580  0.1053 -0.1576
  315loPI    C2 5026  16.069   8.523  10.838 -0.0232  0.1002 -0.0615
  315loPI    C3 5027  16.018   8.160  10.678  0.0583  0.0213  0.0889
  315loPI   PO4 5028  16.335   8.528  10.260  0.1025  0.0445 -0.0904
  315loPI   GL1 5029  16.237   8.437   9.791 -0.3891  0.0041 -0.3190
  315loPI   GL2 5030  16.372   8.552   9.540 -0.0456  0.1764  0.2069
  315loPI   C1A 5031  15.894   8.686   9.556 -0.0455  0.0768 -0.1563
  315loPI   C2A 5032  15.714   8.676   9.191 -0.2504  0.2750  0.3057
  315loPI   C3A 5033  15.666   8.734   8.660  0.4453 -0.1297 -0.0396
  315loPI   C4A 5034  15.844   8.827   8.232  0.0474  0.0937 -0.0277
  315loPI   C5A 5035  16.202   8.851   8.052 -0.1239  0.0172 -0.0862
  315loPI   C6A 5036  16.363   9.211   7.760 -0.2275 -0.1043  0.0539
  315loPI   C1B 5037  16.216   8.461   9.099 -0.0071  0.2360  0.0079
  315loPI   C2B 5038  16.223   8.512   8.708  0.5113  0.2892  0.1507
  315loPI   C3B 5039  16.490   8.529   8.331  0.0723 -0.0016  0.2578
  315loPI   C4B 5040  16.837   8.546   8.052 -0.0984  0.0841 -0.1544
  316loPI    C1 5041  13.767  14.756  10.979 -0.0342 -0.0026  0.0458
  316loPI    C2 5042  13.920  14.485  11.230 -0.0997  0.0876  0.1839
  316loPI    C3 5043  13.552  14.434  11.082 -0.1199  0.1108  0.2257
  316loPI   PO4 5044  13.991  14.771  10.784  0.2999  0.2920  0.0426
  316loPI   GL1 5045  14.170  14.932  10.437 -0.1550 -0.1425  0.2224
  316loPI   GL2 5046  14.016  15.212  10.333  0.1420  0.0346 -0.3421
  316loPI   C1A 5047  14.357  14.904   9.974 -0.2068  0.0800 -0.0106
  316loPI   C2A 5048  14.345  14.828   9.654 -0.0077 -0.1227  0.2059
  316loPI   C3A 5049  14.356  14.919   9.241  0.1316 -0.0172 -0.2107
  316loPI   C4A 5050  14.350  15.059   8.784  0.0889  0.1507  0.0619
  316loPI   C5A 5051  14.503  15.187   8.440  0.0941  0.2134 -0.0378
  316loPI   C6A 5052  14.892  15.431   8.318 -0.2951 -0.0557  0.0207
  316loPI   C1B 5053  13.840  15.140   9.948  0.1942 -0.1235 -0.1370
  316loPI   C2B 5054  13.898  15.039   9.604 -0.0973  0.1118  0.2014
  316loPI   C3B 5055  13.836  15.098   9.056  0.1562 -0.3679  0.1578
  316loPI   C4B 5056  13.894  15.238   8.697  0.1586  0.0515  0.1336
  317loPI    C1 5057   7.981   9.246  11.097  0.0321 -0.0732 -0.0867
  317loPI    C2 5058   7.654   9.433  10.961  0.0879  0.0466 -0.0576
  317loPI    C3 5059   7.660   9.286  11.333  0.1217  0.1807 -0.0047
  317loPI   PO4 5060   8.000   9.072  10.965  0.1398  0.1085  0.0952
  317loPI   GL1 5061   7.867   9.057  10.540  0.1711 -0.3150  0.2378
  317loPI   GL2 5062   7.910   9.357  10.515 -0.0055 -0.2297 -0.0104
  317loPI   C1A 5063   7.996   8.925  10.173 -0.0051  0.1596 -0.1138
  317loPI   C2A 5064   8.084   8.932   9.734 -0.0103 -0.0224  0.0239
  317loPI   C3A 5065   8.160   8.873   9.362  0.0350  0.1337 -0.0064
  317loPI   C4A 5066   8.184   8.930   8.964  0.0969  0.1095  0.2924
  317loPI   C5A 5067   8.420   9.188   8.780 -0.1474 -0.2449  0.0056
  317loPI   C6A 5068   8.624   9.271   8.389 -0.0775 -0.2871 -0.0522
  317loPI   C1B 5069   7.921   9.370  10.008  0.1669  0.0634  0.1502
  317loPI   C2B 5070   7.961   9.520   9.607  0.0700 -0.0807  0.0189
  317loPI   C3B 5071   8.036   9.353   9.277 -0.0397  0.0149  0.2805
  317loPI   C4B 5072   8.023   9.445   8.836 -0.2618  0.1868  0.0977
  318loPI    C1 5073  11.666   5.722  11.274 -0.0881 -0.0617 -0.1073
  318loPI    C2 5074  11.548   5.988  11.549 -0.0199 -0.2310  0.0885
  318loPI    C3 5075  11.822   5.713  11.643  0.1240 -0.1884 -0.1989
  318loPI   PO4 5076  11.449   5.633  11.111 -0.0869 -0.1648  0.0219
  318loPI   GL1 5077  11.388   5.277  10.824  0.0850  0.0564  0.0446
  318loPI   GL2 5078  11.645   5.209  10.828 -0.2383 -0.1509 -0.0073
  318loPI   C1A 5079  11.078   5.477  10.388 -0.0743 -0.0825 -0.0600
  318loPI   C2A 5080  11.216   5.383   9.946  0.1619  0.0997 -0.0834
  318loPI   C3A 5081  11.248   5.431   9.493 -0.0096 -0.0196  0.3268
  318loPI   C4A 5082  11.115   5.495   9.077 -0.3074  0.2825 -0.0150
  318loPI   C5A 5083  10.827   5.595   8.831 -0.0525  0.0687 -0.1038
  318loPI   C6A 5084  10.380   5.567   8.632 -0.2069  0.2665 -0.0156
  318loPI   C1B 5085  11.722   5.224  10.408 -0.1093  0.2670 -0.3733
  318loPI   C2B 5086  11.699   5.221  10.060  0.0139 -0.2853 -0.3380
  318loPI   C3B 5087  11.657   5.198   9.707 -0.0646  0.0346  0.0034
  318loPI   C4B 5088  11.638   5.241   9.266  0.2164 -0.5282  0.0933
  319loPI    C1 5089   9.302  13.164  11.059  0.1023  0.0358  0.0706
  319loPI    C2 5090   9.235  13.099  11.448 -0.1956  0.0962  0.0321
  319loPI    C3 5091   8.928  13.170  11.202 -0.0193 -0.0536 -0.2362
  319loPI   PO4 5092   9.507  13.016  10.972 -0.1388  0.1562  0.1898
  319loPI   GL1 5093   9.588  13.052  10.582 -0.3018 -0.2378 -0.2929
  319loPI   GL2 5094   9.299  12.973  10.444  0.0806 -0.0775  0.2495
  319loPI   C1A 5095   9.677  13.203  10.129 -0.1095 -0.0214  0.0625
  319loPI   C2A 5096   9.679  13.253   9.750  0.1456 -0.2058  0.0155
  319loPI   C3A 5097   9.571  13.255   9.369  0.2664  0.2100  0.2286
  319loPI   C4A 5098   9.549  13.178   8.985  0.1102  0.0929  0.0937
  319loPI   C5A 5099   9.779  13.272   8.578  0.0308  0.0187  0.2619
  319loPI   C6A 5100   9.971  13.453   8.222  0.1605 -0.0553  0.1683
  319loPI   C1B 5101   9.196  12.856   9.996  0.2245 -0.1268  0.0940
  319loPI   C2B 5102   9.221  12.924   9.563  0.2351  0.1503 -0.0922
  319loPI   C3B 5103   9.189  12.899   9.162 -0.1314  0.0043 -0.0626
  319loPI   C4B 5104   9.176  12.831   8.772  0.3774 -0.1695  0.3507
  320loPI    C1 5105  16.920   5.856  10.784  0.0401  0.0152  0.2503
  320loPI    C2 5106  17.280   5.897  10.614 -0.0507 -0.1223  0.0207
  320loPI    C3 5107  17.125   6.197  10.830  0.1667 -0.0332  0.0552
  320loPI   PO4 5108  16.772   5.689  10.589  0.0713 -0.1716  0.1055
  320loPI   GL1 5109  16.583   5.708  10.183  0.0234  0.1905  0.0978
  320loPI   GL2 5110  16.305   5.647  10.158 -0.1681 -0.2709 -0.1229
  320loPI   C1A 5111  16.786   5.450   9.921 -0.0004 -0.0646 -0.1053
  320loPI   C2A 5112  16.811   5.309   9.612  0.2189  0.3594 -0.1234
  320loPI   C3A 5113  16.726   5.452   9.222  0.1481  0.2363 -0.0612
  320loPI   C4A 5114  16.710   5.435   8.673 -0.1667 -0.2734 -0.1993
  320loPI   C5A 5115  16.674   5.584   8.278  0.1295 -0.4077 -0.1064
  320loPI   C6A 5116  16.863   5.947   8.121 -0.3085  0.0468 -0.0303
  320loPI   C1B 5117  16.366   5.599   9.688  0.0470 -0.1305 -0.0348
  320loPI   C2B 5118  16.247   5.560   9.250 -0.4060 -0.3333 -0.3701
  320loPI   C3B 5119  16.202   5.709   8.751 -0.0571 -0.1425 -0.2265
  320loPI   C4B 5120  16.168   5.665   8.319  0.1021 -0.1883 -0.0778
  321loPI    C1 5121   8.314   4.669  11.119 -0.2450  0.1709 -0.0558
  321loPI    C2 5122   8.243   5.014  11.308  0.1020  0.3165 -0.1820
  321loPI    C3 5123   8.264   4.673  11.516  0.0351  0.4098 -0.0193
  321loPI   PO4 5124   8.049   4.662  10.902 -0.0312 -0.0885 -0.2155
  321loPI   GL1 5125   8.106   4.386  10.554 -0.1311 -0.1311 -0.0873
  321loPI   GL2 5126   7.746   4.541  10.528  0.0330  0.1259 -0.1020
  321loPI   C1A 5127   8.221   4.521  10.122 -0.1291  0.1479 -0.0431
  321loPI   C2A 5128   8.260   4.471   9.653  0.0657  0.1713  0.4187
  321loPI   C3A 5129   8.210   4.547   9.268 -0.1316 -0.1543 -0.0330
  321loPI   C4A 5130   8.247   4.676   8.890  0.2707 -0.0918 -0.0510
  321loPI   C5A 5131   8.201   4.843   8.538 -0.2746 -0.0785 -0.0105
  321loPI   C6A 5132   8.314   4.653   8.173  0.1604  0.0829  0.2620
  321loPI   C1B 5133   7.508   4.642  10.159  0.0152 -0.0529 -0.1069
  321loPI   C2B 5134   7.510   4.741   9.658 -0.0834 -0.1163 -0.3679
  321loPI   C3B 5135   7.651   4.805   9.197  0.0743  0.1514  0.0130
  321loPI   C4B 5136   7.760   4.750   8.810 -0.0912 -0.2723 -0.4392
  322loPI    C1 5137  15.053   0.115  10.838  0.2600 -0.2372  0.0615
  322loPI    C2 5138  15.102   0.335  11.168  0.0480 -0.0742 -0.0132
  322loPI    C3 5139  15.413   0.140  11.009  0.2047  0.0472  0.1408
  322loPI   PO4 5140  14.934   0.236  10.618  0.1532 -0.0143 -0.0168
  322loPI   GL1 5141  15.174   0.488  10.260 -0.1936 -0.2032  0.1167
  322loPI   GL2 5142  15.114   0.865  10.053 -0.1015  0.0241 -0.2899
  322loPI   C1A 5143  15.161   0.333   9.822  0.0002  0.0071  0.0348
  322loPI   C2A 5144  15.121   0.340   9.384 -0.0747  0.1741 -0.1284
  322loPI   C3A 5145  15.140   0.176   9.008  0.0809  0.3048  0.1518
  322loPI   C4A 5146  15.090   0.255   8.555 -0.1122  0.0122  0.2417
  322loPI   C5A 5147  14.903   0.327   8.173 -0.0575  0.2674 -0.1349
  322loPI   C6A 5148  14.651   0.204   7.809  0.0041 -0.0462 -0.2262
  322loPI   C1B 5149  15.112   0.808   9.619 -0.1545 -0.0007  0.1359
  322loPI   C2B 5150  15.015   0.915   9.213  0.0219  0.4269 -0.0459
  322loPI   C3B 5151  14.961   0.921   8.840  0.0513 -0.0439 -0.0105
  322loPI   C4B 5152  14.893   0.843   8.353  0.0922 -0.1296 -0.0276
  323loPI    C1 5153   5.961  12.117  10.825  0.1016 -0.3740  0.0122
  323loPI    C2 5154   5.803  12.042  11.184  0.1047  0.1118  0.1225
  323loPI    C3 5155   6.139  12.257  11.155  0.1510  0.0036 -0.1683
  323loPI   PO4 5156   5.784  12.276  10.729  0.1611 -0.1324  0.2410
  323loPI   GL1 5157   5.829  12.508  10.516 -0.0235 -0.0725  0.1628
  323loPI   GL2 5158   6.007  12.888  10.434 -0.0701 -0.2461  0.4567
  323loPI   C1A 5159   5.890  12.505  10.128  0.2547  0.3131 -0.0678
  323loPI   C2A 5160   5.895  12.487   9.637 -0.2065 -0.1594 -0.0556
  323loPI   C3A 5161   5.935  12.441   9.157  0.5814 -0.3740 -0.2567
  323loPI   C4A 5162   6.056  12.485   8.773 -0.0759  0.0604  0.2008
  323loPI   C5A 5163   6.058  12.575   8.305 -0.3974  0.3807 -0.1926
  323loPI   C6A 5164   6.127  12.447   7.904  0.1054 -0.1071  0.1651
  323loPI   C1B 5165   6.195  12.896  10.036 -0.4793  0.1073 -0.1909
  323loPI   C2B 5166   6.301  12.810   9.573  0.2791  0.0357 -0.0185
  323loPI   C3B 5167   6.348  12.827   9.147 -0.0019  0.0685 -0.0568
  323loPI   C4B 5168   6.439  12.840   8.728  0.1313  0.1280 -0.1533
  324loPI    C1 5169   8.370   1.446  11.479 -0.2214 -0.2093  0.1561
  324loPI    C2 5170   8.580   1.644  11.756  0.1416 -0.2017 -0.1175
  324loPI    C3 5171   8.193   1.565  11.817  0.1101  0.1732  0.2020
  324loPI   PO4 5172   8.564   1.495  11.314  0.2944 -0.1992  0.0149
  324loPI   GL1 5173   8.677   1.267  11.005 -0.2015 -0.1386  0.2340
  324loPI   GL2 5174   8.551   1.106  10.933 -0.2442  0.0741  0.0928
  324loPI   C1A 5175   8.799   1.510  10.530  0.1371  0.0062 -0.0414
  324loPI   C2A 5176   8.824   1.410  10.168 -0.0009 -0.0524  0.1278
  324loPI   C3A 5177   8.768   1.432   9.723  0.1728 -0.1180  0.0693
  324loPI   C4A 5178   8.823   1.542   9.280 -0.1499 -0.0613  0.3312
  324loPI   C5A 5179   8.796   1.326   8.930 -0.0392  0.0720  0.1985
  324loPI   C6A 5180   8.761   1.259   8.400 -0.0249  0.0997 -0.3203
  324loPI   C1B 5181   8.420   1.095  10.522  0.2230 -0.0202  0.3344
  324loPI   C2B 5182   8.407   1.035  10.070 -0.0489 -0.2322  0.0855
  324loPI   C3B 5183   8.461   0.987   9.646 -0.0614  0.0692 -0.0507
  324loPI   C4B 5184   8.455   1.091   9.208  0.0093 -0.1001 -0.1836
  325loPI    C1 5185   6.705   3.649  10.860 -0.0201  0.1101  0.0545
  325loPI    C2 5186   6.705   3.315  11.080  0.2324  0.0834  0.0172
  325loPI    C3 5187   6.534   3.647  11.221  0.2537  0.0232  0.1868
  325loPI   PO4 5188   6.519   3.561  10.663 -0.1936 -0.1865  0.1088
  325loPI   GL1 5189   6.275   3.519  10.365  0.0538  0.0990 -0.0989
  325loPI   GL2 5190   6.041   3.792  10.290  0.0100  0.1087 -0.0594
  325loPI   C1A 5191   6.396   3.471   9.862 -0.1547 -0.0176 -0.2469
  325loPI   C2A 5192   6.498   3.435   9.492 -0.1187 -0.4219  0.1013
  325loPI   C3A 5193   6.733   3.370   9.145  0.1973  0.0442 -0.4914
  325loPI   C4A 5194   6.712   3.460   8.688 -0.1638 -0.1048 -0.0684
  325loPI   C5A 5195   6.650   3.820   8.396  0.2173 -0.1607 -0.0837
  325loPI   C6A 5196   6.816   4.124   8.250  0.0439 -0.1386 -0.1671
  325loPI   C1B 5197   5.874   3.715   9.859  0.1457 -0.1792 -0.3203
  325loPI   C2B 5198   6.094   3.746   9.461 -0.1886 -0.0473  0.0499
  325loPI   C3B 5199   6.354   3.703   9.141 -0.1375  0.0455 -0.0042
  325loPI   C4B 5200   6.423   3.819   8.822  0.1828  0.2148 -0.1982
  326loPI    C1 5201   0.867  16.667  10.635 -0.0750 -0.0774  0.0077
  326loPI    C2 5202   0.614  16.699  10.943  0.0109  0.0822  0.0628
  326loPI    C3 5203   0.998  16.804  10.987  0.0564 -0.0307 -0.0583
  326loPI   PO4 5204   0.780  16.469  10.465 -0.1456  0.1724 -0.1734
  326loPI   GL1 5205   0.544  16.379  10.158 -0.2079  0.0137  0.1463
  326loPI   GL2 5206   0.376  16.067  10.020 -0.1889  0.1760  0.2161
  326loPI   C1A 5207   0.483  16.530   9.841 -0.0365  0.0526 -0.1880
  326loPI   C2A 5208   0.532  16.585   9.423  0.1129  0.3374  0.0884
  326loPI   C3A 5209   0.581  16.446   9.012 -0.1567  0.1198  0.0848
  326loPI   C4A 5210   0.679  16.577   8.544  0.0016 -0.1795 -0.2534
  326loPI   C5A 5211   0.497  16.414   8.170 -0.2498  0.2276  0.2340
  326loPI   C6A 5212   0.343  16.053   8.095 -0.4640 -0.1308  0.1918
  326loPI   C1B 5213   0.335  16.130   9.565 -0.3331 -0.0817  0.2477
  326loPI   C2B 5214   0.186  16.229   9.197  0.1366  0.4384  0.1974
  326loPI   C3B 5215   0.016  16.395   8.811  0.2016 -0.0079 -0.1335
  326loPI   C4B 5216  -0.032  16.263   8.401 -0.0967 -0.5435 -0.1182
  327loPI    C1 5217  10.588   7.828  10.970  0.0575 -0.1622  0.1721
  327loPI    C2 5218  10.544   8.208  11.088  0.0655 -0.0875 -0.0592
  327loPI    C3 5219  10.232   7.958  11.096 -0.0162  0.0085 -0.1964
  327loPI   PO4 5220  10.776   7.844  10.835 -0.0826  0.1305 -0.1195
  327loPI   GL1 5221  10.849   7.941  10.441  0.3002 -0.0223  0.0860
  327loPI   GL2 5222  10.731   7.605  10.387 -0.2287  0.0302  0.0118
  327loPI   C1A 5223  10.711   7.998  10.058  0.1779  0.0911 -0.2987
  327loPI   C2A 5224  10.641   8.033   9.620  0.5224 -0.0860  0.0950
  327loPI   C3A 5225  10.692   8.077   9.195  0.2443  0.1369 -0.0001
  327loPI   C4A 5226  10.690   7.977   8.800 -0.2150  0.0488 -0.1675
  327loPI   C5A 5227  10.577   7.912   8.323 -0.3532  0.0414 -0.0789
  327loPI   C6A 5228  10.685   8.035   7.857  0.2589  0.0145 -0.0566
  327loPI   C1B 5229  10.832   7.514   9.975 -0.1294  0.0777  0.3124
  327loPI   C2B 5230  10.779   7.534   9.496 -0.0086  0.4870  0.0946
  327loPI   C3B 5231  10.789   7.488   9.066 -0.0736  0.1649 -0.0622
  327loPI   C4B 5232  10.816   7.478   8.605  0.2127 -0.0429  0.1278
  328loPI    C1 5233   7.183   5.804  11.349  0.0457  0.1265 -0.0293
  328loPI    C2 5234   6.937   6.057  11.538 -0.0205  0.1026 -0.0826
  328loPI    C3 5235   7.140   5.782  11.746 -0.0407  0.1210 -0.0386
  328loPI   PO4 5236   7.293   5.910  11.157  0.0074  0.0542  0.3011
  328loPI   GL1 5237   7.195   5.988  10.740 -0.1920 -0.1502  0.1204
  328loPI   GL2 5238   6.922   5.945  10.563 -0.1114 -0.2352  0.2796
  328loPI   C1A 5239   7.247   6.186  10.300 -0.0955  0.1366 -0.2883
  328loPI   C2A 5240   7.236   6.304   9.884  0.1315 -0.1030 -0.0771
  328loPI   C3A 5241   7.308   6.198   9.493 -0.1200  0.0743  0.0284
  328loPI   C4A 5242   7.368   6.297   9.064 -0.1073  0.2449 -0.0724
  328loPI   C5A 5243   7.338   6.385   8.691 -0.2402  0.5001  0.1002
  328loPI   C6A 5244   7.053   6.465   8.250  0.0195 -0.1349  0.2354
  328loPI   C1B 5245   6.857   5.906  10.082 -0.0606 -0.1162  0.2199
  328loPI   C2B 5246   6.893   5.966   9.662 -0.2174 -0.2042 -0.1604
  328loPI   C3B 5247   6.985   5.925   9.221  0.0056  0.0523  0.2318
  328loPI   C4B 5248   6.945   5.975   8.726 -0.0454  0.1670  0.0220
  329loPI    C1 5249   6.789  13.910  10.891 -0.0154 -0.0646  0.0048
  329loPI    C2 5250   6.567  13.765  11.190 -0.2710  0.0933 -0.1046
  329loPI    C3 5251   6.673  14.150  11.188  0.0016  0.0211 -0.0575
  329loPI   PO4 5252   7.087  13.656  10.837  0.2755  0.2078 -0.1464
  329loPI   GL1 5253   7.326  13.761  10.618 -0.1729  0.0168 -0.2051
  329loPI   GL2 5254   7.561  13.778  10.671  0.1709  0.1635 -0.0826
  329loPI   C1A 5255   7.549  13.936  10.220  0.0335 -0.0744  0.1896
  329loPI   C2A 5256   7.637  13.904   9.788 -0.0959  0.1540  0.1398
  329loPI   C3A 5257   7.694  13.867   9.435 -0.1589  0.1094  0.4197
  329loPI   C4A 5258   7.665  13.854   9.064 -0.1928 -0.0036 -0.1252
  329loPI   C5A 5259   7.576  13.770   8.751 -0.1999 -0.0548 -0.2030
  329loPI   C6A 5260   7.591  13.424   8.451  0.0396  0.0761 -0.2206
  329loPI   C1B 5261   7.913  13.679  10.390  0.0040 -0.0286  0.0640
  329loPI   C2B 5262   8.183  13.694  10.057 -0.1878 -0.0432 -0.1139
  329loPI   C3B 5263   8.158  13.768   9.659  0.0233 -0.1870 -0.1183
  329loPI   C4B 5264   8.172  13.722   9.216  0.1380 -0.1673 -0.2697
  330loPI    C1 5265  10.534   3.768  10.912  0.0919  0.0519  0.0431
  330loPI    C2 5266  10.246   3.727  11.187  0.1204  0.1832  0.0936
  330loPI    C3 5267  10.593   3.534  11.232  0.1286  0.2121  0.1547
  330loPI   PO4 5268  10.380   3.705  10.632 -0.2402 -0.0806 -0.2672
  330loPI   GL1 5269  10.395   3.784  10.312 -0.1283 -0.0718 -0.1175
  330loPI   GL2 5270  10.152   4.079  10.384 -0.0060  0.1577 -0.1509
  330loPI   C1A 5271  10.323   3.873   9.816  0.0319 -0.0314  0.0704
  330loPI   C2A 5272  10.225   3.908   9.435 -0.1302  0.1327 -0.4573
  330loPI   C3A 5273  10.126   3.882   9.034  0.0834 -0.0710 -0.1026
  330loPI   C4A 5274  10.088   3.746   8.623  0.0704 -0.3059 -0.1760
  330loPI   C5A 5275  10.111   3.416   8.435 -0.1590 -0.1600 -0.0582
  330loPI   C6A 5276   9.779   3.029   8.224 -0.0731  0.0975  0.0965
  330loPI   C1B 5277  10.146   4.284   9.991 -0.2782  0.2637 -0.3599
  330loPI   C2B 5278  10.165   4.416   9.584 -0.1178 -0.1016  0.1615
  330loPI   C3B 5279  10.100   4.352   9.135 -0.0729  0.1663  0.1401
  330loPI   C4B 5280   9.950   4.310   8.823  0.0950  0.0638 -0.1623
  331loPI    C1 5281   9.597  13.482  11.463  0.0533 -0.0436  0.0369
  331loPI    C2 5282   9.786  13.146  11.357 -0.1205 -0.1080 -0.0742
  331loPI    C3 5283   9.623  13.178  11.722 -0.1036 -0.1441 -0.0633
  331loPI   PO4 5284   9.639  13.670  11.195  0.1063  0.0588 -0.2873
  331loPI   GL1 5285   9.581  13.523  10.740 -0.0292 -0.0233  0.1971
  331loPI   GL2 5286   9.409  13.521  10.549  0.2373 -0.0001 -0.1092
  331loPI   C1A 5287  10.012  13.537  10.479 -0.0128  0.0662  0.0073
  331loPI   C2A 5288  10.020  13.569   9.998 -0.2432 -0.0222 -0.1979
  331loPI   C3A 5289  10.049  13.576   9.529 -0.0874 -0.1256 -0.0284
  331loPI   C4A 5290   9.947  13.471   9.157 -0.3388  0.1335  0.2491
  331loPI   C5A 5291   9.869  13.749   8.789 -0.2220  0.0518 -0.3758
  331loPI   C6A 5292   9.788  14.207   8.714  0.2408  0.1646  0.2894
  331loPI   C1B 5293   9.597  13.681  10.250 -0.0590 -0.0963  0.1055
  331loPI   C2B 5294   9.582  13.705   9.889  0.0060 -0.1470  0.0435
  331loPI   C3B 5295   9.509  13.761   9.509  0.0410 -0.2043 -0.1935
  331loPI   C4B 5296   9.466  13.694   9.102  0.3742  0.1826  0.1353
  332loPI    C1 5297   8.125  15.934  10.976  0.0816 -0.0188  0.1820
  332loPI    C2 5298   8.086  16.275  11.181  0.2247 -0.0368  0.2399
  332loPI    C3 5299   7.945  15.933  11.333  0.2419 -0.0334  0.2637
  332loPI   PO4 5300   8.359  15.756  10.929  0.0037 -0.1903  0.0850
  332loPI   GL1 5301   8.510  15.905  10.543 -0.0723  0.1908  0.0380
  332loPI   GL2 5302   8.363  16.183  10.620  0.0295  0.1635 -0.0089
  332loPI   C1A 5303   8.515  15.818  10.036 -0.1026  0.0817 -0.1527
  332loPI   C2A 5304   8.589  15.809   9.584  0.1018  0.0169  0.1152
  332loPI   C3A 5305   8.544  15.893   9.149  0.1186 -0.0327  0.2059
  332loPI   C4A 5306   8.643  15.935   8.735 -0.3195  0.0529 -0.5160
  332loPI   C5A 5307   9.078  16.091   8.569  0.2978 -0.1180  0.1278
  332loPI   C6A 5308   9.339  16.214   8.341  0.1180 -0.2331  0.1051
  332loPI   C1B 5309   8.389  16.287  10.233 -0.1251 -0.0601 -0.0505
  332loPI   C2B 5310   8.495  16.336   9.740 -0.2540 -0.1535  0.1218
  332loPI   C3B 5311   8.527  16.407   9.266  0.1435  0.1952 -0.0055
  332loPI   C4B 5312   8.515  16.401   8.924  0.1184 -0.0345  0.1479
  333loPI    C1 5313  10.874  11.488  11.020 -0.1013  0.2156 -0.2160
  333loPI    C2 5314  11.232  11.649  11.099  0.0709 -0.1304 -0.2742
  333loPI    C3 5315  10.933  11.689  11.361  0.2601 -0.1561 -0.0506
  333loPI   PO4 5316  10.777  11.429  10.723 -0.0390 -0.2230 -0.0253
  333loPI   GL1 5317  10.611  11.697  10.480  0.4771 -0.2005  0.1555
  333loPI   GL2 5318  10.230  11.683  10.427 -0.3852  0.0617 -0.1558
  333loPI   C1A 5319  10.804  11.658  10.042 -0.1442 -0.0312 -0.0097
  333loPI   C2A 5320  10.686  11.517   9.724  0.1982 -0.2074  0.1362
  333loPI   C3A 5321  10.505  11.445   9.301  0.1703  0.2015 -0.0016
  333loPI   C4A 5322  10.385  11.437   8.846  0.4464 -0.0000 -0.0147
  333loPI   C5A 5323  10.142  11.277   8.511  0.1389  0.2481 -0.2953
  333loPI   C6A 5324   9.929  10.866   8.574 -0.0809 -0.1272 -0.3461
  333loPI   C1B 5325  10.337  11.464  10.107 -0.1752 -0.2135 -0.2183
  333loPI   C2B 5326  10.153  11.351   9.760 -0.2288 -0.0486 -0.0022
  333loPI   C3B 5327  10.091  11.117   9.404  0.3887 -0.2445 -0.1555
  333loPI   C4B 5328   9.971  11.115   9.008  0.1033 -0.1313  0.2377
  334loPI    C1 5329   6.577  12.067  10.975 -0.1574 -0.2500  0.1952
  334loPI    C2 5330   6.615  12.449  11.086  0.0486 -0.2313  0.0664
  334loPI    C3 5331   6.652  12.157  11.357  0.1274 -0.1691  0.1231
  334loPI   PO4 5332   6.462  12.068  10.765  0.0117  0.1908  0.0225
  334loPI   GL1 5333   6.509  12.046  10.257  0.1290  0.3937  0.0798
  334loPI   GL2 5334   6.290  12.229  10.349 -0.1999  0.0807  0.0437
  334loPI   C1A 5335   6.475  11.937   9.814 -0.0346 -0.0763 -0.1023
  334loPI   C2A 5336   6.473  11.730   9.477  0.0943 -0.0466  0.3007
  334loPI   C3A 5337   6.614  11.868   9.105 -0.1984  0.0017 -0.0160
  334loPI   C4A 5338   6.667  11.850   8.726 -0.0700 -0.2231  0.2048
  334loPI   C5A 5339   6.729  11.727   8.409 -0.1374  0.3641 -0.3197
  334loPI   C6A 5340   6.703  11.529   7.982 -0.3313 -0.1429  0.1842
  334loPI   C1B 5341   6.353  12.422   9.891  0.0171 -0.0963  0.0884
  334loPI   C2B 5342   6.452  12.359   9.460 -0.4357  0.1624  0.1045
  334loPI   C3B 5343   6.520  12.326   9.023  0.0898  0.1135  0.0516
  334loPI   C4B 5344   6.466  12.367   8.578 -0.2344 -0.3241  0.4073
  335loPI    C1 5345   1.978   0.522  10.546  0.1410 -0.0074  0.1171
  335loPI    C2 5346   1.643   0.537  10.763  0.0893 -0.0084  0.0379
  335loPI    C3 5347   1.997   0.495  10.944  0.0475  0.0017  0.1224
  335loPI   PO4 5348   1.789   0.566  10.274  0.0066  0.1038  0.0052
  335loPI   GL1 5349   1.889   0.573   9.879  0.0438 -0.1933  0.1024
  335loPI   GL2 5350   1.719   0.938   9.940 -0.2170 -0.3469  0.0792
  335loPI   C1A 5351   1.961   0.358   9.510  0.0174 -0.0269 -0.1201
  335loPI   C2A 5352   1.975   0.324   8.999  0.1930 -0.1374  0.1185
  335loPI   C3A 5353   2.197   0.271   8.534  0.2188  0.1871 -0.1454
  335loPI   C4A 5354   1.943   0.261   8.157 -0.2503  0.0918 -0.1293
  335loPI   C5A 5355   1.623   0.141   8.060 -0.2249  0.0711  0.3863
  335loPI   C6A 5356   1.424  -0.289   7.822 -0.0287 -0.0479  0.0346
  335loPI   C1B 5357   1.701   0.768   9.513  0.3857 -0.2234  0.0141
  335loPI   C2B 5358   1.778   0.693   9.192  0.2698 -0.0936  0.2628
  335loPI   C3B 5359   1.836   0.764   8.701 -0.2416  0.0672  0.1223
  335loPI   C4B 5360   1.966   0.700   8.417  0.0093  0.3050 -0.0699
  336loPI    C1 5361   6.743   7.283  11.110 -0.2149 -0.0470 -0.0276
  336loPI    C2 5362   6.662   7.034  11.413 -0.0576 -0.0499  0.0133
  336loPI    C3 5363   6.941   7.317  11.456  0.0982 -0.1694 -0.1900
  336loPI   PO4 5364   6.535   7.214  10.972  0.3066 -0.1550 -0.2088
  336loPI   GL1 5365   6.553   7.317  10.559  0.0734  0.0737  0.1919
  336loPI   GL2 5366   6.596   6.934  10.385  0.1095 -0.2576 -0.0962
  336loPI   C1A 5367   6.853   7.344  10.286  0.1059 -0.1550 -0.0493
  336loPI   C2A 5368   7.030   7.316   9.797 -0.1464  0.1878  0.0365
  336loPI   C3A 5369   7.103   7.338   9.391  0.0225 -0.0303 -0.0068
  336loPI   C4A 5370   7.023   7.308   9.009 -0.0219 -0.3224 -0.0536
  336loPI   C5A 5371   7.233   7.357   8.525 -0.0305 -0.0738 -0.0455
  336loPI   C6A 5372   7.603   7.406   8.212 -0.0213  0.3006 -0.1043
  336loPI   C1B 5373   6.682   6.895   9.983  0.1219  0.1804  0.0478
  336loPI   C2B 5374   6.675   6.968   9.541  0.0239  0.0964  0.0355
  336loPI   C3B 5375   6.672   6.980   9.069 -0.2194  0.1131 -0.2205
  336loPI   C4B 5376   6.678   6.953   8.651  0.0657 -0.2552  0.0426
  337loPI    C1 5377  13.822  14.007  10.999 -0.1502 -0.0548  0.1583
  337loPI    C2 5378  14.037  13.773  11.242  0.1242  0.0928  0.0627
  337loPI    C3 5379  13.766  14.025  11.394  0.1200  0.0088  0.1960
  337loPI   PO4 5380  13.816  13.881  10.838 -0.2993  0.2446  0.0198
  337loPI   GL1 5381  13.907  13.829  10.479  0.0257 -0.0210 -0.0196
  337loPI   GL2 5382  14.129  13.661  10.393 -0.0363 -0.1178 -0.0947
  337loPI   C1A 5383  13.812  13.710  10.051  0.2449  0.0643  0.0652
  337loPI   C2A 5384  13.789  13.675   9.665  0.0909  0.0615  0.1384
  337loPI   C3A 5385  13.756  13.664   9.127  0.0276  0.0447 -0.1191
  337loPI   C4A 5386  13.634  13.724   8.758  0.1667 -0.0061 -0.1355
  337loPI   C5A 5387  13.505  14.080   8.398 -0.3299 -0.2648  0.1253
  337loPI   C6A 5388  13.105  14.153   8.181 -0.1424  0.1079  0.1071
  337loPI   C1B 5389  14.310  13.571  10.076 -0.0301 -0.0630 -0.1422
  337loPI   C2B 5390  14.265  13.577   9.690  0.0585  0.1284  0.5038
  337loPI   C3B 5391  14.268  13.594   9.181 -0.0849 -0.0715  0.0786
  337loPI   C4B 5392  14.134  13.512   8.787 -0.1562 -0.0155 -0.3893
  338loPI    C1 5393   9.498  12.469  11.072  0.2885  0.1975 -0.1631
  338loPI    C2 5394   9.548  12.326  11.442  0.1614 -0.0926 -0.2555
  338loPI    C3 5395   9.552  12.721  11.378  0.1131 -0.0373  0.0655
  338loPI   PO4 5396   9.335  12.360  10.995 -0.0171  0.0979 -0.1952
  338loPI   GL1 5397   9.142  12.242  10.608  0.0298 -0.0347  0.0138
  338loPI   GL2 5398   8.878  12.062  10.544 -0.3149  0.0074  0.1762
  338loPI   C1A 5399   9.292  12.397  10.247  0.0801 -0.0715  0.0894
  338loPI   C2A 5400   9.278  12.365   9.808 -0.1291  0.1507 -0.1442
  338loPI   C3A 5401   9.244  12.383   9.451 -0.0114 -0.2239 -0.1822
  338loPI   C4A 5402   9.267  12.430   9.098 -0.1328  0.0935  0.2188
  338loPI   C5A 5403   9.333  12.185   8.821 -0.2034 -0.0733 -0.0678
  338loPI   C6A 5404   9.394  11.946   8.411  0.0311 -0.1402 -0.2306
  338loPI   C1B 5405   8.908  12.104  10.051 -0.0320 -0.0933  0.1660
  338loPI   C2B 5406   8.852  12.088   9.717 -0.1258  0.2846 -0.0867
  338loPI   C3B 5407   8.889  11.995   9.335 -0.0721  0.1272  0.1504
  338loPI   C4B 5408   8.956  11.931   8.958 -0.0932  0.0132 -0.1738
  339loPI    C1 5409   2.167  17.586  10.782 -0.0250 -0.0299 -0.2325
  339loPI    C2 5410   1.897  17.806  10.979  0.1876  0.1309 -0.1167
  339loPI    C3 5411   2.097  17.517  11.169  0.2488  0.1530 -0.1470
  339loPI   PO4 5412   2.137  17.586  10.538 -0.4333 -0.2651  0.1463
  339loPI   GL1 5413   1.956  17.465  10.141 -0.0447  0.0808 -0.1123
  339loPI   GL2 5414   2.084  17.145  10.169  0.2496 -0.0422 -0.2010
  339loPI   C1A 5415   1.928  17.648   9.820 -0.0839  0.0193  0.2562
  339loPI   C2A 5416   1.975  17.640   9.339 -0.3127  0.4191 -0.2538
  339loPI   C3A 5417   2.147  17.635   8.929  0.0880 -0.0033  0.0639
  339loPI   C4A 5418   2.315  17.563   8.535  0.0620  0.2008 -0.0928
  339loPI   C5A 5419   2.663  17.517   8.164 -0.3344  0.1476  0.0338
  339loPI   C6A 5420   2.810  17.317   7.750 -0.0434  0.0067 -0.1313
  339loPI   C1B 5421   1.927  17.168   9.739 -0.1501 -0.0020 -0.0814
  339loPI   C2B 5422   2.010  17.132   9.342 -0.0476  0.1525  0.2821
  339loPI   C3B 5423   2.128  17.114   8.921 -0.0604 -0.3365  0.4082
  339loPI   C4B 5424   1.975  17.170   8.545 -0.0271 -0.0035  0.0479
  340loPI    C1 5425   2.321   8.120  10.249  0.1138  0.3930  0.1379
  340loPI    C2 5426   2.292   8.080  10.646  0.1622 -0.0588  0.1006
  340loPI    C3 5427   1.999   8.260  10.442 -0.0142 -0.1104  0.3048
  340loPI   PO4 5428   2.464   8.045  10.178  0.1460  0.2337  0.0062
  340loPI   GL1 5429   2.670   7.871   9.832  0.1076 -0.0475 -0.0946
  340loPI   GL2 5430   2.938   8.048   9.861 -0.4177 -0.3688  0.1762
  340loPI   C1A 5431   2.489   7.670   9.505 -0.0074 -0.0367 -0.0119
  340loPI   C2A 5432   2.532   7.694   9.098 -0.1033  0.1935 -0.0776
  340loPI   C3A 5433   2.509   7.641   8.672  0.0593 -0.2723 -0.0397
  340loPI   C4A 5434   2.422   7.385   8.293 -0.0120  0.1389  0.1013
  340loPI   C5A 5435   2.357   7.515   7.808 -0.0272  0.0375  0.0783
  340loPI   C6A 5436   2.084   7.779   7.476 -0.1428  0.1649  0.2957
  340loPI   C1B 5437   3.042   7.847   9.484 -0.1307 -0.1585  0.1102
  340loPI   C2B 5438   3.031   7.806   9.075  0.2339 -0.0563 -0.0194
  340loPI   C3B 5439   3.003   7.712   8.639 -0.2842 -0.2877  0.0565
  340loPI   C4B 5440   2.908   7.536   8.247  0.3138 -0.2114  0.0016
  341loPI    C1 5441  15.999  15.189  10.556 -0.0394  0.1354 -0.0447
  341loPI    C2 5442  15.830  15.064  10.896 -0.1119  0.2340 -0.0443
  341loPI    C3 5443  16.193  15.230  10.904  0.0169 -0.0416 -0.0538
  341loPI   PO4 5444  15.908  15.154  10.366 -0.0453  0.4298 -0.0423
  341loPI   GL1 5445  15.850  15.499  10.128  0.0512 -0.0939  0.0740
  341loPI   GL2 5446  15.929  15.324   9.888 -0.0401  0.2237 -0.0284
  341loPI   C1A 5447  15.737  15.775   9.715  0.1814  0.0609 -0.0803
  341loPI   C2A 5448  15.591  15.875   9.289  0.0003  0.0652 -0.0012
  341loPI   C3A 5449  15.805  15.773   8.909 -0.0878  0.3001  0.2758
  341loPI   C4A 5450  15.980  15.884   8.482  0.0297 -0.0590 -0.1550
  341loPI   C5A 5451  16.407  16.038   8.355  0.0741  0.3828 -0.0512
  341loPI   C6A 5452  16.423  16.453   8.206  0.1482  0.1335 -0.3677
  341loPI   C1B 5453  15.847  15.290   9.584  0.1807  0.0817 -0.1419
  341loPI   C2B 5454  15.725  15.344   9.128  0.1927  0.1990  0.0324
  341loPI   C3B 5455  15.814  15.305   8.632  0.0491  0.0803 -0.0100
  341loPI   C4B 5456  16.044  15.440   8.233 -0.0337 -0.1227 -0.2040
  342loPI    C1 5457   0.039   6.351  10.082 -0.0373  0.1857  0.1189
  342loPI    C2 5458  -0.161   6.171  10.378 -0.2898  0.0955 -0.1028
  342loPI    C3 5459   0.113   6.450  10.463 -0.3107  0.0226  0.2171
  342loPI   PO4 5460  -0.080   6.405   9.843  0.0847 -0.0927 -0.0943
  342loPI   GL1 5461  -0.420   6.186   9.592  0.0519  0.3060  0.0440
  342loPI   GL2 5462  -0.117   6.080   9.402 -0.0008 -0.2973  0.2110
  342loPI   C1A 5463  -0.608   6.209   9.234  0.1112 -0.2634 -0.3076
  342loPI   C2A 5464  -0.641   6.228   8.804 -0.0114 -0.1469 -0.3094
  342loPI   C3A 5465  -0.808   6.348   8.470 -0.1498  0.1699  0.0858
  342loPI   C4A 5466  -0.727   6.554   8.138 -0.0766 -0.1491  0.0489
  342loPI   C5A 5467  -0.644   6.723   7.690 -0.0243  0.0863  0.0546
  342loPI   C6A 5468  -0.491   6.997   7.325 -0.1819 -0.1787  0.0219
  342loPI   C1B 5469  -0.275   5.989   9.004 -0.0269  0.1695  0.0488
  342loPI   C2B 5470  -0.227   5.983   8.540  0.0958  0.2740  0.0126
  342loPI   C3B 5471  -0.421   6.175   8.199  0.1265  0.0275  0.1513
  342loPI   C4B 5472  -0.220   6.457   7.741  0.0766 -0.2188 -0.1184
  343loPI    C1 5473   3.407  11.224  10.488  0.1237  0.0899 -0.0792
  343loPI    C2 5474   3.088  11.350  10.694  0.2485  0.0447  0.1460
  343loPI    C3 5475   3.344  11.092  10.861  0.2115 -0.1987 -0.1637
  343loPI   PO4 5476   3.265  11.191  10.279 -0.2600  0.0458 -0.0353
  343loPI   GL1 5477   3.232  11.113   9.878 -0.0260 -0.1288 -0.0953
  343loPI   GL2 5478   3.118  11.347   9.811  0.1155  0.2221  0.1061
  343loPI   C1A 5479   3.398  10.736   9.589 -0.0658 -0.0568  0.1907
  343loPI   C2A 5480   3.548  10.655   9.234 -0.0745  0.1260  0.1468
  343loPI   C3A 5481   3.596  10.566   8.881  0.1030 -0.0196  0.0131
  343loPI   C4A 5482   3.736  10.548   8.497 -0.0311 -0.0466  0.0470
  343loPI   C5A 5483   3.906  10.610   8.138  0.0900 -0.1277 -0.1204
  343loPI   C6A 5484   4.251  10.590   7.765  0.0391 -0.0525 -0.1849
  343loPI   C1B 5485   3.225  11.395   9.367  0.0069 -0.0743  0.1103
  343loPI   C2B 5486   3.333  11.453   8.987 -0.0294  0.0590  0.2022
  343loPI   C3B 5487   3.420  11.468   8.595  0.0477 -0.3173 -0.0194
  343loPI   C4B 5488   3.716  11.477   8.268 -0.3296  0.3694 -0.0091
  344loPI    C1 5489  11.863  11.787  11.016 -0.2254  0.0227 -0.1570
  344loPI    C2 5490  11.737  11.654  11.372 -0.1413 -0.1654 -0.1964
  344loPI    C3 5491  12.047  11.906  11.351 -0.3860  0.1497 -0.1122
  344loPI   PO4 5492  11.672  11.670  10.891  0.0531  0.1154  0.1126
  344loPI   GL1 5493  11.375  11.364  10.696  0.1252 -0.0235 -0.1664
  344loPI   GL2 5494  11.220  11.665  10.579  0.1192 -0.0455 -0.2369
  344loPI   C1A 5495  11.221  11.192  10.344 -0.1065 -0.0609  0.1467
  344loPI   C2A 5496  11.069  11.230   9.906  0.0134 -0.1619 -0.0073
  344loPI   C3A 5497  11.030  11.229   9.465 -0.3350  0.4170  0.1764
  344loPI   C4A 5498  10.943  11.272   9.103 -0.1736  0.2148  0.2485
  344loPI   C5A 5499  10.876  11.158   8.743  0.0360  0.1323  0.0209
  344loPI   C6A 5500  10.677  11.309   8.440 -0.1442  0.0820  0.1101
  344loPI   C1B 5501  11.268  11.676  10.140  0.0762  0.0401  0.2894
  344loPI   C2B 5502  11.280  11.673   9.738 -0.2048  0.1027  0.4455
  344loPI   C3B 5503  11.379  11.589   9.373 -0.0566  0.3950 -0.0075
  344loPI   C4B 5504  11.352  11.491   8.872 -0.1414 -0.0989  0.1974
  345loPI    C1 5505  15.137   7.313  11.104  0.1336  0.0609  0.1217
  345loPI    C2 5506  15.293   7.680  11.145 -0.1551  0.1719  0.2531
  345loPI    C3 5507  15.368   7.399  11.420 -0.0514  0.1749  0.2280
  345loPI   PO4 5508  15.064   7.282  10.844  0.2163 -0.1095  0.4232
  345loPI   GL1 5509  15.132   7.040  10.513  0.2362 -0.0698  0.1146
  345loPI   GL2 5510  14.961   6.695  10.612 -0.1601 -0.2908 -0.1197
  345loPI   C1A 5511  15.171   6.910  10.024  0.1153  0.0012 -0.0823
  345loPI   C2A 5512  15.210   6.807   9.497 -0.0211 -0.1830  0.1314
  345loPI   C3A 5513  15.128   6.932   9.076 -0.2254  0.0217 -0.1525
  345loPI   C4A 5514  15.141   7.038   8.697 -0.2533  0.0741  0.0264
  345loPI   C5A 5515  14.909   6.904   8.350  0.0118 -0.1414 -0.3657
  345loPI   C6A 5516  14.537   6.599   8.493  0.1608 -0.1517 -0.0369
  345loPI   C1B 5517  14.840   6.630  10.210 -0.0085  0.0448  0.1699
  345loPI   C2B 5518  14.845   6.562   9.847  0.1398 -0.0518 -0.1473
  345loPI   C3B 5519  14.739   6.563   9.412 -0.0620 -0.0708 -0.2781
  345loPI   C4B 5520  14.691   6.683   8.958  0.0521 -0.1771 -0.3517
  346loPI    C1 5521   0.549   3.710  10.207  0.2208 -0.2116  0.1607
  346loPI    C2 5522   0.615   4.038  10.427 -0.4989  0.1160 -0.0778
  346loPI    C3 5523   0.517   3.693  10.605 -0.2033  0.1466  0.1513
  346loPI   PO4 5524   0.718   3.789   9.974 -0.1683 -0.2045 -0.0973
  346loPI   GL1 5525   0.680   3.705   9.649  0.4147 -0.2540  0.1190
  346loPI   GL2 5526   0.536   3.537   9.464 -0.1227 -0.0332 -0.1181
  346loPI   C1A 5527   1.015   3.555   9.323  0.1036  0.1605 -0.0307
  346loPI   C2A 5528   1.247   3.620   8.917  0.1188  0.0531  0.3218
  346loPI   C3A 5529   1.371   3.520   8.425  0.1085  0.2337 -0.1362
  346loPI   C4A 5530   1.394   3.366   8.064 -0.0737  0.1923  0.0993
  346loPI   C5A 5531   1.148   3.116   7.839  0.1190  0.2154 -0.1606
  346loPI   C6A 5532   0.868   3.052   7.546  0.1165  0.1919  0.2474
  346loPI   C1B 5533   0.665   3.486   9.014  0.0907  0.3891  0.2563
  346loPI   C2B 5534   0.836   3.536   8.638 -0.2020  0.1458  0.1589
  346loPI   C3B 5535   0.909   3.460   8.218 -0.3169  0.4127 -0.0710
  346loPI   C4B 5536   0.900   3.546   7.832 -0.0796 -0.1493  0.1045
  347loPI    C1 5537  17.072  11.900  10.110 -0.0619  0.0611 -0.0832
  347loPI    C2 5538  16.939  12.151  10.391  0.0676  0.1383 -0.0905
  347loPI    C3 5539  17.323  12.040  10.388  0.0538  0.0935 -0.2032
  347loPI   PO4 5540  17.000  11.972   9.891  0.0329  0.2596  0.1825
  347loPI   GL1 5541  17.024  12.290   9.632 -0.2199  0.0741 -0.0022
  347loPI   GL2 5542  17.330  12.371   9.608  0.0069  0.3026  0.3108
  347loPI   C1A 5543  16.876  12.243   9.194 -0.2456 -0.1174 -0.2750
  347loPI   C2A 5544  16.769  12.166   8.863 -0.3964 -0.0310  0.0450
  347loPI   C3A 5545  16.804  12.219   8.573  0.0458 -0.1861  0.4321
  347loPI   C4A 5546  17.098  12.109   8.197  0.1499  0.0955  0.1262
  347loPI   C5A 5547  17.236  12.101   7.765 -0.1460 -0.0411 -0.3778
  347loPI   C6A 5548  17.545  12.115   7.534  0.0622  0.0796 -0.1430
  347loPI   C1B 5549  17.469  12.294   9.145 -0.1471 -0.1078  0.0022
  347loPI   C2B 5550  17.520  12.288   8.741  0.3754 -0.2678  0.0329
  347loPI   C3B 5551  17.594  12.305   8.247  0.2133 -0.0119 -0.1457
  347loPI   C4B 5552  17.862  12.359   7.873  0.3203 -0.1727  0.2097
  348loPI    C1 5553   7.149   9.509  11.187  0.0738  0.1696 -0.0778
  348loPI    C2 5554   6.909   9.829  11.179 -0.1348  0.0202  0.1124
  348loPI    C3 5555   7.228   9.824  11.420 -0.1089  0.1010  0.0798
  348loPI   PO4 5556   7.118   9.455  10.949 -0.0848  0.2898 -0.3285
  348loPI   GL1 5557   7.372   9.264  10.564 -0.0143  0.2713  0.1226
  348loPI   GL2 5558   7.130   9.338  10.415  0.0375  0.0746  0.2018
  348loPI   C1A 5559   7.525   9.122  10.205  0.1420  0.4134  0.0321
  348loPI   C2A 5560   7.578   8.999   9.733 -0.2228  0.0994  0.1208
  348loPI   C3A 5561   7.613   8.998   9.257  0.0706 -0.2484 -0.0875
  348loPI   C4A 5562   7.655   8.934   8.765  0.2447 -0.0521 -0.4130
  348loPI   C5A 5563   7.998   8.867   8.559 -0.0037  0.3099  0.0003
  348loPI   C6A 5564   8.261   8.912   8.301 -0.3526  0.1971 -0.1463
  348loPI   C1B 5565   7.121   9.198   9.942 -0.1677 -0.0362 -0.1511
  348loPI   C2B 5566   7.151   9.215   9.508  0.1981  0.0492  0.0449
  348loPI   C3B 5567   7.124   9.187   9.135  0.1656 -0.0192  0.0546
  348loPI   C4B 5568   7.090   9.070   8.783 -0.2039 -0.1044 -0.0472
  349loPI    C1 5569   6.180  17.432  11.112  0.0378 -0.1699 -0.1074
  349loPI    C2 5570   5.962  17.204  11.358 -0.1706  0.0828 -0.0534
  349loPI    C3 5571   6.358  17.151  11.334 -0.1945 -0.1722  0.0798
  349loPI   PO4 5572   5.982  17.437  10.915 -0.0970  0.1114 -0.1754
  349loPI   GL1 5573   5.872  17.326  10.530 -0.1410  0.0891 -0.2934
  349loPI   GL2 5574   5.862  16.996  10.454  0.1644  0.0879 -0.1698
  349loPI   C1A 5575   5.760  17.572  10.170 -0.1957 -0.1689  0.2768
  349loPI   C2A 5576   5.716  17.757   9.749  0.0286  0.0940  0.1875
  349loPI   C3A 5577   5.748  17.679   9.399 -0.2010 -0.1480  0.3383
  349loPI   C4A 5578   5.953  17.743   9.014 -0.2034  0.1057 -0.1122
  349loPI   C5A 5579   5.997  17.982   8.561 -0.2720  0.0341  0.0882
  349loPI   C6A 5580   5.713  18.241   8.352  0.0468  0.0375  0.1920
  349loPI   C1B 5581   5.913  17.113  10.079  0.1316 -0.1109  0.1165
  349loPI   C2B 5582   5.924  17.211   9.556 -0.0841 -0.1913 -0.0321
  349loPI   C3B 5583   5.999  17.271   9.131  0.1201  0.0683  0.3274
  349loPI   C4B 5584   5.916  17.090   8.644 -0.3075  0.0664  0.1326
  350loPI    C1 5585   2.430  10.289  10.528 -0.2261 -0.0481  0.1535
  350loPI    C2 5586   2.797  10.325  10.682 -0.2684  0.2323  0.1942
  350loPI    C3 5587   2.493  10.212  10.915 -0.1833 -0.1526  0.1262
  350loPI   PO4 5588   2.465  10.082  10.282 -0.1490  0.1132  0.0441
  350loPI   GL1 5589   2.666  10.201   9.872  0.2941  0.3838  0.1411
  350loPI   GL2 5590   2.459  10.182   9.651 -0.4697  0.0953  0.0675
  350loPI   C1A 5591   2.964  10.468   9.723 -0.1991  0.0344  0.0588
  350loPI   C2A 5592   3.115  10.443   9.290  0.0199  0.0054  0.0509
  350loPI   C3A 5593   3.140  10.361   8.888 -0.1397 -0.1758  0.1492
  350loPI   C4A 5594   3.231  10.435   8.486 -0.0042  0.0551  0.0927
  350loPI   C5A 5595   3.467  10.173   8.218  0.2603  0.0157 -0.0938
  350loPI   C6A 5596   3.527   9.828   8.160 -0.0665  0.2114 -0.1090
  350loPI   C1B 5597   2.721  10.164   9.218 -0.1365  0.0057  0.1011
  350loPI   C2B 5598   2.760  10.051   8.745  0.4914 -0.0210 -0.1217
  350loPI   C3B 5599   2.732  10.334   8.382 -0.0565 -0.0157 -0.0938
  350loPI   C4B 5600   2.657  10.513   7.966  0.0610  0.0814 -0.1695
  351loPI    C1 5601   4.349  15.406  10.885  0.2520  0.0534  0.0563
  351loPI    C2 5602   4.246  15.221  11.225 -0.0356 -0.0101 -0.0623
  351loPI    C3 5603   4.563  15.094  11.016 -0.0962 -0.2253 -0.0254
  351loPI   PO4 5604   4.238  15.381  10.698 -0.2089  0.4458 -0.3438
  351loPI   GL1 5605   4.254  15.643  10.362  0.1069  0.0822  0.0366
  351loPI   GL2 5606   4.237  15.302  10.162  0.0454  0.1766  0.2581
  351loPI   C1A 5607   4.186  15.804   9.990 -0.0371 -0.1494 -0.0695
  351loPI   C2A 5608   4.292  15.846   9.536  0.1290  0.1107  0.1152
  351loPI   C3A 5609   4.341  15.859   9.157  0.0004  0.1220  0.0783
  351loPI   C4A 5610   4.301  16.129   8.780 -0.1651  0.0901 -0.0221
  351loPI   C5A 5611   4.110  16.327   8.422 -0.0638  0.1633 -0.3213
  351loPI   C6A 5612   4.270  16.589   8.102  0.1130 -0.1426 -0.1181
  351loPI   C1B 5613   4.373  15.328   9.809  0.0122 -0.0445 -0.0857
  351loPI   C2B 5614   4.488  15.320   9.454  0.1815 -0.3031 -0.2355
  351loPI   C3B 5615   4.471  15.396   8.977 -0.2586 -0.1301 -0.2097
  351loPI   C4B 5616   4.495  15.392   8.458  0.2088  0.0181  0.1052
  352loPI    C1 5617  10.119   9.966  10.752  0.0104  0.0098  0.0467
  352loPI    C2 5618  10.291   9.707  11.003 -0.0427  0.0115  0.0849
  352loPI    C3 5619  10.162  10.061  11.138 -0.0736  0.0115  0.0558
  352loPI   PO4 5620   9.909   9.887  10.610  0.1324  0.0291  0.1293
  352loPI   GL1 5621   9.784   9.680  10.236  0.0631  0.0861 -0.1987
  352loPI   GL2 5622   9.513   9.869  10.286  0.0171 -0.2360  0.0245
  352loPI   C1A 5623   9.817   9.862   9.893  0.0909  0.2571 -0.0402
  352loPI   C2A 5624   9.819   9.807   9.430  0.2559  0.0890  0.5053
  352loPI   C3A 5625   9.852   9.804   8.990  0.1116 -0.2217  0.0278
  352loPI   C4A 5626   9.971   9.762   8.488  0.2354 -0.3024 -0.1528
  352loPI   C5A 5627  10.028  10.069   8.204 -0.0710 -0.2805 -0.2400
  352loPI   C6A 5628  10.066  10.257   7.803  0.0101  0.0241 -0.3910
  352loPI   C1B 5629   9.244   9.990   9.931 -0.1058 -0.1505  0.0991
  352loPI   C2B 5630   9.232   9.947   9.495 -0.3300  0.2100 -0.4914
  352loPI   C3B 5631   9.335   9.914   9.105  0.0670  0.0416  0.3747
  352loPI   C4B 5632   9.316   9.873   8.729  0.1487  0.1233 -0.0307
  353loPI    C1 5633  13.258  13.120  10.888  0.2204  0.0539  0.2503
  353loPI    C2 5634  13.085  13.398  11.118  0.0765  0.2347 -0.0694
  353loPI    C3 5635  13.258  13.078  11.286 -0.1713  0.2779  0.2783
  353loPI   PO4 5636  13.273  13.234  10.697 -0.0483 -0.0584  0.3126
  353loPI   GL1 5637  13.055  13.113  10.316 -0.0938 -0.1534  0.0896
  353loPI   GL2 5638  12.894  13.388  10.265 -0.0043  0.1262  0.0320
  353loPI   C1A 5639  12.985  12.973   9.790 -0.2130 -0.0511  0.0249
  353loPI   C2A 5640  13.016  12.939   9.331 -0.4622 -0.1995 -0.0588
  353loPI   C3A 5641  12.828  13.010   8.917  0.4196 -0.1350  0.2005
  353loPI   C4A 5642  12.636  12.831   8.562  0.0148  0.0694 -0.0801
  353loPI   C5A 5643  12.422  12.561   8.304  0.1094  0.0089 -0.0658
  353loPI   C6A 5644  12.211  12.077   8.263  0.0088  0.1552  0.0879
  353loPI   C1B 5645  12.904  13.433   9.737 -0.0335 -0.0307 -0.0376
  353loPI   C2B 5646  12.832  13.381   9.265 -0.2562  0.0693 -0.1407
  353loPI   C3B 5647  12.800  13.546   8.871 -0.1305 -0.0721 -0.0175
  353loPI   C4B 5648  12.490  13.692   8.543 -0.1069 -0.0467  0.0948
  354loPI    C1 5649   5.071   5.258  10.950  0.0057  0.1594 -0.0523
  354loPI    C2 5650   4.674   5.221  10.979  0.0303 -0.2964 -0.2241
  354loPI    C3 5651   4.911   5.068  11.263  0.0854 -0.0133 -0.1149
  354loPI   PO4 5652   5.143   5.141  10.724  0.1705  0.2728 -0.0215
  354loPI   GL1 5653   5.385   5.098  10.255 -0.1391  0.0877 -0.2068
  354loPI   GL2 5654   5.351   5.354  10.271  0.3293 -0.0364  0.1968
  354loPI   C1A 5655   5.642   4.850   9.950 -0.0028  0.0323  0.1259
  354loPI   C2A 5656   5.789   4.829   9.618 -0.0771  0.1618 -0.3774
  354loPI   C3A 5657   5.799   4.834   9.153 -0.1337  0.1072 -0.1507
  354loPI   C4A 5658   5.908   4.902   8.683 -0.3988 -0.0032  0.2916
  354loPI   C5A 5659   6.204   4.837   8.367  0.0723 -0.1315  0.1452
  354loPI   C6A 5660   6.255   4.545   8.075  0.0206  0.0534  0.2826
  354loPI   C1B 5661   5.596   5.451   9.883 -0.5531 -0.3009  0.1425
  354loPI   C2B 5662   5.730   5.290   9.449  0.2068  0.1315 -0.1419
  354loPI   C3B 5663   5.776   5.375   9.006 -0.1005  0.0475 -0.0434
  354loPI   C4B 5664   5.779   5.328   8.534 -0.0192 -0.0689 -0.1205
  355loPI    C1 5665   9.237   1.263  11.272 -0.0244  0.0792 -0.1367
  355loPI    C2 5666   9.105   0.940  11.077 -0.1143 -0.0429  0.1208
  355loPI    C3 5667   8.919   1.063  11.409 -0.0386  0.2351  0.0635
  355loPI   PO4 5668   9.165   1.498  11.086 -0.0050 -0.4664  0.1505
  355loPI   GL1 5669   9.388   1.774  10.803  0.0333 -0.1731  0.1730
  355loPI   GL2 5670   9.117   1.878  10.622 -0.0409 -0.0770 -0.1801
  355loPI   C1A 5671   9.363   1.378  10.469 -0.2134 -0.0066 -0.0293
  355loPI   C2A 5672   9.340   1.246  10.042 -0.0682  0.0489 -0.0901
  355loPI   C3A 5673   9.303   1.196   9.549  0.0776  0.0194 -0.1182
  355loPI   C4A 5674   9.283   1.320   9.157 -0.0120 -0.3373  0.3247
  355loPI   C5A 5675   9.205   1.370   8.645  0.0719 -0.1589 -0.2506
  355loPI   C6A 5676   9.207   1.132   8.277 -0.1340 -0.0351 -0.1698
  355loPI   C1B 5677   9.147   1.798  10.147  0.0179  0.0888  0.0078
  355loPI   C2B 5678   9.226   1.724   9.719  0.2252 -0.0626  0.0811
  355loPI   C3B 5679   9.290   1.860   9.288 -0.1891 -0.0374  0.2927
  355loPI   C4B 5680   9.159   1.834   8.896  0.3242 -0.1526 -0.1723
  356loPI    C1 5681   1.058  17.114  10.310  0.1403  0.1273  0.0648
  356loPI    C2 5682   1.157  17.169  10.693 -0.1203 -0.1173  0.1703
  356loPI    C3 5683   0.772  17.141  10.588 -0.0524  0.0073 -0.1188
  356loPI   PO4 5684   1.156  16.891  10.284 -0.1006 -0.1168  0.0629
  356loPI   GL1 5685   1.017  16.624  10.005 -0.1814  0.1278  0.1591
  356loPI   GL2 5686   1.361  16.492   9.975  0.4077 -0.1973  0.2608
  356loPI   C1A 5687   0.988  16.621   9.628  0.0268  0.0031  0.0834
  356loPI   C2A 5688   1.040  16.606   9.254  0.0538 -0.2327 -0.0316
  356loPI   C3A 5689   1.074  16.716   8.787 -0.1065 -0.0792 -0.1265
  356loPI   C4A 5690   0.994  17.025   8.525 -0.1082  0.0725  0.1886
  356loPI   C5A 5691   0.921  16.763   8.119 -0.1356  0.1880  0.0437
  356loPI   C6A 5692   0.785  16.449   7.752  0.0694 -0.1815 -0.1625
  356loPI   C1B 5693   1.414  16.451   9.489 -0.0592 -0.0848 -0.1371
  356loPI   C2B 5694   1.524  16.378   9.121  0.0109  0.3542 -0.1947
  356loPI   C3B 5695   1.485  16.473   8.626 -0.0145  0.2801 -0.0252
  356loPI   C4B 5696   1.361  16.558   8.370  0.1885 -0.2904 -0.1733
  357loPI    C1 5697   5.071  11.081  10.831  0.0792  0.0243 -0.1470
  357loPI    C2 5698   4.686  11.056  10.934  0.1556 -0.0567  0.1285
  357loPI    C3 5699   4.922  11.328  11.108  0.1720  0.1477 -0.2065
  357loPI   PO4 5700   5.066  11.085  10.566 -0.3276 -0.1243 -0.0939
  357loPI   GL1 5701   5.055  11.073  10.157 -0.0010 -0.0216  0.1110
  357loPI   GL2 5702   5.111  11.404  10.041 -0.0202 -0.0380 -0.0192
  357loPI   C1A 5703   5.120  10.917   9.674  0.4656 -0.0947 -0.1065
  357loPI   C2A 5704   4.927  11.017   9.321  0.0259 -0.0730  0.1861
  357loPI   C3A 5705   4.874  10.869   8.985 -0.0930  0.0869 -0.1059
  357loPI   C4A 5706   4.784  10.829   8.553  0.2955 -0.0675  0.0319
  357loPI   C5A 5707   4.918  10.715   8.122 -0.3889 -0.0840 -0.1437
  357loPI   C6A 5708   4.769  10.477   7.757 -0.0578 -0.1820  0.0064
  357loPI   C1B 5709   5.264  11.396   9.666  0.0366  0.0459 -0.0877
  357loPI   C2B 5710   5.241  11.348   9.235 -0.1322 -0.0705  0.0817
  357loPI   C3B 5711   5.183  11.223   8.798  0.1208  0.0659 -0.0525
  357loPI   C4B 5712   5.113  11.212   8.376  0.0192 -0.0995 -0.1080
  358loPI    C1 5713  11.020   2.208  11.204  0.1207  0.1060  0.1412
  358loPI    C2 5714  11.075   1.979  11.527  0.1129  0.0616  0.1113
  358loPI    C3 5715  10.986   2.367  11.569 -0.0648  0.0160  0.1642
  358loPI   PO4 5716  10.807   2.065  11.037  0.0525  0.0120  0.0601
  358loPI   GL1 5717  10.901   1.895  10.632  0.0585 -0.0212 -0.1608
  358loPI   GL2 5718  10.855   1.684  10.323  0.0356 -0.2034  0.0962
  358loPI   C1A 5719  11.146   2.124  10.338  0.2269 -0.1652 -0.1563
  358loPI   C2A 5720  11.098   2.187   9.964  0.0219 -0.0055 -0.1121
  358loPI   C3A 5721  11.068   2.149   9.601  0.0501 -0.0667  0.3268
  358loPI   C4A 5722  10.877   2.237   9.180  0.0994  0.2317  0.2387
  358loPI   C5A 5723  10.786   2.266   8.648  0.2592  0.1107  0.3697
  358loPI   C6A 5724  11.023   2.201   8.352 -0.2292 -0.0304  0.2624
  358loPI   C1B 5725  10.798   1.764   9.893  0.2511 -0.1372  0.0133
  358loPI   C2B 5726  10.650   1.843   9.441 -0.0335  0.0290 -0.2998
  358loPI   C3B 5727  10.584   1.910   8.949 -0.1427  0.1040  0.0919
  358loPI   C4B 5728  10.564   1.735   8.559 -0.1034  0.0010 -0.0542
  359loPI    C1 5729  16.109  17.197  10.527 -0.0817 -0.0677  0.1625
  359loPI    C2 5730  16.354  16.995  10.770  0.1399 -0.0662 -0.0563
  359loPI    C3 5731  16.291  17.385  10.830  0.3626 -0.0176 -0.1260
  359loPI   PO4 5732  16.197  17.200  10.220  0.2517 -0.0653  0.1326
  359loPI   GL1 5733  16.184  17.338   9.868 -0.0364  0.0946  0.0540
  359loPI   GL2 5734  15.922  17.552   9.834 -0.2130  0.4140  0.3155
  359loPI   C1A 5735  16.194  17.303   9.507 -0.0068 -0.0355  0.0345
  359loPI   C2A 5736  16.074  17.367   9.193  0.0477  0.2634  0.1719
  359loPI   C3A 5737  16.058  17.373   8.723 -0.0391  0.1912  0.0039
  359loPI   C4A 5738  16.089  17.351   8.288  0.1918  0.0074  0.0056
  359loPI   C5A 5739  16.403  17.109   8.004  0.0276  0.1195 -0.2484
  359loPI   C6A 5740  16.911  17.055   7.988 -0.1777  0.2697 -0.0709
  359loPI   C1B 5741  15.681  17.385   9.456 -0.2634  0.4442  0.4946
  359loPI   C2B 5742  15.568  17.420   9.006 -0.3053  0.0836  0.0126
  359loPI   C3B 5743  15.269  17.569   8.768 -0.1716  0.2452  0.0738
  359loPI   C4B 5744  15.093  17.430   8.394  0.0812 -0.1497  0.1037
  360loPI    C1 5745   9.380   9.584  10.856 -0.2120  0.1680 -0.1072
  360loPI    C2 5746   9.081   9.797  11.015 -0.4040 -0.2093  0.0491
  360loPI    C3 5747   9.154   9.426  11.145 -0.0790 -0.2455 -0.2229
  360loPI   PO4 5748   9.494   9.506  10.633 -0.1662 -0.1429  0.2226
  360loPI   GL1 5749   9.593   9.246  10.377  0.1416 -0.1412 -0.0818
  360loPI   GL2 5750   9.433   8.960  10.297  0.0853  0.2098  0.0033
  360loPI   C1A 5751   9.851   9.233   9.927  0.2983  0.0647 -0.0271
  360loPI   C2A 5752   9.985   9.157   9.490  0.0998  0.0386 -0.1737
  360loPI   C3A 5753   9.972   9.277   9.108  0.0318  0.3599 -0.2801
  360loPI   C4A 5754   9.948   9.265   8.759 -0.1441  0.1654  0.0527
  360loPI   C5A 5755   9.678   9.189   8.460 -0.4206 -0.0059 -0.2075
  360loPI   C6A 5756   9.338   8.973   8.317 -0.1738 -0.1206 -0.2719
  360loPI   C1B 5757   9.509   8.848   9.929  0.3321  0.1231 -0.0270
  360loPI   C2B 5758   9.527   8.959   9.561 -0.0150 -0.3279 -0.0468
  360loPI   C3B 5759   9.578   8.931   9.138  0.1337  0.1337 -0.0664
  360loPI   C4B 5760   9.442   8.756   8.792  0.0852  0.0817 -0.2521
  361loPI    C1 5761   7.040   5.404  11.105  0.1334  0.0867  0.1605
  361loPI    C2 5762   7.182   5.074  10.929  0.2511  0.2249 -0.0064
  361loPI    C3 5763   7.080   5.066  11.316  0.1313 -0.0410 -0.0417
  361loPI   PO4 5764   6.943   5.552  10.874  0.0050 -0.1832 -0.0158
  361loPI   GL1 5765   6.991   5.351  10.579 -0.0037  0.4369  0.1544
  361loPI   GL2 5766   7.334   5.518  10.634  0.1813 -0.1191  0.0146
  361loPI   C1A 5767   6.795   5.361  10.197 -0.0914  0.0624 -0.1194
  361loPI   C2A 5768   6.922   5.445   9.785 -0.2613 -0.0600  0.3630
  361loPI   C3A 5769   6.988   5.457   9.368  0.2750 -0.2189 -0.0551
  361loPI   C4A 5770   7.090   5.503   8.956 -0.0127 -0.0315 -0.0001
  361loPI   C5A 5771   7.144   5.304   8.509 -0.0425 -0.1728 -0.1385
  361loPI   C6A 5772   7.124   5.408   8.046 -0.2896 -0.0673 -0.2424
  361loPI   C1B 5773   7.347   5.706  10.356  0.1288 -0.2636 -0.0007
  361loPI   C2B 5774   7.290   5.768   9.935  0.4014 -0.0217 -0.1834
  361loPI   C3B 5775   7.401   5.725   9.503 -0.0128  0.4039  0.0317
  361loPI   C4B 5776   7.454   5.809   9.145 -0.0177  0.0918 -0.0130
  362loPI    C1 5777  13.537   0.997  11.051 -0.0559  0.0196  0.1209
  362loPI    C2 5778  13.268   0.701  11.037 -0.0207 -0.0107  0.0787
  362loPI    C3 5779  13.155   1.069  11.147 -0.0469 -0.0598  0.2182
  362loPI   PO4 5780  13.639   1.072  10.811  0.1829  0.0157 -0.0037
  362loPI   GL1 5781  13.674   1.151  10.454  0.1784  0.1242 -0.0996
  362loPI   GL2 5782  13.808   0.932  10.284 -0.1384 -0.3321 -0.2455
  362loPI   C1A 5783  13.453   1.198  10.044  0.2111  0.2271 -0.0071
  362loPI   C2A 5784  13.499   1.298   9.560 -0.1742  0.0607  0.0438
  362loPI   C3A 5785  13.502   1.346   9.084 -0.2814 -0.0286 -0.0099
  362loPI   C4A 5786  13.494   1.348   8.615 -0.0030  0.1599  0.0080
  362loPI   C5A 5787  13.490   1.777   8.419  0.0768  0.1496 -0.0097
  362loPI   C6A 5788  13.924   1.964   8.342 -0.0614 -0.3150 -0.3708
  362loPI   C1B 5789  13.746   0.830   9.821  0.2070  0.1970  0.2965
  362loPI   C2B 5790  13.629   0.831   9.361 -0.0192 -0.0622 -0.0964
  362loPI   C3B 5791  13.655   0.762   8.975 -0.0590  0.1747 -0.2304
  362loPI   C4B 5792  13.469   0.805   8.637 -0.0707 -0.0740 -0.0947
  363loPI    C1 5793  10.488  12.725  11.394  0.1465 -0.0285 -0.0288
  363loPI    C2 5794  10.272  13.050  11.307 -0.1021 -0.1380  0.1669
  363loPI    C3 5795  10.603  13.084  11.529 -0.1623 -0.0264  0.2411
  363loPI   PO4 5796  10.399  12.541  11.173 -0.1048  0.0370  0.2546
  363loPI   GL1 5797  10.355  12.515  10.708 -0.3039 -0.1091  0.0470
  363loPI   GL2 5798  10.575  12.620  10.577 -0.2530 -0.1618  0.1029
  363loPI   C1A 5799  10.157  12.517  10.326 -0.1955  0.1458  0.0628
  363loPI   C2A 5800  10.049  12.517   9.887  0.0589 -0.0699 -0.0805
  363loPI   C3A 5801  10.184  12.517   9.456  0.2087  0.0198  0.1887
  363loPI   C4A 5802  10.256  12.450   9.055  0.0098 -0.0546  0.0087
  363loPI   C5A 5803  10.240  12.741   8.725  0.0411 -0.0019  0.0130
  363loPI   C6A 5804  10.216  13.020   8.429  0.0105 -0.2223  0.0443
  363loPI   C1B 5805  10.588  12.549  10.083  0.0965  0.1920 -0.3727
  363loPI   C2B 5806  10.588  12.515   9.730 -0.0033  0.0400 -0.2763
  363loPI   C3B 5807  10.736  12.326   9.323 -0.3957 -0.1269  0.0614
  363loPI   C4B 5808  10.774  12.243   8.769 -0.0432 -0.1400 -0.2905
  364loPI    C1 5809  15.841   0.275  10.828  0.2037 -0.0580 -0.1942
  364loPI    C2 5810  16.081   0.483  11.071  0.0005  0.0540 -0.0867
  364loPI    C3 5811  16.090   0.083  11.075 -0.0300  0.0545  0.1348
  364loPI   PO4 5812  15.822   0.324  10.500 -0.1908 -0.2927  0.0218
  364loPI   GL1 5813  15.915   0.371  10.113  0.0884 -0.3204  0.1081
  364loPI   GL2 5814  15.739   0.203   9.984 -0.0799  0.1890 -0.3194
  364loPI   C1A 5815  16.092   0.578   9.731 -0.1909 -0.1484 -0.1890
  364loPI   C2A 5816  16.022   0.526   9.353  0.1467 -0.3001 -0.0831
  364loPI   C3A 5817  15.971   0.579   8.959  0.0721 -0.0591  0.1482
  364loPI   C4A 5818  15.938   0.486   8.461 -0.0724  0.1127  0.4244
  364loPI   C5A 5819  15.892   0.615   7.992  0.1671 -0.0317 -0.2428
  364loPI   C6A 5820  16.029   0.692   7.633  0.4325  0.0171  0.0128
  364loPI   C1B 5821  15.703   0.171   9.611  0.0752 -0.1326 -0.0085
  364loPI   C2B 5822  15.600   0.132   9.161  0.0407  0.0552  0.2044
  364loPI   C3B 5823  15.638   0.157   8.720 -0.1816  0.0238  0.0386
  364loPI   C4B 5824  15.596  -0.110   8.318 -0.0261  0.3758 -0.2092
  365loPI    C1 5825   2.906   0.984  10.911  0.1519  0.1060 -0.0917
  365loPI    C2 5826   3.085   1.323  11.025  0.0680  0.2116 -0.2684
  365loPI    C3 5827   2.698   1.326  10.925  0.0012  0.0126 -0.0248
  365loPI   PO4 5828   2.975   0.825  10.749 -0.0039  0.0160  0.0623
  365loPI   GL1 5829   3.159   0.848  10.330  0.0600 -0.2594  0.0495
  365loPI   GL2 5830   2.905   0.926  10.062  0.1249  0.1762 -0.5339
  365loPI   C1A 5831   3.309   0.840   9.820 -0.0667  0.3151 -0.3673
  365loPI   C2A 5832   3.361   0.889   9.396 -0.2031 -0.2811 -0.0793
  365loPI   C3A 5833   3.355   0.815   8.950 -0.0154 -0.0536  0.0511
  365loPI   C4A 5834   3.423   0.919   8.393 -0.2264  0.0111  0.1019
  365loPI   C5A 5835   3.211   1.310   8.219 -0.4517  0.2044  0.0100
  365loPI   C6A 5836   2.929   1.683   8.174  0.1062  0.1246  0.0826
  365loPI   C1B 5837   2.867   0.930   9.632  0.0672  0.1553 -0.0192
  365loPI   C2B 5838   2.935   1.094   9.101 -0.1472 -0.1931  0.2132
  365loPI   C3B 5839   2.958   1.011   8.697 -0.0404  0.0571  0.2803
  365loPI   C4B 5840   2.754   1.170   8.312 -0.3298  0.1159 -0.1116
  366loPI    C1 5841  17.145   7.161  10.255 -0.1507 -0.3656 -0.0656
  366loPI    C2 5842  16.761   7.236  10.172 -0.1079  0.1732  0.1763
  366loPI    C3 5843  16.859   7.043  10.508 -0.1708 -0.1290  0.0249
  366loPI   PO4 5844  17.222   7.158  10.019  0.2137 -0.0793  0.1930
  366loPI   GL1 5845  17.070   7.285   9.602 -0.0017  0.0272 -0.1180
  366loPI   GL2 5846  17.399   7.121   9.505  0.0914  0.1049 -0.1598
  366loPI   C1A 5847  16.825   7.316   9.234  0.1419  0.0465 -0.0200
  366loPI   C2A 5848  16.789   7.300   8.798  0.1413 -0.4546 -0.2204
  366loPI   C3A 5849  16.887   7.493   8.461 -0.1517 -0.0979 -0.0725
  366loPI   C4A 5850  16.734   7.592   8.002 -0.0634 -0.0215 -0.2605
  366loPI   C5A 5851  16.532   7.280   7.861 -0.2918  0.1643  0.3182
  366loPI   C6A 5852  16.165   7.021   7.879  0.1457  0.2752 -0.5483
  366loPI   C1B 5853  17.248   7.134   9.039 -0.1944 -0.0158 -0.0394
  366loPI   C2B 5854  17.337   7.168   8.608 -0.3649  0.1614 -0.3105
  366loPI   C3B 5855  17.295   7.198   8.190  0.0247 -0.1820  0.5586
  366loPI   C4B 5856  17.088   7.226   7.890  0.0079  0.0449  0.0139
  367loPI    C1 5857  11.901   6.153  11.154 -0.0082 -0.0044  0.0076
  367loPI    C2 5858  12.207   6.376  11.283  0.0188  0.0045 -0.0716
  367loPI    C3 5859  12.218   5.979  11.324  0.0222  0.0082 -0.0363
  367loPI   PO4 5860  11.845   6.235  10.955 -0.0768  0.0347 -0.2332
  367loPI   GL1 5861  11.735   5.944  10.609  0.2094 -0.2284  0.1044
  367loPI   GL2 5862  11.546   5.704  10.610 -0.1135  0.2622  0.2804
  367loPI   C1A 5863  12.008   6.015  10.309 -0.0400  0.3014  0.2839
  367loPI   C2A 5864  11.968   6.083   9.839 -0.1203 -0.0343  0.1746
  367loPI   C3A 5865  11.967   6.147   9.410  0.3207 -0.0251 -0.1266
  367loPI   C4A 5866  11.982   6.155   8.929  0.1936 -0.1976  0.2274
  367loPI   C5A 5867  12.121   6.046   8.519 -0.1589  0.0039 -0.1283
  367loPI   C6A 5868  12.149   5.766   8.198  0.0511 -0.0777 -0.2708
  367loPI   C1B 5869  11.564   5.690  10.205 -0.0903 -0.1750  0.4280
  367loPI   C2B 5870  11.553   5.705   9.781  0.1696 -0.0643  0.0640
  367loPI   C3B 5871  11.582   5.829   9.373  0.2509  0.0753  0.1509
  367loPI   C4B 5872  11.635   5.837   9.079  0.1381  0.1003  0.1979
  368loPI    C1 5873  12.514  10.211  11.099 -0.0359 -0.1290 -0.2328
  368loPI    C2 5874  12.883  10.203  11.252 -0.0749  0.2259 -0.1126
  368loPI    C3 5875  12.603   9.954  11.392  0.1003 -0.0030 -0.1632
  368loPI   PO4 5876  12.478  10.207  10.865  0.1177  0.2238  0.0706
  368loPI   GL1 5877  12.499  10.040  10.499 -0.0090  0.1446  0.1343
  368loPI   GL2 5878  12.712  10.256  10.307 -0.1067 -0.1760 -0.1876
  368loPI   C1A 5879  12.507   9.805  10.071  0.2442 -0.1501 -0.0743
  368loPI   C2A 5880  12.490   9.774   9.697  0.2212 -0.1111  0.0528
  368loPI   C3A 5881  12.667   9.693   9.311 -0.0691 -0.1962  0.2684
  368loPI   C4A 5882  12.738   9.749   8.889  0.2559  0.1811 -0.0540
  368loPI   C5A 5883  12.737   9.908   8.500 -0.0651  0.0357  0.2241
  368loPI   C6A 5884  12.525  10.153   8.182 -0.1155  0.1108 -0.1561
  368loPI   C1B 5885  12.640  10.253   9.883 -0.2784 -0.0137 -0.1737
  368loPI   C2B 5886  12.510  10.254   9.387  0.0196 -0.1060 -0.1729
  368loPI   C3B 5887  12.553  10.302   9.021 -0.1457 -0.2114 -0.2134
  368loPI   C4B 5888  12.718  10.391   8.603  0.1865 -0.3275 -0.2624
  369loPI    C1 5889  15.221  13.639  10.677  0.0268 -0.0794 -0.0142
  369loPI    C2 5890  14.996  13.752  10.988  0.0369  0.2262 -0.1151
  369loPI    C3 5891  15.375  13.639  11.046 -0.0621 -0.0438  0.0234
  369loPI   PO4 5892  15.188  13.899  10.472 -0.2023  0.1848 -0.3466
  369loPI   GL1 5893  14.922  14.036  10.138  0.1209 -0.0487 -0.0032
  369loPI   GL2 5894  14.741  13.804  10.027  0.0043 -0.0127 -0.0627
  369loPI   C1A 5895  15.076  14.201   9.837  0.2944 -0.1148  0.0586
  369loPI   C2A 5896  14.979  14.232   9.453  0.0985 -0.2082  0.1263
  369loPI   C3A 5897  14.897  14.296   9.013 -0.0124 -0.1461  0.2917
  369loPI   C4A 5898  14.942  14.364   8.543  0.1768  0.1733  0.0692
  369loPI   C5A 5899  15.015  14.573   8.222 -0.0720 -0.1242  0.0377
  369loPI   C6A 5900  15.326  14.840   7.991 -0.0459  0.2983 -0.0537
  369loPI   C1B 5901  14.732  13.822   9.648 -0.0569 -0.0310  0.0615
  369loPI   C2B 5902  14.596  13.957   9.204 -0.2025 -0.1165 -0.0497
  369loPI   C3B 5903  14.491  13.877   8.724  0.0639  0.1217 -0.3470
  369loPI   C4B 5904  14.444  14.122   8.364 -0.2111 -0.1037 -0.2250
  370loPI    C1 5905  12.201   1.633  11.064 -0.2950 -0.3451  0.0766
  370loPI    C2 5906  12.359   1.537  11.418  0.0707  0.0239  0.0209
  370loPI    C3 5907  12.031   1.764  11.401 -0.1175 -0.2353  0.1249
  370loPI   PO4 5908  12.090   1.468  10.897 -0.1679 -0.3198  0.2270
  370loPI   GL1 5909  12.137   1.225  10.531 -0.1414  0.2011 -0.0024
  370loPI   GL2 5910  11.936   0.957  10.389  0.1625  0.0277  0.1436
  370loPI   C1A 5911  12.519   1.199  10.262 -0.5097  0.2481 -0.0976
  370loPI   C2A 5912  12.569   1.263   9.808 -0.0973 -0.1015 -0.1042
  370loPI   C3A 5913  12.591   1.141   9.307  0.0766 -0.0286  0.0185
  370loPI   C4A 5914  12.596   1.288   8.863  0.1227  0.0550  0.2935
  370loPI   C5A 5915  12.610   1.614   8.516  0.0419 -0.1716  0.1090
  370loPI   C6A 5916  12.570   2.065   8.544 -0.0548 -0.1541 -0.2180
  370loPI   C1B 5917  12.102   1.199   9.982 -0.1214 -0.2168 -0.0019
  370loPI   C2B 5918  12.201   1.233   9.530  0.1401 -0.0035  0.0502
  370loPI   C3B 5919  12.131   1.313   9.175  0.3199 -0.1363 -0.2426
  370loPI   C4B 5920  12.104   1.268   8.670 -0.2126  0.1622 -0.1104
  371loPI    C1 5921  17.254  12.479  10.118 -0.0258 -0.2423 -0.0454
  371loPI    C2 5922  17.463  12.792  10.253 -0.4178  0.0556 -0.1113
  371loPI    C3 5923  17.322  12.520  10.510 -0.0521 -0.0868 -0.0564
  371loPI   PO4 5924  17.093  12.623  10.020  0.0203  0.1536  0.1583
  371loPI   GL1 5925  16.932  12.831   9.679  0.1811 -0.0223 -0.1572
  371loPI   GL2 5926  16.920  13.042   9.491 -0.2080  0.0977 -0.1494
  371loPI   C1A 5927  17.098  12.634   9.282 -0.2971  0.3522 -0.4520
  371loPI   C2A 5928  17.087  12.592   8.825 -0.1808  0.0982  0.0415
  371loPI   C3A 5929  17.194  12.542   8.442 -0.2010  0.0684 -0.3107
  371loPI   C4A 5930  17.265  12.608   7.954  0.1964 -0.0955 -0.0023
  371loPI   C5A 5931  17.588  12.797   7.725 -0.0732  0.0590  0.1414
  371loPI   C6A 5932  17.789  13.037   7.418 -0.0784  0.5591  0.1023
  371loPI   C1B 5933  16.921  13.063   9.040 -0.0698  0.0663 -0.1748
  371loPI   C2B 5934  16.909  13.023   8.604  0.0711 -0.0233 -0.1495
  371loPI   C3B 5935  16.802  12.701   8.292  0.1009 -0.0553 -0.1182
  371loPI   C4B 5936  16.733  12.446   8.155  0.0884  0.4258 -0.0746
  372loPI    C1 5937   8.130   5.591  11.152  0.0395 -0.1076  0.2636
  372loPI    C2 5938   7.930   5.387  11.433  0.0613 -0.3508  0.1048
  372loPI    C3 5939   8.183   5.679  11.539 -0.2327 -0.1682  0.3169
  372loPI   PO4 5940   7.998   5.533  10.972 -0.0671 -0.1125  0.1629
  372loPI   GL1 5941   8.221   5.585  10.646 -0.2740 -0.0222 -0.1973
  372loPI   GL2 5942   8.289   5.849  10.418 -0.0997 -0.0178 -0.0405
  372loPI   C1A 5943   8.313   5.391  10.169 -0.0743 -0.2424  0.3266
  372loPI   C2A 5944   8.348   5.403   9.761 -0.1139 -0.1858 -0.0679
  372loPI   C3A 5945   8.463   5.404   9.280 -0.2090 -0.0572  0.2132
  372loPI   C4A 5946   8.462   5.471   8.874  0.1727 -0.1002 -0.0839
  372loPI   C5A 5947   8.642   5.572   8.493 -0.1334  0.0294 -0.1575
  372loPI   C6A 5948   9.081   5.861   8.444 -0.1866  0.1545  0.3093
  372loPI   C1B 5949   8.281   5.847   9.969  0.0554  0.2927 -0.1254
  372loPI   C2B 5950   8.369   5.873   9.543 -0.3437  0.3049  0.2772
  372loPI   C3B 5951   8.423   5.931   9.030 -0.0592 -0.0334  0.1837
  372loPI   C4B 5952   8.717   6.136   8.647  0.1093  0.0131  0.2384
  373loPI    C1 5953  16.629   3.961  10.417 -0.0056  0.1601 -0.1252
  373loPI    C2 5954  16.613   4.082  10.798  0.0681 -0.1225 -0.0302
  373loPI    C3 5955  16.300   3.894  10.635 -0.0467  0.1900 -0.1779
  373loPI   PO4 5956  16.802   4.233  10.353 -0.1691  0.4109 -0.1953
  373loPI   GL1 5957  16.632   4.518  10.034 -0.1252  0.0729  0.2149
  373loPI   GL2 5958  16.403   4.226   9.936 -0.1324 -0.1810 -0.0266
  373loPI   C1A 5959  16.464   4.520   9.567 -0.1632  0.2811 -0.5151
  373loPI   C2A 5960  16.481   4.514   9.148  0.0548 -0.4353 -0.0742
  373loPI   C3A 5961  16.446   4.632   8.773  0.1903 -0.2919  0.0879
  373loPI   C4A 5962  16.437   4.626   8.299 -0.2380 -0.0719  0.0665
  373loPI   C5A 5963  16.108   4.757   8.072 -0.0595 -0.0045  0.1755
  373loPI   C6A 5964  15.803   4.580   7.881  0.1412 -0.0196 -0.3356
  373loPI   C1B 5965  16.189   4.110   9.647 -0.1705 -0.1507  0.0480
  373loPI   C2B 5966  16.065   4.184   9.268  0.2310 -0.0080 -0.1012
  373loPI   C3B 5967  16.089   4.217   8.869  0.3058 -0.1503  0.0110
  373loPI   C4B 5968  16.043   4.355   8.463 -0.3420 -0.0449  0.3130
  374loPI    C1 5969  16.596  13.765  10.458  0.2411 -0.2671 -0.0822
  374loPI    C2 5970  16.596  13.937  10.819 -0.2438  0.0070 -0.2028
  374loPI    C3 5971  16.575  13.539  10.787 -0.1648 -0.0210  0.0694
  374loPI   PO4 5972  16.571  13.940  10.273 -0.0476  0.1819  0.2666
  374loPI   GL1 5973  16.458  14.053   9.881 -0.3265 -0.3404  0.1561
  374loPI   GL2 5974  16.387  13.727   9.809  0.0348 -0.1192 -0.0952
  374loPI   C1A 5975  16.660  14.210   9.471 -0.1595  0.0504 -0.2325
  374loPI   C2A 5976  16.642  14.162   9.031  0.0670 -0.1114 -0.0435
  374loPI   C3A 5977  16.793  14.071   8.639  0.0988 -0.0873 -0.1417
  374loPI   C4A 5978  16.867  14.067   8.287  0.0363  0.2344 -0.0163
  374loPI   C5A 5979  16.469  13.885   8.126  0.1146 -0.1623 -0.0573
  374loPI   C6A 5980  16.351  13.601   7.903  0.0372 -0.1769  0.4499
  374loPI   C1B 5981  16.383  13.745   9.422 -0.1259 -0.2206 -0.0667
  374loPI   C2B 5982  16.459  13.690   8.937  0.0582 -0.0235  0.2223
  374loPI   C3B 5983  16.533  13.557   8.488 -0.0334  0.1195 -0.0210
  374loPI   C4B 5984  16.668  13.297   8.095 -0.0869 -0.2746 -0.1414
  375loPI    C1 5985  14.080   4.407  10.968 -0.0362  0.1123 -0.0285
  375loPI    C2 5986  13.822   4.567  11.229 -0.2301 -0.1023 -0.0854
  375loPI    C3 5987  13.938   4.186  11.270 -0.0503 -0.0562 -0.1570
  375loPI   PO4 5988  14.093   4.463  10.807 -0.1357  0.0738 -0.1719
  375loPI   GL1 5989  13.933   4.589  10.441  0.1659  0.3253 -0.1309
  375loPI   GL2 5990  13.753   4.586  10.236 -0.3061 -0.5050 -0.0660
  375loPI   C1A 5991  14.159   4.906  10.121 -0.2312  0.4590  0.2731
  375loPI   C2A 5992  14.116   4.881   9.742 -0.2191  0.0397 -0.0417
  375loPI   C3A 5993  14.150   4.944   9.304 -0.2965  0.1145  0.1146
  375loPI   C4A 5994  14.061   4.802   8.857 -0.1629  0.0307  0.2747
  375loPI   C5A 5995  14.074   4.464   8.601 -0.2336  0.1471 -0.1784
  375loPI   C6A 5996  13.961   4.075   8.318 -0.1401  0.0929 -0.2056
  375loPI   C1B 5997  13.722   4.594   9.804  0.0646 -0.1678 -0.0506
  375loPI   C2B 5998  13.815   4.604   9.329  0.1562 -0.0400  0.2424
  375loPI   C3B 5999  13.558   4.669   8.986 -0.0033  0.1181 -0.2026
  375loPI   C4B 6000  13.583   4.691   8.530  0.3956  0.1604  0.2074
  376loPI    C1 6001  10.602  14.806  11.618 -0.2182 -0.1253 -0.0021
  376loPI    C2 6002  10.529  15.174  11.758  0.0804 -0.0666  0.0070
  376loPI    C3 6003  10.558  14.866  12.011 -0.0153 -0.0704  0.0136
  376loPI   PO4 6004  10.736  14.849  11.368  0.1681  0.1665 -0.1042
  376loPI   GL1 6005  10.552  14.852  10.982 -0.0525 -0.0742  0.2053
  376loPI   GL2 6006  10.297  14.727  10.886  0.2497 -0.0890  0.0650
  376loPI   C1A 6007  10.664  14.716  10.535 -0.3138 -0.0775  0.0066
  376loPI   C2A 6008  10.891  14.771  10.217 -0.0721  0.0870 -0.0348
  376loPI   C3A 6009  10.791  14.736   9.757 -0.0717 -0.1381 -0.1514
  376loPI   C4A 6010  10.726  14.771   9.306  0.1930 -0.0641  0.1417
  376loPI   C5A 6011  10.601  14.728   8.926 -0.3450 -0.2140 -0.3145
  376loPI   C6A 6012  10.733  14.749   8.517 -0.2661 -0.0663 -0.3186
  376loPI   C1B 6013  10.241  14.880  10.422 -0.0365  0.0133  0.1397
  376loPI   C2B 6014  10.370  14.855  10.023  0.2168 -0.0616  0.0769
  376loPI   C3B 6015  10.266  14.838   9.511 -0.0072 -0.1570 -0.1212
  376loPI   C4B 6016  10.224  15.000   9.114  0.0691 -0.0328 -0.0703
  377loPI    C1 6017  11.199  10.134  11.211 -0.1052 -0.0491 -0.1509
  377loPI    C2 6018  11.016  10.392  11.455  0.1567  0.1142 -0.1229
  377loPI    C3 6019  11.399  10.297  11.516  0.1762  0.0261 -0.3712
  377loPI   PO4 6020  11.101  10.186  10.936 -0.1207  0.2594  0.0905
  377loPI   GL1 6021  11.352  10.340  10.565  0.1756 -0.2227  0.0487
  377loPI   GL2 6022  11.623  10.171  10.525 -0.1439  0.0166  0.0171
  377loPI   C1A 6023  11.302  10.204  10.057  0.1186  0.1002 -0.3765
  377loPI   C2A 6024  11.260  10.293   9.563  0.0794  0.2281 -0.1156
  377loPI   C3A 6025  11.071  10.312   9.097 -0.1166 -0.0824 -0.0845
  377loPI   C4A 6026  11.148  10.245   8.616  0.3358 -0.0964 -0.1105
  377loPI   C5A 6027  11.552  10.400   8.471  0.2361 -0.0825 -0.1831
  377loPI   C6A 6028  11.935  10.541   8.627  0.1646 -0.1694 -0.1663
  377loPI   C1B 6029  11.708  10.030  10.128 -0.0290  0.3448 -0.3668
  377loPI   C2B 6030  11.688  10.035   9.715  0.1287 -0.4264 -0.0485
  377loPI   C3B 6031  11.575  10.071   9.260  0.2091  0.2591 -0.1657
  377loPI   C4B 6032  11.736  10.162   8.867  0.2674 -0.0031 -0.2510
  378loPI    C1 6033   9.493  10.863  10.892  0.2733 -0.1249  0.0582
  378loPI    C2 6034   9.363  10.707  11.236  0.2408 -0.0583  0.0764
  378loPI    C3 6035   9.710  10.905  11.226  0.2152 -0.0130  0.0826
  378loPI   PO4 6036   9.449  10.626  10.719  0.0456 -0.0107 -0.1380
  378loPI   GL1 6037   9.445  10.362  10.411  0.3118 -0.1323  0.0471
  378loPI   GL2 6038   9.149  10.633  10.349 -0.1511  0.1572 -0.3157
  378loPI   C1A 6039   9.706  10.347  10.043 -0.0174  0.3559 -0.1044
  378loPI   C2A 6040   9.645  10.293   9.577 -0.2332 -0.1495  0.2385
  378loPI   C3A 6041   9.752  10.265   9.146  0.1731 -0.0869  0.0531
  378loPI   C4A 6042   9.802  10.275   8.645  0.1794  0.2325 -0.1450
  378loPI   C5A 6043   9.551  10.066   8.309 -0.1376  0.0507 -0.0852
  378loPI   C6A 6044   9.361   9.939   7.983  0.1032 -0.0958 -0.0958
  378loPI   C1B 6045   9.184  10.571   9.990 -0.0267 -0.1736 -0.1935
  378loPI   C2B 6046   9.204  10.456   9.508 -0.0729  0.2233  0.0259
  378loPI   C3B 6047   9.304  10.409   9.103 -0.1716  0.0965 -0.0723
  378loPI   C4B 6048   9.291  10.466   8.663 -0.0422 -0.0947  0.0923
  379loPI    C1 6049  12.769   3.418  11.306 -0.0888 -0.0343  0.4660
  379loPI    C2 6050  12.595   3.739  11.471  0.0720  0.2931  0.0190
  379loPI    C3 6051  12.799   3.482  11.700 -0.1987  0.4149  0.4074
  379loPI   PO4 6052  12.844   3.555  11.089 -0.0117  0.4243  0.2099
  379loPI   GL1 6053  12.807   3.489  10.667  0.0423 -0.0895 -0.1310
  379loPI   GL2 6054  13.148   3.398  10.691  0.1746 -0.0116 -0.2846
  379loPI   C1A 6055  12.739   3.564  10.238  0.0865  0.1219 -0.1907
  379loPI   C2A 6056  12.587   3.578   9.755  0.1574 -0.1325  0.0305
  379loPI   C3A 6057  12.554   3.603   9.294 -0.2977  0.2654 -0.0461
  379loPI   C4A 6058  12.484   3.552   8.913 -0.1725  0.0199  0.1044
  379loPI   C5A 6059  12.733   3.382   8.575  0.0892 -0.0258  0.0751
  379loPI   C6A 6060  13.022   3.237   8.572  0.1231 -0.1997 -0.1975
  379loPI   C1B 6061  13.199   3.433  10.277 -0.0564 -0.1188  0.2168
  379loPI   C2B 6062  13.080   3.460   9.852  0.0302 -0.1256  0.0792
  379loPI   C3B 6063  12.978   3.416   9.444  0.2769 -0.0356 -0.1043
  379loPI   C4B 6064  13.117   3.399   9.072  0.1072  0.0019 -0.0190
  380loPI    C1 6065  16.040  17.703  10.309 -0.1884  0.0354  0.1928
  380loPI    C2 6066  16.234  17.888  10.606 -0.0582  0.1496  0.0387
  380loPI    C3 6067  16.435  17.655  10.351 -0.1797  0.0017  0.0765
  380loPI   PO4 6068  15.836  17.609  10.325  0.2230 -0.2300  0.0106
  380loPI   GL1 6069  15.535  17.446  10.120 -0.1144  0.1750  0.1913
  380loPI   GL2 6070  15.697  17.154  10.086 -0.1759  0.2902  0.2328
  380loPI   C1A 6071  15.393  17.660   9.781  0.1405 -0.3344  0.2100
  380loPI   C2A 6072  15.242  17.571   9.333 -0.1078  0.4270  0.1811
  380loPI   C3A 6073  14.968  17.320   9.027  0.0162  0.0714  0.1376
  380loPI   C4A 6074  14.792  17.225   8.653  0.4310 -0.0255 -0.1173
  380loPI   C5A 6075  14.707  17.190   8.234 -0.0381  0.0998 -0.0648
  380loPI   C6A 6076  14.854  17.373   7.721  0.1124  0.0689  0.3668
  380loPI   C1B 6077  15.453  16.909   9.773  0.1442 -0.0671 -0.3747
  380loPI   C2B 6078  15.289  17.080   9.327 -0.0056 -0.0788 -0.0723
  380loPI   C3B 6079  15.290  17.044   8.820 -0.0686  0.1022  0.0608
  380loPI   C4B 6080  15.649  17.239   8.543  0.2001 -0.0740  0.0592
  381loPI    C1 6081   2.417   8.590  10.445  0.1513  0.0378  0.0012
  381loPI    C2 6082   2.503   8.924  10.648  0.1295  0.0830 -0.0636
  381loPI    C3 6083   2.464   8.577  10.842 -0.0510  0.1546  0.0307
  381loPI   PO4 6084   2.233   8.627  10.166 -0.0093  0.3783  0.0918
  381loPI   GL1 6085   2.283   8.625   9.770 -0.0939  0.1698  0.1285
  381loPI   GL2 6086   2.353   8.234   9.677  0.1150  0.3190 -0.3476
  381loPI   C1A 6087   2.343   8.597   9.346  0.1072 -0.0025  0.0527
  381loPI   C2A 6088   2.317   8.545   8.817 -0.0065  0.1457  0.3080
  381loPI   C3A 6089   2.346   8.539   8.323 -0.1459 -0.1220 -0.1782
  381loPI   C4A 6090   2.302   8.397   7.957 -0.1427  0.0765  0.0058
  381loPI   C5A 6091   2.274   8.254   7.578  0.0299  0.2837 -0.1304
  381loPI   C6A 6092   2.059   8.203   7.186 -0.1869  0.0782 -0.3307
  381loPI   C1B 6093   2.191   8.099   9.380 -0.1693  0.2781 -0.0674
  381loPI   C2B 6094   2.155   8.073   8.968 -0.3564  0.2143 -0.1994
  381loPI   C3B 6095   2.243   8.066   8.548 -0.0869  0.0606  0.1394
  381loPI   C4B 6096   2.421   7.937   8.149 -0.1163 -0.2294 -0.0735
  382loPI    C1 6097   8.669   5.680  11.165 -0.1469  0.0713  0.0270
  382loPI    C2 6098   8.902   5.997  11.095 -0.0442  0.0370  0.2090
  382loPI    C3 6099   8.980   5.756  11.405 -0.0433 -0.2404 -0.0032
  382loPI   PO4 6100   8.637   5.550  10.935  0.1002  0.3783 -0.6910
  382loPI   GL1 6101   8.584   5.284  10.527  0.2636 -0.0047 -0.2365
  382loPI   GL2 6102   8.880   5.333  10.436 -0.0718  0.0336  0.0756
  382loPI   C1A 6103   8.448   4.934  10.215 -0.1656 -0.2275  0.0440
  382loPI   C2A 6104   8.547   4.879   9.776 -0.0479 -0.0138  0.2956
  382loPI   C3A 6105   8.628   4.912   9.382  0.0277  0.1229  0.2563
  382loPI   C4A 6106   8.631   5.003   8.866  0.1143  0.0851  0.0245
  382loPI   C5A 6107   8.891   4.816   8.440  0.4459 -0.0528 -0.2045
  382loPI   C6A 6108   9.037   5.245   8.224 -0.0284 -0.2235  0.0801
  382loPI   C1B 6109   8.781   5.215  10.032 -0.0266 -0.0098  0.1747
  382loPI   C2B 6110   8.951   5.160   9.684 -0.0097 -0.0822 -0.2061
  382loPI   C3B 6111   8.959   5.285   9.175  0.1460  0.2336 -0.0581
  382loPI   C4B 6112   9.061   5.312   8.750  0.0837  0.0699 -0.0524
  383loPI    C1 6113   2.590   0.696  10.376 -0.0140  0.1008 -0.1614
  383loPI    C2 6114   2.415   0.828  10.711 -0.3384  0.0073 -0.2905
  383loPI    C3 6115   2.567   1.089  10.449  0.0412  0.0762 -0.0089
  383loPI   PO4 6116   2.494   0.588  10.270 -0.0293 -0.1214  0.0288
  383loPI   GL1 6117   2.632   0.219  10.214  0.1070 -0.0366  0.1513
  383loPI   GL2 6118   2.795   0.455   9.954  0.0785  0.0032 -0.3450
  383loPI   C1A 6119   2.385   0.198   9.760  0.1827  0.0539  0.1061
  383loPI   C2A 6120   2.384   0.165   9.329 -0.2982  0.0967  0.1089
  383loPI   C3A 6121   2.544   0.131   8.941  0.0014  0.0867 -0.0927
  383loPI   C4A 6122   2.704   0.250   8.545 -0.0661 -0.2750 -0.1025
  383loPI   C5A 6123   2.647   0.277   8.127  0.0821 -0.0788 -0.0362
  383loPI   C6A 6124   2.855   0.196   7.836 -0.1124  0.0334 -0.0451
  383loPI   C1B 6125   2.770   0.435   9.494  0.0041 -0.3163 -0.1979
  383loPI   C2B 6126   2.860   0.528   9.004 -0.0141  0.4881  0.0117
  383loPI   C3B 6127   3.106   0.477   8.684  0.0640  0.1997  0.2482
  383loPI   C4B 6128   2.995   0.641   8.337  0.4453  0.0195 -0.0640
  384loPI    C1 6129   1.836  11.192  10.408  0.1410 -0.0816 -0.0725
  384loPI    C2 6130   2.160  11.174  10.642  0.1468 -0.0354 -0.0770
  384loPI    C3 6131   1.829  11.355  10.773  0.0544 -0.2632  0.0081
  384loPI   PO4 6132   1.928  11.295  10.222 -0.0179 -0.2196  0.2409
  384loPI   GL1 6133   2.066  11.299   9.792 -0.1304 -0.0809  0.1182
  384loPI   GL2 6134   2.327  11.214   9.827  0.1959 -0.2579  0.0701
  384loPI   C1A 6135   2.104  11.090   9.389  0.0052  0.1825 -0.3064
  384loPI   C2A 6136   2.328  11.013   9.078 -0.1581 -0.1455 -0.1781
  384loPI   C3A 6137   2.475  11.026   8.702 -0.0204 -0.0714  0.1695
  384loPI   C4A 6138   2.444  10.876   8.311 -0.0169  0.1353  0.0595
  384loPI   C5A 6139   2.164  10.832   7.942  0.0390  0.1545  0.1809
  384loPI   C6A 6140   2.265  11.276   7.662  0.1987 -0.2221  0.2714
  384loPI   C1B 6141   2.584  11.242   9.488  0.4422 -0.1777  0.3026
  384loPI   C2B 6142   2.792  11.196   9.022  0.2360  0.2576  0.2799
  384loPI   C3B 6143   2.937  11.312   8.552 -0.0206  0.1929  0.2148
  384loPI   C4B 6144   3.141  11.396   8.203  0.1409 -0.0111  0.3446
  385loPI    C1 6145   7.235  17.032  10.999 -0.2357  0.0204  0.1229
  385loPI    C2 6146   7.579  17.224  11.072 -0.1723 -0.1133  0.1783
  385loPI    C3 6147   7.363  17.078  11.375 -0.1452 -0.2589  0.1281
  385loPI   PO4 6148   7.265  17.000  10.736  0.2292  0.2228 -0.2430
  385loPI   GL1 6149   7.519  17.215  10.346 -0.1085  0.1122 -0.1257
  385loPI   GL2 6150   7.308  17.107  10.283  0.1227 -0.5578 -0.2699
  385loPI   C1A 6151   7.788  17.018  10.027  0.0392 -0.3551 -0.1698
  385loPI   C2A 6152   7.890  17.013   9.643 -0.2029  0.1810 -0.2672
  385loPI   C3A 6153   7.915  17.096   9.204  0.0014 -0.0014  0.1315
  385loPI   C4A 6154   7.947  17.236   8.732  0.2022 -0.2395  0.0030
  385loPI   C5A 6155   8.018  17.031   8.380 -0.1024  0.0598  0.2743
  385loPI   C6A 6156   7.875  16.724   8.222 -0.0365  0.3525  0.2810
  385loPI   C1B 6157   7.284  17.222   9.880 -0.0966 -0.1228 -0.1128
  385loPI   C2B 6158   7.358  17.222   9.463  0.0011  0.0300  0.1265
  385loPI   C3B 6159   7.382  17.237   9.015 -0.1722 -0.0455 -0.0322
  385loPI   C4B 6160   7.262  17.533   8.590  0.1305 -0.1233  0.0523
  386loPI    C1 6161  10.972   2.995  11.273  0.0400  0.1642  0.0951
  386loPI    C2 6162  11.158   2.668  11.138 -0.1471  0.1312 -0.0880
  386loPI    C3 6163  11.219   2.792  11.513 -0.1322 -0.1564  0.0076
  386loPI   PO4 6164  10.964   3.134  11.038 -0.1751 -0.3817  0.0975
  386loPI   GL1 6165  10.821   3.386  10.589  0.1932  0.3293 -0.0855
  386loPI   GL2 6166  10.777   3.567  10.457 -0.1915 -0.2264 -0.1754
  386loPI   C1A 6167  10.866   3.143  10.178  0.0982  0.0463 -0.1562
  386loPI   C2A 6168  10.829   3.151   9.669  0.2846 -0.1493  0.1220
  386loPI   C3A 6169  10.695   3.239   9.248 -0.2986  0.0146  0.2322
  386loPI   C4A 6170  10.542   3.127   8.775 -0.0157  0.0122 -0.1294
  386loPI   C5A 6171  10.630   3.301   8.383  0.1443 -0.0016 -0.0955
  386loPI   C6A 6172  10.869   3.454   7.936 -0.1373 -0.1916 -0.2463
  386loPI   C1B 6173  10.706   3.577  10.024 -0.0322 -0.1229 -0.2660
  386loPI   C2B 6174  10.711   3.663   9.582  0.0558  0.1187 -0.1511
  386loPI   C3B 6175  10.666   3.726   9.088  0.0443  0.1340  0.1787
  386loPI   C4B 6176  10.659   3.782   8.657 -0.2568 -0.1653  0.3607
  387loPI    C1 6177   5.381  15.870  10.987  0.1589  0.0249 -0.0029
  387loPI    C2 6178   5.116  16.029  11.241  0.0008 -0.0561 -0.1156
  387loPI    C3 6179   5.482  15.931  11.369 -0.1607 -0.3341  0.1454
  387loPI   PO4 6180   5.315  15.722  10.844  0.0030 -0.0881 -0.3718
  387loPI   GL1 6181   5.186  15.809  10.482  0.1179  0.0960 -0.1219
  387loPI   GL2 6182   5.249  15.518  10.327  0.1563 -0.0381 -0.2170
  387loPI   C1A 6183   5.111  16.005  10.096 -0.0317  0.1625  0.3148
  387loPI   C2A 6184   5.167  15.990   9.712  0.1951  0.2869 -0.0888
  387loPI   C3A 6185   5.218  15.972   9.286  0.2901  0.1363 -0.0879
  387loPI   C4A 6186   5.311  16.022   8.799  0.0710 -0.4954  0.0537
  387loPI   C5A 6187   5.139  15.832   8.412 -0.1066 -0.0069  0.2904
  387loPI   C6A 6188   4.817  15.728   8.243  0.0792  0.0673 -0.2003
  387loPI   C1B 6189   5.328  15.487   9.911 -0.0760  0.0090 -0.0343
  387loPI   C2B 6190   5.231  15.478   9.407 -0.0974  0.2122  0.1022
  387loPI   C3B 6191   5.405  15.564   9.030 -0.2167 -0.2065  0.1385
  387loPI   C4B 6192   5.558  15.503   8.665 -0.1932  0.0969  0.1368
  388loPI    C1 6193   9.062  16.211  11.082 -0.0912 -0.2288 -0.0903
  388loPI    C2 6194   8.885  16.151  11.436  0.0116  0.0686  0.0150
  388loPI    C3 6195   9.259  16.024  11.375  0.0072  0.0506  0.0258
  388loPI   PO4 6196   9.016  16.461  11.065  0.0003  0.0876  0.1643
  388loPI   GL1 6197   9.000  16.803  10.771 -0.2010  0.2192  0.1460
  388loPI   GL2 6198   8.684  16.660  10.589  0.1342  0.1140 -0.1447
  388loPI   C1A 6199   9.250  16.639  10.492  0.3834 -0.0872 -0.2831
  388loPI   C2A 6200   9.344  16.636  10.068  0.0481 -0.1287 -0.0498
  388loPI   C3A 6201   9.388  16.583   9.694 -0.1760 -0.1430  0.2053
  388loPI   C4A 6202   9.341  16.564   9.308  0.0230 -0.2844 -0.0256
  388loPI   C5A 6203   9.425  16.505   8.843  0.1867 -0.1186  0.1044
  388loPI   C6A 6204   9.242  16.727   8.419 -0.3036  0.2215  0.1610
  388loPI   C1B 6205   8.787  16.670  10.181 -0.0120 -0.1304 -0.3198
  388loPI   C2B 6206   8.896  16.754   9.758  0.1577  0.0674 -0.0661
  388loPI   C3B 6207   8.890  16.748   9.428 -0.0355  0.0064  0.1852
  388loPI   C4B 6208   8.969  16.692   8.921 -0.2356 -0.2366 -0.5036
  389loPI    C1 6209  13.422   3.622  11.020  0.0928  0.1771 -0.0749
  389loPI    C2 6210  13.486   3.831  11.355 -0.3469  0.2738 -0.0447
  389loPI    C3 6211  13.250   3.508  11.363 -0.0613  0.0574 -0.1903
  389loPI   PO4 6212  13.302   3.797  10.882 -0.3462  0.0852 -0.1809
  389loPI   GL1 6213  13.155   3.904  10.430 -0.0854  0.2809  0.2419
  389loPI   GL2 6214  13.506   3.782  10.439 -0.1336  0.1907 -0.0467
  389loPI   C1A 6215  12.944   4.029  10.018 -0.0375 -0.1645 -0.2298
  389loPI   C2A 6216  12.998   3.914   9.673  0.0906 -0.4130  0.1810
  389loPI   C3A 6217  12.915   3.939   9.247 -0.3759  0.2888  0.0274
  389loPI   C4A 6218  12.818   3.909   8.870 -0.3092 -0.1847 -0.0850
  389loPI   C5A 6219  12.869   3.831   8.441 -0.1824  0.0484 -0.0808
  389loPI   C6A 6220  12.582   3.631   8.180  0.1775  0.0026 -0.0455
  389loPI   C1B 6221  13.410   3.797  10.003 -0.0207  0.2565  0.0079
  389loPI   C2B 6222  13.473   3.764   9.575 -0.0354 -0.2059 -0.0974
  389loPI   C3B 6223  13.469   3.802   9.105 -0.1625 -0.0188  0.2521
  389loPI   C4B 6224  13.390   3.715   8.657  0.1388 -0.1928 -0.0959
  390loPI    C1 6225  14.709   2.922  11.266 -0.2719  0.0264 -0.0736
  390loPI    C2 6226  14.639   2.533  11.325  0.0864 -0.0113  0.1393
  390loPI    C3 6227  14.536   2.799  11.605 -0.0633  0.0377  0.0391
  390loPI   PO4 6228  14.744   2.902  10.994  0.1675  0.0646  0.1566
  390loPI   GL1 6229  14.855   2.779  10.557  0.0608  0.0617  0.0263
  390loPI   GL2 6230  14.727   3.142  10.569  0.0237  0.0262 -0.1111
  390loPI   C1A 6231  14.644   2.830  10.205 -0.1390  0.3703 -0.3643
  390loPI   C2A 6232  14.559   2.914   9.824 -0.0874  0.0990 -0.3642
  390loPI   C3A 6233  14.601   2.888   9.526 -0.0316 -0.1269 -0.0699
  390loPI   C4A 6234  14.531   2.942   9.105  0.2012  0.2140  0.1647
  390loPI   C5A 6235  14.440   2.871   8.656  0.1520 -0.1674 -0.1151
  390loPI   C6A 6236  14.583   2.791   8.208 -0.1652  0.0666 -0.0904
  390loPI   C1B 6237  14.522   3.377  10.253  0.2419 -0.0563 -0.1851
  390loPI   C2B 6238  14.440   3.365   9.813  0.0856  0.1841  0.0807
  390loPI   C3B 6239  14.414   3.343   9.357  0.0783 -0.0711 -0.1494
  390loPI   C4B 6240  14.383   3.390   8.899 -0.1755  0.1797  0.1781
  391loPI    C1 6241   4.219  13.282  10.772  0.0774  0.1455  0.0566
  391loPI    C2 6242   4.131  13.619  10.574  0.1556  0.1588  0.0444
  391loPI    C3 6243   4.066  13.596  10.968  0.2667  0.2321  0.0675
  391loPI   PO4 6244   4.424  13.228  10.660  0.1527 -0.0547 -0.0387
  391loPI   GL1 6245   4.401  13.115  10.176 -0.1984  0.0389  0.0147
  391loPI   GL2 6246   4.682  13.049  10.210  0.2995  0.2398  0.2280
  391loPI   C1A 6247   4.443  12.943   9.709  0.0984 -0.2011 -0.1391
  391loPI   C2A 6248   4.433  12.945   9.265 -0.0732 -0.0110 -0.0663
  391loPI   C3A 6249   4.547  12.998   8.891  0.2396  0.3205  0.0330
  391loPI   C4A 6250   4.368  13.160   8.431  0.1070 -0.1192 -0.0744
  391loPI   C5A 6251   4.464  13.566   8.308  0.4244  0.1113  0.0568
  391loPI   C6A 6252   4.504  13.939   8.189  0.2632 -0.2001 -0.0087
  391loPI   C1B 6253   4.768  13.285   9.847  0.0748  0.0648  0.0475
  391loPI   C2B 6254   4.928  13.322   9.488  0.0970 -0.1091 -0.0977
  391loPI   C3B 6255   4.913  13.306   9.096  0.2731  0.0416  0.0521
  391loPI   C4B 6256   4.937  13.309   8.588  0.2388 -0.1233  0.1351
  392loPI    C1 6257  14.513   5.846  10.961  0.0220  0.2089 -0.1358
  392loPI    C2 6258  14.327   6.191  11.042 -0.3287 -0.0433  0.1680
  392loPI    C3 6259  14.569   6.026  11.314  0.1023  0.1235 -0.1048
  392loPI   PO4 6260  14.510   5.935  10.638  0.1498  0.1055 -0.0915
  392loPI   GL1 6261  14.708   5.683  10.418 -0.2872 -0.1208 -0.2473
  392loPI   GL2 6262  14.943   5.461  10.296  0.0899 -0.0467  0.1254
  392loPI   C1A 6263  14.494   5.776   9.989 -0.0627  0.0160 -0.2261
  392loPI   C2A 6264  14.466   5.807   9.526  0.0057 -0.1428 -0.2102
  392loPI   C3A 6265  14.378   5.769   9.173  0.0587  0.0542 -0.0843
  392loPI   C4A 6266  14.418   5.789   8.629  0.0603 -0.0188 -0.2263
  392loPI   C5A 6267  14.430   5.635   8.217  0.0094  0.3748 -0.0936
  392loPI   C6A 6268  14.472   5.421   7.701 -0.1453 -0.2235 -0.1562
  392loPI   C1B 6269  14.935   5.538   9.783  0.1257 -0.1179 -0.2778
  392loPI   C2B 6270  14.881   5.614   9.283 -0.2192  0.3393 -0.2439
  392loPI   C3B 6271  14.813   5.677   8.891  0.1448  0.0690 -0.0562
  392loPI   C4B 6272  14.850   5.621   8.451 -0.0960  0.0165  0.1118
  393loPI    C1 6273   0.397   5.552  10.349 -0.1861 -0.0459  0.3673
  393loPI    C2 6274   0.736   5.370  10.458 -0.1748 -0.2717 -0.0279
  393loPI    C3 6275   0.415   5.352  10.695  0.0770 -0.0756  0.3389
  393loPI   PO4 6276   0.370   5.738  10.114  0.0978 -0.0530  0.1453
  393loPI   GL1 6277   0.304   5.607   9.654  0.1947 -0.1453  0.2055
  393loPI   GL2 6278  -0.032   5.620   9.530 -0.0232 -0.0555  0.2080
  393loPI   C1A 6279   0.363   5.477   9.205 -0.1605  0.1001 -0.0891
  393loPI   C2A 6280   0.368   5.360   8.815  0.0309 -0.1972 -0.0581
  393loPI   C3A 6281   0.552   5.368   8.396 -0.0192  0.1591  0.0497
  393loPI   C4A 6282   0.810   5.544   8.124 -0.2280 -0.1928  0.0482
  393loPI   C5A 6283   1.068   5.741   7.948 -0.1121 -0.0875  0.3513
  393loPI   C6A 6284   1.224   6.099   7.829  0.0203  0.0834 -0.2528
  393loPI   C1B 6285  -0.145   5.488   9.216 -0.0649 -0.1547  0.0222
  393loPI   C2B 6286  -0.103   5.579   8.805 -0.0379 -0.1921  0.2511
  393loPI   C3B 6287  -0.012   5.521   8.385  0.0706 -0.1440 -0.0730
  393loPI   C4B 6288   0.207   5.500   8.025 -0.0972 -0.0356  0.0068
  394loPI    C1 6289  14.559  16.543  10.703 -0.1779 -0.0419 -0.0103
  394loPI    C2 6290  14.357  16.711  11.004 -0.2856 -0.0673 -0.0678
  394loPI    C3 6291  14.557  16.369  11.063  0.0547  0.1528  0.0878
  394loPI   PO4 6292  14.518  16.598  10.536 -0.1689  0.1839  0.0244
  394loPI   GL1 6293  14.364  16.576  10.230  0.1633  0.0695 -0.1326
  394loPI   GL2 6294  14.296  16.327  10.077  0.1114  0.0653  0.0285
  394loPI   C1A 6295  14.257  16.910  10.011  0.2946  0.0436 -0.0458
  394loPI   C2A 6296  14.104  16.934   9.591 -0.0774 -0.1021  0.2780
  394loPI   C3A 6297  14.015  16.934   9.172  0.0592 -0.0950 -0.2060
  394loPI   C4A 6298  13.928  17.078   8.887  0.1119  0.0028 -0.1311
  394loPI   C5A 6299  13.948  17.125   8.497  0.1828  0.1026  0.0168
  394loPI   C6A 6300  14.249  17.301   8.125 -0.0420 -0.3042  0.0382
  394loPI   C1B 6301  14.160  16.403   9.655  0.0261  0.3376 -0.0045
  394loPI   C2B 6302  14.062  16.444   9.262 -0.0965  0.0549  0.1276
  394loPI   C3B 6303  13.996  16.593   8.801  0.0238  0.0904  0.1199
  394loPI   C4B 6304  13.975  16.594   8.406 -0.2132  0.1668 -0.3132
  395loPI    C1 6305   2.082  10.381  10.198 -0.0122  0.0294 -0.0412
  395loPI    C2 6306   1.686  10.356  10.246 -0.0384  0.2644 -0.1223
  395loPI    C3 6307   1.920  10.050  10.355 -0.2445  0.1082 -0.1110
  395loPI   PO4 6308   2.113  10.412   9.981 -0.1755 -0.1387 -0.1077
  395loPI   GL1 6309   1.748  10.271   9.736 -0.0138  0.0108 -0.0810
  395loPI   GL2 6310   1.904  10.089   9.483 -0.3459 -0.1644 -0.1375
  395loPI   C1A 6311   1.625  10.458   9.255 -0.0182 -0.0144 -0.3174
  395loPI   C2A 6312   1.525  10.523   8.805  0.0240 -0.2441  0.1198
  395loPI   C3A 6313   1.225  10.659   8.468  0.0944  0.2277  0.1023
  395loPI   C4A 6314   1.147  10.913   8.124  0.2660 -0.0019 -0.3082
  395loPI   C5A 6315   1.317  10.865   7.674  0.1312 -0.0106 -0.1637
  395loPI   C6A 6316   1.475  10.427   7.503  0.2108  0.1119  0.2659
  395loPI   C1B 6317   1.886   9.984   9.118  0.2079  0.1974  0.0546
  395loPI   C2B 6318   1.971  10.001   8.658  0.0063 -0.0231  0.0929
  395loPI   C3B 6319   1.859  10.017   8.322  0.0525 -0.1891  0.0660
  395loPI   C4B 6320   2.031   9.924   7.873  0.1991 -0.1991 -0.3716
  396loPI    C1 6321  10.155   9.244  11.143 -0.0084 -0.1700  0.1623
  396loPI    C2 6322  10.264   9.090  11.496 -0.0019  0.0127  0.2408
  396loPI    C3 6323  10.109   9.458  11.477 -0.1254 -0.0468  0.0683
  396loPI   PO4 6324  10.335   9.094  11.016  0.0086 -0.0233 -0.1091
  396loPI   GL1 6325  10.510   9.216  10.565  0.4357 -0.0269 -0.0390
  396loPI   GL2 6326  10.437   8.832  10.570  0.2949  0.2365 -0.1937
  396loPI   C1A 6327  10.294   9.152  10.198  0.1290 -0.1739 -0.0728
  396loPI   C2A 6328  10.393   9.103   9.815 -0.0047  0.1644 -0.0761
  396loPI   C3A 6329  10.479   9.104   9.348 -0.3099  0.0281  0.0072
  396loPI   C4A 6330  10.470   9.088   8.935 -0.0989 -0.0309 -0.1270
  396loPI   C5A 6331  10.601   9.262   8.554 -0.0842 -0.1744  0.1772
  396loPI   C6A 6332  10.671   9.347   8.172  0.0306 -0.2832 -0.1970
  396loPI   C1B 6333  10.495   8.666  10.208  0.0721 -0.0705 -0.1163
  396loPI   C2B 6334  10.622   8.573   9.810  0.0985  0.3986  0.0262
  396loPI   C3B 6335  10.575   8.554   9.362  0.1375  0.0377  0.0605
  396loPI   C4B 6336  10.718   8.572   8.954  0.0133 -0.3677 -0.2498
  397loPI    C1 6337   7.030  15.215  11.213  0.0427 -0.0358 -0.0080
  397loPI    C2 6338   7.040  15.601  11.317 -0.0472 -0.0683  0.1234
  397loPI    C3 6339   6.809  15.345  11.520 -0.2712 -0.1220 -0.1937
  397loPI   PO4 6340   7.105  15.302  10.852  0.2929  0.0855  0.1938
  397loPI   GL1 6341   7.299  15.377  10.509  0.1397 -0.2453  0.2357
  397loPI   GL2 6342   7.451  15.647  10.565 -0.3593  0.1464  0.3265
  397loPI   C1A 6343   7.270  15.231  10.017 -0.0098  0.0943 -0.0548
  397loPI   C2A 6344   7.280  15.245   9.560  0.1501  0.1473  0.1728
  397loPI   C3A 6345   7.330  15.428   9.166  0.0644  0.3010 -0.1068
  397loPI   C4A 6346   7.433  15.448   8.787  0.0372 -0.0866 -0.0507
  397loPI   C5A 6347   7.691  15.228   8.499  0.1220  0.1705 -0.0510
  397loPI   C6A 6348   7.785  15.394   8.111  0.0102  0.0536 -0.0880
  397loPI   C1B 6349   7.476  15.690  10.130  0.0462  0.0445  0.0503
  397loPI   C2B 6350   7.599  15.605   9.739 -0.0706 -0.1536 -0.3172
  397loPI   C3B 6351   7.697  15.774   9.287 -0.0294  0.4014  0.1397
  397loPI   C4B 6352   7.811  15.782   8.826  0.2221 -0.1582 -0.0944
  398loPI    C1 6353  13.279  11.718  10.931  0.2654 -0.0628  0.0507
  398loPI    C2 6354  13.408  11.560  11.275  0.3973  0.0297  0.0445
  398loPI    C3 6355  13.498  11.939  11.182  0.2189  0.0588 -0.0144
  398loPI   PO4 6356  13.367  11.391  10.762  0.0282  0.0487 -0.1860
  398loPI   GL1 6357  13.646  11.399  10.396  0.0834  0.3605 -0.0866
  398loPI   GL2 6358  13.769  11.079  10.573 -0.0445 -0.1443  0.2489
  398loPI   C1A 6359  13.424  11.429  10.055 -0.0959  0.0320 -0.0702
  398loPI   C2A 6360  13.295  11.382   9.640 -0.0372 -0.1694  0.1518
  398loPI   C3A 6361  13.267  11.437   9.314 -0.1445  0.0850  0.1223
  398loPI   C4A 6362  13.211  11.481   8.854 -0.0606  0.2664 -0.1683
  398loPI   C5A 6363  12.957  11.556   8.430  0.0999 -0.1914 -0.1546
  398loPI   C6A 6364  12.581  11.554   8.310 -0.0160  0.0916  0.0891
  398loPI   C1B 6365  13.492  10.950  10.277 -0.0651  0.0290  0.1265
  398loPI   C2B 6366  13.450  10.932   9.792  0.1582  0.0155  0.4793
  398loPI   C3B 6367  13.357  10.928   9.298  0.1220  0.0056 -0.1138
  398loPI   C4B 6368  13.366  10.923   8.914 -0.2050  0.0577  0.2499
  399loPI    C1 6369   4.300  12.256  10.452  0.1811  0.0894 -0.0722
  399loPI    C2 6370   4.586  12.018  10.598 -0.0658 -0.0775  0.1469
  399loPI    C3 6371   4.502  12.364  10.780  0.1724  0.0975 -0.0695
  399loPI   PO4 6372   4.272  12.103  10.224 -0.0094 -0.1181 -0.2373
  399loPI   GL1 6373   4.621  12.038  10.050 -0.0610 -0.4330  0.0748
  399loPI   GL2 6374   4.943  11.888  10.217 -0.0795 -0.2549 -0.2648
  399loPI   C1A 6375   4.586  11.950   9.645 -0.1147 -0.3534 -0.2544
  399loPI   C2A 6376   4.678  11.991   9.257 -0.0150 -0.0882 -0.2876
  399loPI   C3A 6377   4.738  12.023   8.800 -0.1040 -0.1177 -0.2719
  399loPI   C4A 6378   4.771  12.029   8.352  0.1582 -0.0816 -0.0335
  399loPI   C5A 6379   4.366  11.866   8.062 -0.3013  0.0543 -0.3314
  399loPI   C6A 6380   4.056  11.612   7.982 -0.1243 -0.0089  0.0035
  399loPI   C1B 6381   5.010  11.832   9.816 -0.3229 -0.0592  0.0599
  399loPI   C2B 6382   5.211  11.808   9.432  0.0520  0.1963 -0.0184
  399loPI   C3B 6383   5.218  11.812   8.947 -0.0448  0.1323 -0.1493
  399loPI   C4B 6384   5.209  11.831   8.548  0.0548 -0.1942  0.4264
  400loPI    C1 6385   7.915  13.347  11.175  0.1787 -0.1490  0.0575
  400loPI    C2 6386   7.775  13.488  11.522  0.1693  0.1967 -0.0827
  400loPI    C3 6387   7.932  13.120  11.504  0.1921  0.1842  0.2912
  400loPI   PO4 6388   7.923  13.602  11.084 -0.0544 -0.1987 -0.0196
  400loPI   GL1 6389   8.214  13.539  10.762 -0.0147 -0.0466 -0.1251
  400loPI   GL2 6390   8.280  13.267  10.837 -0.1972 -0.1923 -0.0475
  400loPI   C1A 6391   8.502  13.512  10.407  0.0007 -0.3115 -0.4761
  400loPI   C2A 6392   8.711  13.510  10.005  0.2705 -0.0449  0.3239
  400loPI   C3A 6393   8.645  13.531   9.559 -0.1160 -0.3054  0.0309
  400loPI   C4A 6394   8.630  13.475   9.229  0.3446 -0.3493 -0.3706
  400loPI   C5A 6395   8.460  13.525   8.824  0.0803 -0.1275 -0.1035
  400loPI   C6A 6396   8.094  13.537   8.716 -0.2583  0.0072 -0.1013
  400loPI   C1B 6397   8.182  13.158  10.428 -0.2668 -0.0392 -0.2469
  400loPI   C2B 6398   8.294  13.174  10.032  0.0775 -0.0936 -0.1881
  400loPI   C3B 6399   8.227  13.199   9.590  0.0713 -0.0229 -0.3600
  400loPI   C4B 6400   8.155  13.204   9.145  0.1769  0.0259 -0.2291
  401loPI    C1 6401   0.805  12.228  10.325  0.0150 -0.0335 -0.0836
  401loPI    C2 6402   0.832  12.469  10.642  0.1495 -0.2189  0.0481
  401loPI    C3 6403   0.761  12.079  10.694 -0.0801 -0.2074 -0.1636
  401loPI   PO4 6404   1.011  12.269  10.209 -0.0007  0.3102 -0.0199
  401loPI   GL1 6405   1.115  12.193   9.742  0.0481 -0.3926  0.1209
  401loPI   GL2 6406   0.936  12.187   9.540 -0.1246  0.2323  0.1209
  401loPI   C1A 6407   1.218  12.473   9.298  0.1352 -0.0393 -0.2218
  401loPI   C2A 6408   1.191  12.483   8.933  0.1048 -0.2602 -0.0122
  401loPI   C3A 6409   1.168  12.565   8.546 -0.2250  0.1996  0.0619
  401loPI   C4A 6410   1.074  12.751   8.234 -0.0946 -0.3323  0.1333
  401loPI   C5A 6411   1.287  12.981   7.941  0.0989  0.0512 -0.0277
  401loPI   C6A 6412   1.356  13.355   7.757 -0.1197  0.4423  0.1934
  401loPI   C1B 6413   1.100  12.043   9.087 -0.1114 -0.0812 -0.3691
  401loPI   C2B 6414   1.149  12.028   8.606  0.0355  0.2093  0.1192
  401loPI   C3B 6415   1.265  12.084   8.250 -0.0427 -0.0480  0.0111
  401loPI   C4B 6416   1.381  12.430   7.941  0.3594  0.2011  0.0178
  402loPI    C1 6417  12.836  15.151  11.417 -0.0420 -0.1296 -0.0333
  402loPI    C2 6418  12.805  15.531  11.539  0.0183 -0.1127 -0.0697
  402loPI    C3 6419  13.157  15.389  11.413 -0.0355 -0.1404 -0.1908
  402loPI   PO4 6420  12.683  15.089  11.209 -0.4572 -0.0853 -0.0254
  402loPI   GL1 6421  12.728  14.892  10.813  0.1282 -0.0302 -0.1429
  402loPI   GL2 6422  12.756  15.112  10.669 -0.1190 -0.2190  0.0033
  402loPI   C1A 6423  12.577  14.670  10.420  0.0726  0.2922  0.2232
  402loPI   C2A 6424  12.616  14.709   9.993 -0.1505  0.1114  0.4139
  402loPI   C3A 6425  12.559  14.660   9.545 -0.0836 -0.0754 -0.1407
  402loPI   C4A 6426  12.684  14.675   9.198 -0.2934 -0.1060 -0.0630
  402loPI   C5A 6427  12.458  14.575   8.785 -0.0702 -0.1224  0.1250
  402loPI   C6A 6428  12.128  14.374   8.552 -0.2761 -0.1996  0.0280
  402loPI   C1B 6429  13.011  14.930  10.248 -0.0194 -0.2033  0.0213
  402loPI   C2B 6430  12.966  14.971   9.767  0.2498  0.0037  0.1413
  402loPI   C3B 6431  13.068  14.956   9.321  0.0561 -0.3895  0.0235
  402loPI   C4B 6432  12.906  14.994   8.870  0.0415  0.3458  0.0421
  403loPI    C1 6433  16.447   6.156  10.744  0.2718 -0.3485 -0.2563
  403loPI    C2 6434  16.461   5.906  11.055  0.0953 -0.0587 -0.0104
  403loPI    C3 6435  16.697   6.229  11.047  0.1302 -0.0876 -0.1996
  403loPI   PO4 6436  16.399   6.005  10.531  0.1340 -0.1814 -0.2167
  403loPI   GL1 6437  16.334   6.189  10.151  0.0295 -0.0792 -0.0999
  403loPI   GL2 6438  16.242   6.567  10.032 -0.3520 -0.1220 -0.1943
  403loPI   C1A 6439  16.307   6.064   9.779  0.0089 -0.0629  0.2152
  403loPI   C2A 6440  16.088   6.153   9.363  0.1436  0.1043  0.0691
  403loPI   C3A 6441  16.109   6.226   8.821 -0.3419  0.4274  0.0767
  403loPI   C4A 6442  15.994   6.306   8.398  0.0788  0.0625 -0.0794
  403loPI   C5A 6443  15.884   6.468   7.957 -0.0056  0.1505  0.2292
  403loPI   C6A 6444  15.854   6.517   7.562 -0.0847 -0.1112 -0.0278
  403loPI   C1B 6445  16.192   6.645   9.592  0.0856  0.1891 -0.0288
  403loPI   C2B 6446  16.079   6.652   9.144 -0.0315  0.2195  0.1189
  403loPI   C3B 6447  16.106   6.759   8.708 -0.2596 -0.1958  0.1950
  403loPI   C4B 6448  16.022   6.897   8.345 -0.0269  0.0849  0.1699
  404loPI    C1 6449   2.715   5.586  10.600  0.0340  0.0937  0.0590
  404loPI    C2 6450   2.596   5.818  10.903 -0.1102  0.1533 -0.0419
  404loPI    C3 6451   2.386   5.492  10.806  0.0828 -0.0132  0.0892
  404loPI   PO4 6452   2.730   5.613  10.345 -0.2600 -0.1508 -0.0691
  404loPI   GL1 6453   2.530   5.863  10.026 -0.0824 -0.2170 -0.2747
  404loPI   GL2 6454   2.547   6.013   9.895  0.0368  0.2766 -0.0723
  404loPI   C1A 6455   2.659   5.582   9.717 -0.5387 -0.1611 -0.0978
  404loPI   C2A 6456   2.809   5.588   9.317  0.1382 -0.0655  0.0122
  404loPI   C3A 6457   2.968   5.650   8.938 -0.2416 -0.2475 -0.0591
  404loPI   C4A 6458   2.659   5.526   8.555  0.0599 -0.1520 -0.1600
  404loPI   C5A 6459   2.858   5.454   8.250 -0.1756 -0.2496  0.2235
  404loPI   C6A 6460   2.889   5.347   7.791 -0.1038  0.2129 -0.2633
  404loPI   C1B 6461   2.715   6.064   9.486 -0.0870  0.3577  0.0486
  404loPI   C2B 6462   2.792   6.151   9.028 -0.2629 -0.0834 -0.0102
  404loPI   C3B 6463   2.781   6.109   8.618  0.0568  0.2545  0.0989
  404loPI   C4B 6464   2.669   6.167   8.271 -0.1405 -0.1118  0.0450
  405loPI    C1 6465   4.477   7.749  10.791 -0.0826 -0.1624  0.1530
  405loPI    C2 6466   4.190   7.750  10.512  0.0167  0.2022  0.0467
  405loPI    C3 6467   4.179   8.015  10.811  0.1100  0.0537  0.1838
  405loPI   PO4 6468   4.720   7.666  10.609  0.1182 -0.1120 -0.0173
  405loPI   GL1 6469   4.673   7.514  10.235 -0.0004  0.1625 -0.1165
  405loPI   GL2 6470   4.957   7.428  10.292 -0.1670 -0.1572 -0.1362
  405loPI   C1A 6471   4.542   7.509   9.750  0.4516 -0.0331 -0.4019
  405loPI   C2A 6472   4.622   7.470   9.314  0.0502  0.0749 -0.2242
  405loPI   C3A 6473   4.808   7.498   8.862 -0.1053  0.0571 -0.1250
  405loPI   C4A 6474   4.915   7.660   8.440 -0.5131  0.0391  0.1698
  405loPI   C5A 6475   4.707   7.685   8.042 -0.2183 -0.0380 -0.1637
  405loPI   C6A 6476   4.405   8.096   8.011  0.1722  0.2367  0.0910
  405loPI   C1B 6477   4.985   7.229   9.923  0.0852  0.0819  0.0086
  405loPI   C2B 6478   5.089   7.285   9.435  0.0664 -0.2627 -0.0467
  405loPI   C3B 6479   5.322   7.428   8.990 -0.2746  0.0292 -0.0528
  405loPI   C4B 6480   5.656   7.503   8.702  0.3750 -0.1114 -0.1683
  406POPI    C1 6481   6.183   4.751  11.078 -0.1489  0.0346 -0.0353
  406POPI    C2 6482   6.144   4.952  11.422  0.2127  0.0095  0.0244
  406POPI    C3 6483   6.210   4.557  11.428 -0.0453 -0.0371 -0.0824
  406POPI   PO4 6484   5.969   4.827  10.944  0.0116 -0.1365  0.0490
  406POPI   GL1 6485   6.076   5.027  10.501  0.4229  0.0182 -0.2350
  406POPI   GL2 6486   6.165   4.689  10.415 -0.4715 -0.1209  0.4676
  406POPI   C1A 6487   5.973   5.206  10.076 -0.1121 -0.1856 -0.0594
  406POPI   D2A 6488   6.176   5.275   9.661  0.0412 -0.1237 -0.4026
  406POPI   C3A 6489   6.181   5.176   9.250  0.2155  0.1318 -0.0020
  406POPI   C4A 6490   6.291   5.141   8.832 -0.0308 -0.0809  0.0941
  406POPI   C1B 6491   6.131   4.676   9.986  0.3049  0.1714  0.1276
  406POPI   C2B 6492   6.269   4.781   9.599  0.3832 -0.0537 -0.0884
  406POPI   C3B 6493   6.352   4.721   9.159  0.1866 -0.1728 -0.0123
  406POPI   C4B 6494   6.041   4.486   8.973  0.0786  0.0528 -0.1702
  407POPI    C1 6495   1.319  10.986  10.165  0.2816  0.0816 -0.1725
  407POPI    C2 6496   1.305  10.652  10.384  0.0970  0.0199 -0.2773
  407POPI    C3 6497   1.388  11.001  10.559 -0.3653  0.0214 -0.0471
  407POPI   PO4 6498   1.184  10.980   9.880 -0.0655  0.0665 -0.1061
  407POPI   GL1 6499   1.339  11.140   9.451 -0.1939 -0.1905  0.2463
  407POPI   GL2 6500   1.598  10.955   9.453 -0.0031 -0.2144 -0.1249
  407POPI   C1A 6501   1.232  11.118   9.047  0.0270  0.3330  0.2770
  407POPI   D2A 6502   1.210  11.056   8.759 -0.2700  0.0975  0.1635
  407POPI   C3A 6503   1.527  11.061   8.479  0.1447  0.2888 -0.0581
  407POPI   C4A 6504   1.632  10.927   8.056 -0.1259  0.0478  0.4181
  407POPI   C1B 6505   1.846  10.845   8.998  0.3719 -0.0381  0.1069
  407POPI   C2B 6506   1.970  10.872   8.611 -0.2354  0.0378 -0.1482
  407POPI   C3B 6507   1.783  10.487   8.419  0.0518  0.0429 -0.0210
  407POPI   C4B 6508   1.770  10.395   7.933 -0.1408 -0.2063 -0.1746
  408POPI    C1 6509   3.698   2.296  10.401 -0.1061  0.0451  0.1929
  408POPI    C2 6510   3.381   2.181  10.616 -0.3571 -0.0750 -0.2306
  408POPI    C3 6511   3.596   1.909  10.415 -0.0260  0.0154 -0.0062
  408POPI   PO4 6512   3.692   2.572  10.480  0.0514 -0.1553  0.0577
  408POPI   GL1 6513   3.569   2.763  10.044 -0.0156 -0.0272  0.0023
  408POPI   GL2 6514   3.638   3.088   9.940 -0.0630  0.1111 -0.1470
  408POPI   C1A 6515   3.566   2.354   9.917 -0.1794  0.3258  0.1601
  408POPI   D2A 6516   3.504   2.193   9.531  0.0383  0.0446  0.2516
  408POPI   C3A 6517   3.577   2.305   9.124  0.1526 -0.1471 -0.1954
  408POPI   C4A 6518   3.658   2.099   8.669 -0.3001  0.0468 -0.0927
  408POPI   C1B 6519   3.813   3.033   9.504 -0.0700 -0.0547  0.0576
  408POPI   C2B 6520   3.848   3.046   9.026 -0.4145  0.2065 -0.0295
  408POPI   C3B 6521   3.994   2.938   8.658  0.2277  0.4941  0.1785
  408POPI   C4B 6522   4.256   2.837   8.307  0.0419  0.0894 -0.1566
  409POPI    C1 6523   0.399   2.081  10.292  0.0814 -0.1239  0.0242
  409POPI    C2 6524   0.273   2.288  10.610  0.1274  0.3231 -0.2402
  409POPI    C3 6525   0.492   1.958  10.661 -0.0987  0.2322  0.1937
  409POPI   PO4 6526   0.467   2.318  10.165  0.2166 -0.0570 -0.0648
  409POPI   GL1 6527   0.308   2.335   9.745 -0.1767 -0.1655 -0.1799
  409POPI   GL2 6528   0.026   2.340   9.662  0.0937 -0.0833  0.0564
  409POPI   C1A 6529   0.393   2.391   9.303  0.0792 -0.1403 -0.3631
  409POPI   D2A 6530   0.265   2.518   8.909 -0.1085  0.0493 -0.0318
  409POPI   C3A 6531   0.217   2.273   8.543  0.1879  0.0753  0.1791
  409POPI   C4A 6532   0.188   1.953   8.098 -0.3178 -0.1705 -0.1248
  409POPI   C1B 6533  -0.075   2.304   9.240 -0.1265  0.0460 -0.3332
  409POPI   C2B 6534  -0.214   2.262   8.788  0.0566 -0.2975 -0.0214
  409POPI   C3B 6535  -0.203   2.127   8.388  0.0390  0.3713 -0.0784
  409POPI   C4B 6536  -0.208   2.157   7.931  0.3921 -0.0683  0.1785
  410POPI    C1 6537  17.073  13.629  10.256 -0.0383 -0.0810  0.1111
  410POPI    C2 6538  16.744  13.528  10.052  0.1142 -0.1141 -0.1220
  410POPI    C3 6539  16.824  13.352  10.403 -0.1796 -0.0155 -0.0023
  410POPI   PO4 6540  17.218  13.692  10.013  0.0314 -0.0816  0.0039
  410POPI   GL1 6541  17.552  13.515   9.635 -0.0593 -0.3415  0.0990
  410POPI   GL2 6542  17.399  13.391   9.611 -0.0347 -0.0582 -0.1142
  410POPI   C1A 6543  17.486  13.750   9.254 -0.1714 -0.4242 -0.1072
  410POPI   D2A 6544  17.595  13.775   8.760  0.0897 -0.3846 -0.1093
  410POPI   C3A 6545  17.542  13.759   8.318 -0.2036 -0.0437  0.1390
  410POPI   C4A 6546  17.488  13.543   7.982 -0.0823 -0.3302  0.1382
  410POPI   C1B 6547  17.295  13.300   9.247  0.1296 -0.1845  0.1536
  410POPI   C2B 6548  17.338  13.229   8.745  0.2609 -0.1581 -0.0169
  410POPI   C3B 6549  17.252  13.090   8.246 -0.2302  0.0168  0.2573
  410POPI   C4B 6550  17.078  13.053   7.906 -0.0525 -0.3724 -0.1278
  411POPI    C1 6551  11.484  11.211  11.190  0.1787 -0.0675 -0.0875
  411POPI    C2 6552  11.665  11.126  11.536  0.1662 -0.1252 -0.0951
  411POPI    C3 6553  11.370  11.396  11.525  0.1691 -0.1206 -0.0613
  411POPI   PO4 6554  11.595  10.958  11.043 -0.0136  0.1668  0.2042
  411POPI   GL1 6555  11.669  10.703  10.714 -0.0146 -0.0499  0.2360
  411POPI   GL2 6556  11.382  10.820  10.613 -0.1394  0.1222 -0.0923
  411POPI   C1A 6557  11.756  10.652  10.272  0.1938  0.1152 -0.1252
  411POPI   D2A 6558  11.655  10.534   9.736 -0.0998  0.0768 -0.1598
  411POPI   C3A 6559  11.540  10.626   9.349 -0.2494 -0.0650  0.3723
  411POPI   C4A 6560  11.477  10.612   8.988 -0.1019  0.0754 -0.1656
  411POPI   C1B 6561  11.264  10.667  10.194  0.0221  0.0498  0.2698
  411POPI   C2B 6562  11.107  10.737   9.888  0.0126 -0.0243 -0.1530
  411POPI   C3B 6563  11.038  10.726   9.451 -0.0589 -0.2024  0.1867
  411POPI   C4B 6564  11.003  10.764   9.024  0.0096  0.0968  0.2229
  412POPI    C1 6565  13.111   5.112  10.957 -0.0046  0.0278 -0.0936
  412POPI    C2 6566  12.913   4.970  11.274  0.1580  0.2586  0.1152
  412POPI    C3 6567  12.926   5.364  11.207 -0.0710  0.1991 -0.3122
  412POPI   PO4 6568  13.103   4.930  10.788  0.4262 -0.0760 -0.0006
  412POPI   GL1 6569  12.923   4.708  10.495 -0.0489 -0.1146 -0.4739
  412POPI   GL2 6570  12.752   4.973  10.311  0.0849 -0.1998  0.0957
  412POPI   C1A 6571  12.794   4.547  10.007 -0.2063 -0.0838  0.1209
  412POPI   D2A 6572  12.931   4.399   9.539  0.0109 -0.2782 -0.0899
  412POPI   C3A 6573  12.763   4.405   9.140 -0.0356 -0.1533  0.1330
  412POPI   C4A 6574  12.703   4.515   8.724 -0.2304 -0.2940  0.0020
  412POPI   C1B 6575  12.755   5.037   9.889 -0.0212 -0.2186  0.2138
  412POPI   C2B 6576  12.693   4.876   9.498  0.0624 -0.0715 -0.0461
  412POPI   C3B 6577  12.593   4.890   9.052  0.1759  0.1960 -0.2165
  412POPI   C4B 6578  12.627   5.049   8.619  0.0162  0.0907  0.3279
  413POPI    C1 6579  16.142   9.803  10.291  0.2758 -0.0572 -0.2001
  413POPI    C2 6580  16.319   9.503  10.488  0.0110 -0.0639  0.0346
  413POPI    C3 6581  16.227   9.842  10.680  0.0558  0.0619 -0.1621
  413POPI   PO4 6582  16.358   9.863  10.112  0.2856 -0.0506  0.1006
  413POPI   GL1 6583  16.392  10.054   9.741 -0.2484 -0.0062  0.1217
  413POPI   GL2 6584  16.612   9.821   9.536 -0.1628 -0.0646  0.0077
  413POPI   C1A 6585  16.137   9.971   9.283  0.1707 -0.3684 -0.0366
  413POPI   D2A 6586  15.862  10.096   8.914  0.1079  0.1076  0.1879
  413POPI   C3A 6587  15.723  10.123   8.470  0.0129 -0.5224  0.1223
  413POPI   C4A 6588  15.927  10.138   8.118  0.1202  0.0244 -0.0913
  413POPI   C1B 6589  16.558   9.860   9.074 -0.4475 -0.0456  0.4411
  413POPI   C2B 6590  16.468   9.897   8.671  0.1100 -0.2883  0.2621
  413POPI   C3B 6591  16.376  10.029   8.313 -0.1244  0.1148  0.2320
  413POPI   C4B 6592  16.410  10.123   7.884  0.0526  0.3296  0.0003
  414POPI    C1 6593  12.372   0.381  11.026  0.0027 -0.0257  0.1057
  414POPI    C2 6594  12.508   0.127  11.303 -0.2301 -0.2242  0.0411
  414POPI    C3 6595  12.204   0.372  11.389 -0.0586 -0.0215  0.0775
  414POPI   PO4 6596  12.554   0.379  10.800  0.1898 -0.0494 -0.1436
  414POPI   GL1 6597  12.523   0.327  10.413 -0.2917  0.1650  0.1808
  414POPI   GL2 6598  12.230   0.469  10.309 -0.1569 -0.2066  0.1012
  414POPI   C1A 6599  12.503   0.187  10.007 -0.0275 -0.0147 -0.2701
  414POPI   D2A 6600  12.387   0.109   9.682  0.0020  0.0342 -0.0330
  414POPI   C3A 6601  12.331   0.212   9.267  0.0458  0.0102 -0.1069
  414POPI   C4A 6602  12.353   0.348   8.896  0.1130  0.1017  0.0784
  414POPI   C1B 6603  11.982   0.468   9.925  0.0698  0.0765  0.1997
  414POPI   C2B 6604  11.926   0.382   9.558 -0.0921  0.2825  0.0159
  414POPI   C3B 6605  11.802   0.486   9.152  0.2410  0.2352 -0.1722
  414POPI   C4B 6606  11.932   0.467   8.751  0.1403 -0.0290  0.0401
  415POPI    C1 6607   1.602   6.462  10.424  0.0343  0.0722 -0.0043
  415POPI    C2 6608   1.342   6.547  10.716  0.1368  0.1686  0.0598
  415POPI    C3 6609   1.513   6.186  10.699  0.0082  0.1085  0.0237
  415POPI   PO4 6610   1.471   6.558  10.147  0.2960 -0.1098  0.0105
  415POPI   GL1 6611   1.366   6.737   9.736 -0.2424  0.2644  0.3505
  415POPI   GL2 6612   1.591   6.900   9.780 -0.0111  0.2393 -0.0907
  415POPI   C1A 6613   1.201   6.639   9.411 -0.1217 -0.0357  0.3118
  415POPI   D2A 6614   1.117   6.617   9.003  0.0170 -0.0192 -0.0406
  415POPI   C3A 6615   1.174   6.806   8.547 -0.0926 -0.0349  0.2381
  415POPI   C4A 6616   1.245   6.720   8.131 -0.0529 -0.0120 -0.0861
  415POPI   C1B 6617   1.640   6.996   9.343  0.1328  0.1097  0.0161
  415POPI   C2B 6618   1.563   7.017   8.966 -0.1615  0.1088 -0.1611
  415POPI   C3B 6619   1.565   7.147   8.553 -0.1416 -0.3411  0.0991
  415POPI   C4B 6620   1.577   7.119   8.140 -0.2055 -0.0129  0.1148
  416POPI    C1 6621   6.524  11.545  10.802  0.0598  0.1094  0.2403
  416POPI    C2 6622   6.642  11.224  11.010 -0.0541 -0.0432  0.0727
  416POPI    C3 6623   6.252  11.289  10.946 -0.0322  0.1364  0.1167
  416POPI   PO4 6624   6.637  11.577  10.550  0.0018 -0.4182 -0.2468
  416POPI   GL1 6625   6.676  11.577  10.039 -0.0847  0.0976  0.1543
  416POPI   GL2 6626   6.869  11.266  10.104  0.0837 -0.2323 -0.4167
  416POPI   C1A 6627   6.670  11.318   9.640  0.3161  0.0875  0.0560
  416POPI   D2A 6628   6.736  11.254   9.148  0.2085  0.2102  0.0769
  416POPI   C3A 6629   6.616  11.290   8.737 -0.1391  0.1002 -0.0940
  416POPI   C4A 6630   6.644  11.261   8.366  0.2576  0.3021 -0.0826
  416POPI   C1B 6631   7.086  11.117   9.791 -0.1217 -0.0036 -0.2663
  416POPI   C2B 6632   7.164  11.237   9.388 -0.1711 -0.1734 -0.2260
  416POPI   C3B 6633   7.178  11.048   8.966  0.1991  0.0842 -0.1175
  416POPI   C4B 6634   7.099  11.070   8.519 -0.3068 -0.2585  0.1872
  417POPI    C1 6635   3.237   4.475  10.446 -0.0461  0.1272 -0.1179
  417POPI    C2 6636   2.970   4.291  10.681  0.0557 -0.1412 -0.2086
  417POPI    C3 6637   3.342   4.357  10.813  0.0318 -0.0378 -0.1922
  417POPI   PO4 6638   3.234   4.365  10.272 -0.0824 -0.2214  0.0291
  417POPI   GL1 6639   3.332   4.406   9.787 -0.0082  0.2400  0.2438
  417POPI   GL2 6640   3.025   4.439   9.742  0.2534 -0.0048  0.2109
  417POPI   C1A 6641   3.420   4.315   9.351  0.1138  0.1085  0.2229
  417POPI   D2A 6642   3.522   4.228   8.871 -0.2312  0.0026  0.2166
  417POPI   C3A 6643   3.193   4.200   8.689  0.0284 -0.0141  0.2262
  417POPI   C4A 6644   3.130   4.146   8.264 -0.2025  0.2581 -0.2263
  417POPI   C1B 6645   2.956   4.630   9.352 -0.1474  0.0605  0.1033
  417POPI   C2B 6646   2.968   4.643   8.857 -0.1154 -0.0117 -0.2574
  417POPI   C3B 6647   2.981   4.565   8.424  0.2844 -0.1698  0.0749
  417POPI   C4B 6648   2.956   4.530   8.013 -0.0616  0.0069  0.0183
  418POPI    C1 6649  13.289  12.315  10.844  0.0651  0.0417  0.0834
  418POPI    C2 6650  13.327  12.674  10.672  0.0420  0.0950  0.1886
  418POPI    C3 6651  13.281  12.646  11.069  0.0922 -0.0268  0.1862
  418POPI   PO4 6652  13.533  12.121  10.683 -0.0496  0.0098 -0.1113
  418POPI   GL1 6653  13.481  11.874  10.486  0.2232 -0.0556  0.3217
  418POPI   GL2 6654  13.228  11.763  10.447  0.0874 -0.4559  0.1127
  418POPI   C1A 6655  13.351  11.920   9.991  0.0920 -0.0945  0.2083
  418POPI   D2A 6656  13.286  11.890   9.592  0.0058  0.0414  0.3708
  418POPI   C3A 6657  13.163  11.910   9.259  0.0711 -0.1425 -0.1452
  418POPI   C4A 6658  13.115  11.971   8.830  0.0184  0.0804 -0.0347
  418POPI   C1B 6659  12.979  11.615  10.100 -0.0463 -0.0708  0.0788
  418POPI   C2B 6660  12.823  11.588   9.699  0.2221  0.1708  0.1058
  418POPI   C3B 6661  12.767  11.586   9.275  0.3069  0.0383 -0.0782
  418POPI   C4B 6662  12.730  11.705   8.861 -0.3875  0.0417  0.2444
  419POPI    C1 6663   6.145   0.209  11.032 -0.1940  0.2780  0.0268
  419POPI    C2 6664   6.274   0.058  11.380 -0.0175  0.1930 -0.0747
  419POPI    C3 6665   6.148   0.438  11.361 -0.2321  0.1341  0.1284
  419POPI   PO4 6666   6.384   0.092  10.831 -0.0429  0.1876  0.1447
  419POPI   GL1 6667   6.391  -0.118  10.524  0.2901 -0.0317 -0.2557
  419POPI   GL2 6668   6.752  -0.052  10.468  0.0172  0.2133 -0.1106
  419POPI   C1A 6669   6.300  -0.220  10.170 -0.0083  0.2173 -0.1327
  419POPI   D2A 6670   6.222  -0.309   9.876 -0.1257 -0.0693 -0.2687
  419POPI   C3A 6671   6.302  -0.219   9.441 -0.0852 -0.1371 -0.0806
  419POPI   C4A 6672   6.444  -0.123   8.985  0.0333  0.2220 -0.3727
  419POPI   C1B 6673   6.653   0.154  10.121 -0.0236 -0.0874  0.0359
  419POPI   C2B 6674   6.640   0.124   9.672 -0.1651  0.0283 -0.1042
  419POPI   C3B 6675   6.757   0.168   9.286  0.0244 -0.1507  0.0909
  419POPI   C4B 6676   6.873   0.121   8.896 -0.2596 -0.0242 -0.1275
  420POPI    C1 6677  16.751  14.410  10.574  0.0254 -0.0525  0.1395
  420POPI    C2 6678  16.407  14.403  10.780 -0.0057  0.0902  0.0935
  420POPI    C3 6679  16.746  14.514  10.961 -0.0217  0.1535  0.0847
  420POPI   PO4 6680  16.683  14.499  10.343 -0.0543 -0.1185 -0.0925
  420POPI   GL1 6681  16.741  14.579   9.959  0.1995  0.1550  0.1619
  420POPI   GL2 6682  16.470  14.590   9.800 -0.0490 -0.4398 -0.0773
  420POPI   C1A 6683  16.906  14.632   9.612 -0.2540 -0.1317  0.0969
  420POPI   D2A 6684  16.959  14.555   9.180 -0.0028  0.2267  0.0378
  420POPI   C3A 6685  16.925  14.579   8.719 -0.1491  0.0648 -0.0458
  420POPI   C4A 6686  17.040  14.563   8.304  0.1155  0.1738 -0.0780
  420POPI   C1B 6687  16.347  14.679   9.416 -0.0590 -0.2014  0.0524
  420POPI   C2B 6688  16.388  14.596   8.940  0.3727 -0.1035 -0.0418
  420POPI   C3B 6689  16.464  14.510   8.485 -0.1373  0.2248 -0.0085
  420POPI   C4B 6690  16.578  14.374   8.101 -0.2677 -0.2601 -0.2709
  421POPI    C1 6691   0.849   5.837  10.247 -0.1518  0.0001  0.1523
  421POPI    C2 6692   1.068   5.533  10.108 -0.0571  0.1831 -0.1043
  421POPI    C3 6693   1.151   5.691  10.466 -0.0029  0.0143 -0.0414
  421POPI   PO4 6694   0.846   6.006  10.013  0.2252  0.2423  0.0619
  421POPI   GL1 6695   1.068   6.150   9.767 -0.1632  0.0265 -0.2245
  421POPI   GL2 6696   0.780   6.349   9.529  0.1686 -0.2327  0.4029
  421POPI   C1A 6697   1.186   6.133   9.350 -0.0141  0.0729 -0.0434
  421POPI   D2A 6698   1.246   6.114   8.882  0.1144 -0.2682 -0.3140
  421POPI   C3A 6699   0.939   6.293   8.669  0.0305 -0.2830 -0.1244
  421POPI   C4A 6700   0.908   6.423   8.252 -0.0873 -0.0188  0.1545
  421POPI   C1B 6701   0.683   6.423   9.087 -0.0947 -0.2897 -0.1920
  421POPI   C2B 6702   0.463   6.466   8.556 -0.3204  0.1687 -0.1166
  421POPI   C3B 6703   0.476   6.582   8.087  0.0121  0.1383 -0.1354
  421POPI   C4B 6704   0.423   6.799   7.729  0.1310  0.1662 -0.1962
  422POPI    C1 6705   0.341   6.782  10.042  0.1465 -0.0887 -0.0625
  422POPI    C2 6706   0.677   6.987  10.114  0.0699 -0.0221  0.1099
  422POPI    C3 6707   0.542   6.724  10.383  0.0263 -0.1071  0.0057
  422POPI   PO4 6708   0.374   6.608   9.758  0.1115  0.1803 -0.2473
  422POPI   GL1 6709   0.245   6.488   9.382  0.1297  0.0311  0.0166
  422POPI   GL2 6710  -0.107   6.600   9.344  0.2317  0.2278 -0.0300
  422POPI   C1A 6711   0.129   6.349   8.927  0.0110 -0.0686 -0.3195
  422POPI   D2A 6712  -0.011   6.461   8.564 -0.2207 -0.2798 -0.1302
  422POPI   C3A 6713   0.054   6.348   8.136  0.0554 -0.2294  0.2849
  422POPI   C4A 6714  -0.119   5.927   7.857 -0.2812  0.0140 -0.0661
  422POPI   C1B 6715  -0.330   6.566   8.959 -0.2402  0.1503  0.1116
  422POPI   C2B 6716  -0.413   6.623   8.518  0.2701 -0.4230 -0.2404
  422POPI   C3B 6717  -0.252   6.771   8.146  0.1348  0.0635 -0.0989
  422POPI   C4B 6718  -0.133   6.932   7.703  0.0379 -0.1595 -0.1820
  423POPI    C1 6719   3.047  16.967  11.083  0.0296 -0.0819  0.1182
  423POPI    C2 6720   2.785  16.767  11.309 -0.0134  0.0242  0.1625
  423POPI    C3 6721   3.131  16.596  11.206 -0.1258 -0.1397  0.0523
  423POPI   PO4 6722   3.020  17.037  10.757 -0.0700  0.1028 -0.0166
  423POPI   GL1 6723   2.937  16.905  10.345  0.2255 -0.0912  0.1334
  423POPI   GL2 6724   2.892  17.148  10.216 -0.2021 -0.0301  0.0491
  423POPI   C1A 6725   2.531  16.844  10.050 -0.3027 -0.3997 -0.0518
  423POPI   D2A 6726   2.324  16.865   9.742  0.4611  0.0318 -0.0640
  423POPI   C3A 6727   2.368  16.766   9.266  0.3314  0.0580  0.2506
  423POPI   C4A 6728   2.327  16.585   8.829  0.0734 -0.0061  0.1184
  423POPI   C1B 6729   2.966  17.240   9.813  0.0799  0.2523  0.0661
  423POPI   C2B 6730   3.070  17.305   9.355  0.2080  0.0600  0.0267
  423POPI   C3B 6731   3.177  17.247   8.918  0.1928 -0.0072  0.0765
  423POPI   C4B 6732   3.135  17.302   8.463 -0.2445  0.2423  0.0953
  424POPI    C1 6733  12.919   5.872  11.072 -0.5968 -0.3957 -0.1061
  424POPI    C2 6734  12.623   6.138  11.119 -0.1291  0.1053  0.1134
  424POPI    C3 6735  12.757   5.930  11.434 -0.0419  0.1077  0.0782
  424POPI   PO4 6736  12.930   5.844  10.792  0.0687  0.0525 -0.0913
  424POPI   GL1 6737  12.638   5.905  10.494  0.0095  0.2734  0.1891
  424POPI   GL2 6738  12.684   6.244  10.634 -0.1234  0.0671  0.0194
  424POPI   C1A 6739  12.470   5.905  10.105  0.1510  0.0539  0.0880
  424POPI   D2A 6740  12.549   5.963   9.616 -0.3312 -0.0189  0.2543
  424POPI   C3A 6741  12.393   5.954   9.204  0.1529  0.2261  0.1243
  424POPI   C4A 6742  12.403   5.943   8.960  0.0068  0.2969 -0.0334
  424POPI   C1B 6743  12.838   6.235  10.164 -0.1476  0.1192  0.1165
  424POPI   C2B 6744  12.910   6.258   9.697 -0.1117 -0.1344  0.0255
  424POPI   C3B 6745  12.835   6.283   9.273 -0.0975 -0.1643  0.1618
  424POPI   C4B 6746  12.800   6.262   8.856 -0.0611  0.4326 -0.3640
  425POPI    C1 6747  10.443   6.897  10.961  0.0885 -0.1604  0.0314
  425POPI    C2 6748  10.375   6.740  11.323 -0.1898  0.0065  0.0544
  425POPI    C3 6749  10.640   7.037  11.280 -0.1106 -0.0556  0.1106
  425POPI   PO4 6750  10.537   6.844  10.803  0.0820  0.0326 -0.0227
  425POPI   GL1 6751  10.425   6.512  10.506 -0.3470  0.0170  0.1435
  425POPI   GL2 6752  10.136   6.488  10.698  0.1895 -0.0174 -0.0811
  425POPI   C1A 6753  10.487   6.550  10.107  0.2557 -0.2835  0.2005
  425POPI   D2A 6754  10.528   6.526   9.655 -0.1430  0.0595 -0.0011
  425POPI   C3A 6755  10.517   6.639   9.314 -0.0451 -0.2468 -0.0524
  425POPI   C4A 6756  10.439   6.591   8.837  0.3522 -0.0074  0.3393
  425POPI   C1B 6757   9.997   6.244  10.396  0.0298  0.0781  0.2068
  425POPI   C2B 6758  10.054   6.227   9.991 -0.0159  0.0362  0.1064
  425POPI   C3B 6759  10.136   6.249   9.512  0.0093  0.0492 -0.2523
  425POPI   C4B 6760  10.141   6.315   9.090  0.1614  0.3540 -0.2325
  426POPI    C1 6761   9.767   8.242  11.137 -0.0341  0.0350  0.0850
  426POPI    C2 6762   9.605   8.607  11.155 -0.0025  0.0473  0.1216
  426POPI    C3 6763   9.927   8.521  11.375 -0.1980 -0.0977  0.3567
  426POPI   PO4 6764   9.798   8.152  10.815  0.0207 -0.1716 -0.3724
  426POPI   GL1 6765   9.566   8.015  10.498 -0.0530 -0.4614 -0.2076
  426POPI   GL2 6766   9.863   7.722  10.382  0.2358 -0.0287  0.1260
  426POPI   C1A 6767   9.561   7.947  10.053 -0.0050  0.1087  0.3246
  426POPI   D2A 6768   9.793   7.667   9.821 -0.3598  0.1204 -0.1750
  426POPI   C3A 6769   9.835   7.738   9.474 -0.2642  0.0044  0.4123
  426POPI   C4A 6770   9.854   7.921   9.024  0.3185 -0.1632 -0.2620
  426POPI   C1B 6771  10.255   7.659  10.112 -0.0848 -0.2405  0.0008
  426POPI   C2B 6772  10.288   7.611   9.657 -0.0970 -0.1146 -0.0170
  426POPI   C3B 6773  10.337   7.746   9.276 -0.1531  0.2457 -0.0207
  426POPI   C4B 6774  10.266   7.738   8.894 -0.1437 -0.0325 -0.1068
  427POPI    C1 6775   8.158  10.698  11.143  0.1216  0.1308  0.0070
  427POPI    C2 6776   8.085  10.980  11.416 -0.0318  0.0596  0.0405
  427POPI    C3 6777   7.808  10.702  11.337  0.1221 -0.0874  0.0151
  427POPI   PO4 6778   8.257  10.876  10.898  0.0178  0.3597 -0.1273
  427POPI   GL1 6779   8.146  11.193  10.555 -0.1589 -0.1654  0.1885
  427POPI   GL2 6780   7.823  11.112  10.485 -0.1777 -0.0209  0.0007
  427POPI   C1A 6781   8.486  11.189  10.154 -0.0480  0.2065 -0.3759
  427POPI   D2A 6782   8.579  11.234   9.710 -0.0972 -0.0975 -0.1318
  427POPI   C3A 6783   8.605  11.115   9.257 -0.1787  0.2302 -0.0219
  427POPI   C4A 6784   8.615  11.057   8.773 -0.0077 -0.2454  0.1709
  427POPI   C1B 6785   7.956  11.341  10.134 -0.1799  0.2131 -0.0640
  427POPI   C2B 6786   8.064  11.329   9.695  0.0922  0.1434 -0.0280
  427POPI   C3B 6787   8.022  11.336   9.306 -0.4090  0.0208  0.0601
  427POPI   C4B 6788   8.211  11.275   8.928 -0.2023 -0.0153  0.2939
  428POPI    C1 6789   5.867  10.982  10.557  0.0389  0.1884  0.0823
  428POPI    C2 6790   5.902  10.864  10.937 -0.0380 -0.2143 -0.0307
  428POPI    C3 6791   5.540  10.929  10.781  0.0040  0.2051  0.0353
  428POPI   PO4 6792   5.888  11.293  10.512 -0.0681 -0.0175 -0.2777
  428POPI   GL1 6793   5.833  11.420  10.114  0.0042 -0.1603 -0.1174
  428POPI   GL2 6794   6.173  11.512   9.956 -0.5226 -0.0570  0.1505
  428POPI   C1A 6795   5.720  11.641   9.734  0.3627 -0.0896 -0.0180
  428POPI   D2A 6796   5.734  11.618   9.244 -0.3121  0.4640 -0.0503
  428POPI   C3A 6797   5.673  11.579   8.870 -0.0273 -0.1044  0.2608
  428POPI   C4A 6798   5.683  11.723   8.388  0.1624  0.0968 -0.0290
  428POPI   C1B 6799   6.135  11.404   9.529 -0.0455  0.2700  0.0351
  428POPI   C2B 6800   6.225  11.449   9.138 -0.1746 -0.1525  0.0451
  428POPI   C3B 6801   6.137  11.423   8.787  0.0217  0.0650  0.0850
  428POPI   C4B 6802   6.152  11.524   8.313  0.0102  0.0212 -0.0721
  429POPI    C1 6803  13.628   9.138  11.106 -0.1504 -0.1221  0.0155
  429POPI    C2 6804  13.988   9.147  11.280 -0.1801  0.0020  0.0715
  429POPI    C3 6805  13.662   9.075  11.500 -0.2075  0.0633  0.0510
  429POPI   PO4 6806  13.637   9.330  10.992  0.1364 -0.1915 -0.0037
  429POPI   GL1 6807  13.666   9.369  10.622  0.0404 -0.0665  0.1451
  429POPI   GL2 6808  13.525   9.124  10.515 -0.0450 -0.1493  0.2653
  429POPI   C1A 6809  13.748   9.448  10.131  0.4808  0.4363 -0.2363
  429POPI   D2A 6810  13.730   9.453   9.746  0.0330 -0.0060  0.1212
  429POPI   C3A 6811  13.647   9.380   9.245  0.0136 -0.0603  0.1034
  429POPI   C4A 6812  13.656   9.428   8.825 -0.1245  0.2755  0.0541
  429POPI   C1B 6813  13.337   9.187  10.116 -0.1505  0.0525  0.0163
  429POPI   C2B 6814  13.299   9.135   9.660 -0.0688  0.0578 -0.0479
  429POPI   C3B 6815  13.229   9.106   9.262  0.1400  0.1594 -0.0618
  429POPI   C4B 6816  13.233   9.120   8.819  0.0941 -0.1288 -0.0365
  430POPI    C1 6817   5.109   3.548  10.747 -0.2742  0.0982 -0.1937
  430POPI    C2 6818   4.818   3.685  10.985 -0.2299 -0.0859 -0.0306
  430POPI    C3 6819   4.960   3.915  10.690 -0.3164  0.1284  0.0922
  430POPI   PO4 6820   4.967   3.268  10.710  0.0966 -0.2079  0.0673
  430POPI   GL1 6821   4.884   3.063  10.358 -0.2897  0.1079 -0.0216
  430POPI   GL2 6822   5.131   3.016  10.141 -0.2110  0.2135 -0.0558
  430POPI   C1A 6823   4.639   3.081   9.989 -0.0329 -0.2639 -0.0761
  430POPI   D2A 6824   4.216   3.078   9.914  0.2753  0.0915 -0.0068
  430POPI   C3A 6825   4.247   3.056   9.443 -0.1336 -0.2555  0.0049
  430POPI   C4A 6826   4.322   2.861   9.085 -0.2625 -0.1535 -0.2513
  430POPI   C1B 6827   5.075   3.039   9.768  0.2128 -0.1510 -0.1516
  430POPI   C2B 6828   4.827   2.958   9.510 -0.1634  0.3300  0.0239
  430POPI   C3B 6829   4.787   2.809   9.160 -0.1215 -0.1967  0.0488
  430POPI   C4B 6830   4.645   2.837   8.638 -0.0254  0.0201 -0.1049
  431POPI    C1 6831  15.025  17.332  10.623  0.0881 -0.1980  0.1560
  431POPI    C2 6832  15.325  17.465  10.852  0.0356 -0.1646  0.2055
  431POPI    C3 6833  15.147  17.117  10.938 -0.1322 -0.0455  0.3486
  431POPI   PO4 6834  15.113  17.343  10.412  0.2820 -0.1457  0.1471
  431POPI   GL1 6835  15.020  17.690  10.095  0.1468  0.1475 -0.2148
  431POPI   GL2 6836  14.760  17.513  10.090  0.3301  0.0269 -0.2371
  431POPI   C1A 6837  14.902  17.652   9.666  0.0313 -0.1140  0.3775
  431POPI   D2A 6838  14.709  17.754   9.277 -0.1080  0.1704  0.0976
  431POPI   C3A 6839  14.749  17.716   8.809  0.3992 -0.0109  0.0901
  431POPI   C4A 6840  14.588  17.723   8.387  0.0210 -0.1785 -0.0846
  431POPI   C1B 6841  14.435  17.709   9.787  0.1360 -0.1587  0.0412
  431POPI   C2B 6842  14.211  17.815   9.413  0.1191  0.0798  0.0268
  431POPI   C3B 6843  14.280  17.834   9.013  0.1417 -0.2486 -0.0784
  431POPI   C4B 6844  14.167  17.918   8.584  0.1386  0.3715  0.3971
  432POPI    C1 6845  17.342   5.022  10.670  0.1137 -0.1141  0.0478
  432POPI    C2 6846  17.306   5.232  11.009 -0.2296 -0.0249 -0.0402
  432POPI    C3 6847  17.320   5.422  10.657 -0.0092 -0.1244 -0.0867
  432POPI   PO4 6848  17.208   4.883  10.552 -0.2242 -0.1495 -0.0181
  432POPI   GL1 6849  17.155   4.647  10.241 -0.1866 -0.1982 -0.0380
  432POPI   GL2 6850  17.240   4.444   9.988 -0.0048  0.1044  0.1603
  432POPI   C1A 6851  16.972   4.855   9.889  0.2177  0.1927  0.1304
  432POPI   D2A 6852  16.908   4.868   9.415  0.1010 -0.1374 -0.3279
  432POPI   C3A 6853  16.822   5.025   8.993 -0.0505  0.0058 -0.2620
  432POPI   C4A 6854  16.817   4.908   8.512 -0.0941  0.0077 -0.1281
  432POPI   C1B 6855  17.012   4.387   9.683  0.0329  0.1962 -0.2334
  432POPI   C2B 6856  16.949   4.376   9.298  0.1442 -0.0233  0.1392
  432POPI   C3B 6857  16.914   4.482   8.837 -0.0914 -0.0245 -0.1052
  432POPI   C4B 6858  16.965   4.435   8.418 -0.1481  0.0758 -0.2727
  433POPI    C1 6859   7.365   2.939  10.890 -0.0555  0.0932  0.1542
  433POPI    C2 6860   7.188   2.798  11.219 -0.1934  0.2262  0.1379
  433POPI    C3 6861   6.970   2.877  10.893 -0.0477  0.0310 -0.0086
  433POPI   PO4 6862   7.675   2.741  10.822  0.1744  0.1927  0.1549
  433POPI   GL1 6863   7.879   2.698  10.470 -0.2664 -0.1888  0.2880
  433POPI   GL2 6864   7.672   2.900  10.313 -0.0516  0.1192 -0.2375
  433POPI   C1A 6865   8.038   2.731  10.049 -0.0392 -0.1011 -0.2222
  433POPI   D2A 6866   8.063   2.686   9.533 -0.0728 -0.4776 -0.0266
  433POPI   C3A 6867   8.017   2.633   9.107  0.1782 -0.0427  0.1540
  433POPI   C4A 6868   7.792   2.443   8.738 -0.0142  0.0236  0.0496
  433POPI   C1B 6869   7.439   2.775   9.917 -0.0961 -0.4025 -0.0546
  433POPI   C2B 6870   7.563   2.756   9.439  0.0844  0.2509 -0.1880
  433POPI   C3B 6871   7.551   2.675   9.108  0.1297 -0.0876  0.2214
  433POPI   C4B 6872   7.291   2.596   8.658 -0.5173 -0.0451 -0.0542
  434POPI    C1 6873   5.444   2.642  10.869 -0.0585 -0.1168  0.0948
  434POPI    C2 6874   5.124   2.716  10.642  0.0776 -0.0369 -0.0736
  434POPI    C3 6875   5.189   2.932  10.972 -0.0415 -0.0538 -0.0383
  434POPI   PO4 6876   5.539   2.407  10.659  0.0488 -0.2858 -0.0837
  434POPI   GL1 6877   5.768   2.369  10.307  0.2281  0.3475  0.0423
  434POPI   GL2 6878   5.537   2.716  10.254  0.1009 -0.1029 -0.3814
  434POPI   C1A 6879   5.879   2.309   9.955 -0.0406  0.0852  0.0822
  434POPI   D2A 6880   5.926   2.385   9.601 -0.4875 -0.0481 -0.0881
  434POPI   C3A 6881   6.027   2.246   9.181 -0.0961  0.1048 -0.1387
  434POPI   C4A 6882   6.321   2.149   8.941  0.2640 -0.4340 -0.1449
  434POPI   C1B 6883   5.513   2.816   9.824  0.0524  0.1133  0.0545
  434POPI   C2B 6884   5.779   2.821   9.426 -0.3473 -0.0393  0.1686
  434POPI   C3B 6885   6.079   2.728   9.138  0.1466 -0.1099  0.0730
  434POPI   C4B 6886   6.231   2.631   8.736 -0.1268 -0.0740  0.0596
  435POPI    C1 6887  10.055  12.066  11.356  0.0970 -0.2139  0.0022
  435POPI    C2 6888  10.389  12.075  11.576  0.0202 -0.0620  0.1152
  435POPI    C3 6889  10.043  11.960  11.742 -0.0760  0.2364  0.1279
  435POPI   PO4 6890  10.028  12.238  11.201 -0.0156 -0.1661 -0.2724
  435POPI   GL1 6891   9.918  12.271  10.754  0.1980  0.2119 -0.2265
  435POPI   GL2 6892   9.695  12.539  10.567 -0.1473 -0.0369  0.1293
  435POPI   C1A 6893   9.866  12.113  10.304 -0.1438 -0.2211  0.2480
  435POPI   D2A 6894   9.688  12.084   9.984 -0.1751 -0.1222  0.0151
  435POPI   C3A 6895   9.744  12.283   9.576  0.0838 -0.0349 -0.0450
  435POPI   C4A 6896   9.857  12.127   9.184 -0.2616  0.1100  0.0332
  435POPI   C1B 6897   9.687  12.692  10.167  0.2211  0.1603  0.0582
  435POPI   C2B 6898   9.640  12.741   9.723 -0.4055 -0.0546 -0.0394
  435POPI   C3B 6899   9.641  12.730   9.294  0.1450 -0.0421 -0.0379
  435POPI   C4B 6900   9.781  12.602   8.869 -0.0052 -0.1449 -0.1017
  436POPI    C1 6901   8.656  11.629  11.094 -0.0045 -0.0396  0.0457
  436POPI    C2 6902   8.414  11.353  11.253 -0.0229 -0.0293  0.0358
  436POPI    C3 6903   8.395  11.732  11.379 -0.0179 -0.0267  0.0289
  436POPI   PO4 6904   8.633  11.714  10.813  0.0133  0.0467 -0.2215
  436POPI   GL1 6905   8.561  11.607  10.480  0.0094 -0.1809  0.0198
  436POPI   GL2 6906   8.920  11.554  10.434  0.0726  0.2341  0.2408
  436POPI   C1A 6907   8.470  11.703  10.017 -0.0176  0.0563 -0.3056
  436POPI   D2A 6908   8.371  11.696   9.570 -0.0031 -0.3600 -0.2153
  436POPI   C3A 6909   8.517  11.640   9.156 -0.2802  0.1779 -0.0448
  436POPI   C4A 6910   8.670  11.549   8.757  0.1677  0.1090  0.1053
  436POPI   C1B 6911   8.932  11.488  10.049 -0.0334  0.0316 -0.0481
  436POPI   C2B 6912   8.985  11.547   9.587  0.2854 -0.0571  0.1256
  436POPI   C3B 6913   9.011  11.455   9.174 -0.0791 -0.0276 -0.2453
  436POPI   C4B 6914   9.144  11.315   8.709  0.2664  0.1329 -0.3064
  437POPI    C1 6915  16.623  11.238  10.577 -0.0267 -0.0995  0.1652
  437POPI    C2 6916  16.751  10.963  10.316 -0.1194  0.1849 -0.1886
  437POPI    C3 6917  17.007  11.127  10.575 -0.0498 -0.1807 -0.0195
  437POPI   PO4 6918  16.421  11.376  10.336  0.2445  0.1875 -0.0689
  437POPI   GL1 6919  16.458  11.198   9.963  0.0781  0.0304 -0.2233
  437POPI   GL2 6920  16.657  11.432   9.761  0.0355  0.0052 -0.1316
  437POPI   C1A 6921  16.273  11.080   9.508  0.1491 -0.2533 -0.0189
  437POPI   D2A 6922  16.197  10.841   9.143 -0.1808 -0.1901 -0.0556
  437POPI   C3A 6923  16.336  10.884   8.669  0.0991  0.1579  0.0433
  437POPI   C4A 6924  16.055  11.029   8.458  0.0559 -0.5716  0.0411
  437POPI   C1B 6925  16.635  11.319   9.344 -0.2222  0.3127 -0.2695
  437POPI   C2B 6926  16.555  11.260   8.981 -0.1200  0.0169 -0.1046
  437POPI   C3B 6927  16.462  11.297   8.544 -0.1531  0.0778  0.1182
  437POPI   C4B 6928  16.332  11.532   8.190  0.0296 -0.0274  0.1555
  438POPI    C1 6929  12.867  16.728  11.230 -0.3243 -0.0168 -0.3122
  438POPI    C2 6930  12.758  16.443  11.489 -0.0857  0.0274 -0.1607
  438POPI    C3 6931  13.103  16.640  11.541 -0.2445  0.3392 -0.2674
  438POPI   PO4 6932  12.813  16.608  10.999  0.2535 -0.0703 -0.1936
  438POPI   GL1 6933  12.733  16.515  10.512 -0.1191 -0.3096  0.3100
  438POPI   GL2 6934  12.746  16.235  10.424 -0.0677 -0.0463  0.0348
  438POPI   C1A 6935  12.752  16.580  10.063 -0.0677  0.1648  0.0069
  438POPI   D2A 6936  12.843  16.400   9.691 -0.1066 -0.0287 -0.2633
  438POPI   C3A 6937  12.675  16.488   9.344 -0.3831  0.2010  0.0823
  438POPI   C4A 6938  12.706  16.483   8.920 -0.0138  0.1042 -0.2965
  438POPI   C1B 6939  12.877  15.985  10.051 -0.0328  0.2839  0.1187
  438POPI   C2B 6940  12.862  15.885   9.688  0.1976  0.0153  0.3529
  438POPI   C3B 6941  12.731  15.908   9.247  0.0003 -0.1627 -0.2354
  438POPI   C4B 6942  12.569  15.991   8.791 -0.1413 -0.0143  0.1259
  439POPI    C1 6943   4.641   3.596  10.475  0.2143 -0.1696  0.0492
  439POPI    C2 6944   4.376   3.339  10.321  0.1751 -0.0489 -0.0873
  439POPI    C3 6945   4.464   3.326  10.711 -0.0011 -0.1161 -0.0490
  439POPI   PO4 6946   4.550   3.858  10.374  0.0690 -0.1246 -0.1959
  439POPI   GL1 6947   4.556   4.126  10.050 -0.1108 -0.2278 -0.0248
  439POPI   GL2 6948   4.162   4.079   9.977 -0.2658 -0.0414  0.3253
  439POPI   C1A 6949   4.638   4.071   9.556 -0.4809 -0.1430  0.1327
  439POPI   D2A 6950   4.755   4.036   9.119  0.2591  0.1200  0.3043
  439POPI   C3A 6951   4.831   3.774   8.730 -0.0063  0.1866 -0.0465
  439POPI   C4A 6952   5.122   3.618   8.504 -0.0278 -0.1624 -0.2006
  439POPI   C1B 6953   4.123   3.952   9.535 -0.3388  0.1658 -0.0653
  439POPI   C2B 6954   4.220   3.876   9.116 -0.0594  0.0487  0.1279
  439POPI   C3B 6955   4.345   3.789   8.666  0.2625  0.2104  0.0885
  439POPI   C4B 6956   4.235   4.111   8.350  0.0592  0.1471 -0.0336
  440POPI    C1 6957  14.444   4.808  10.926  0.0588 -0.2404  0.1030
  440POPI    C2 6958  14.175   4.968  10.676  0.0973 -0.1936  0.0912
  440POPI    C3 6959  14.104   4.962  11.070  0.1118 -0.1148  0.0951
  440POPI   PO4 6960  14.660   4.909  10.826 -0.1788 -0.1060 -0.1710
  440POPI   GL1 6961  14.806   4.902  10.451 -0.3055 -0.0811  0.0438
  440POPI   GL2 6962  14.568   5.163  10.308  0.2700  0.0758 -0.0958
  440POPI   C1A 6963  14.713   4.778  10.004 -0.1555  0.1709  0.2334
  440POPI   D2A 6964  14.569   4.829   9.620  0.0350  0.0071 -0.0093
  440POPI   C3A 6965  14.655   4.734   9.263  0.0891  0.0995 -0.0651
  440POPI   C4A 6966  14.567   4.788   8.829  0.0194  0.0849  0.0984
  440POPI   C1B 6967  14.515   5.242   9.944 -0.1672  0.0578  0.0275
  440POPI   C2B 6968  14.513   5.319   9.517 -0.3956  0.0658  0.0089
  440POPI   C3B 6969  14.513   5.304   9.109  0.0367  0.1418 -0.1067
  440POPI   C4B 6970  14.442   5.256   8.656 -0.2678 -0.3010  0.0124
  441POPI    C1 6971   9.181   3.077  10.872 -0.1301 -0.1997  0.1583
  441POPI    C2 6972   9.568   2.980  10.847 -0.0758 -0.0018  0.2109
  441POPI    C3 6973   9.459   3.364  10.856 -0.2669 -0.0571  0.3055
  441POPI   PO4 6974   9.076   2.849  10.867 -0.5068 -0.0614 -0.1049
  441POPI   GL1 6975   9.185   2.756  10.432 -0.1500 -0.0925 -0.0239
  441POPI   GL2 6976   9.227   3.145  10.380 -0.0465 -0.0094 -0.2385
  441POPI   C1A 6977   9.015   2.641  10.081 -0.2779 -0.3296 -0.0855
  441POPI   D2A 6978   8.941   2.808   9.676  0.2319  0.0165 -0.0263
  441POPI   C3A 6979   8.991   2.856   9.223  0.3436  0.1079 -0.1654
  441POPI   C4A 6980   8.890   2.770   8.811 -0.1062 -0.0619  0.0142
  441POPI   C1B 6981   9.219   3.082   9.942  0.0701 -0.1358 -0.0415
  441POPI   C2B 6982   9.225   3.170   9.550 -0.2445  0.0210  0.0234
  441POPI   C3B 6983   9.355   3.204   9.187  0.1106  0.0044  0.0673
  441POPI   C4B 6984   9.380   3.222   8.749  0.0903  0.0800  0.0106
  442POPI    C1 6985  16.633   1.607  10.521 -0.0280  0.0765  0.1147
  442POPI    C2 6986  16.355   1.895  10.513 -0.2860 -0.1713 -0.0113
  442POPI    C3 6987  16.427   1.696  10.852 -0.0266  0.1147  0.1053
  442POPI   PO4 6988  16.616   1.603  10.250  0.1690  0.0410 -0.0124
  442POPI   GL1 6989  16.420   1.364  10.005 -0.0515  0.0088 -0.1936
  442POPI   GL2 6990  16.579   1.121  10.107 -0.1332  0.2855 -0.0412
  442POPI   C1A 6991  16.324   1.569   9.628 -0.0099 -0.1144 -0.2819
  442POPI   D2A 6992  16.360   1.739   9.179  0.0110 -0.1023  0.0711
  442POPI   C3A 6993  16.072   1.903   8.964 -0.0915  0.1109 -0.1557
  442POPI   C4A 6994  15.962   2.032   8.517 -0.2288 -0.0251 -0.1443
  442POPI   C1B 6995  16.748   1.191   9.697 -0.1192  0.0687 -0.0543
  442POPI   C2B 6996  16.590   1.247   9.226  0.0600 -0.4393 -0.1001
  442POPI   C3B 6997  16.313   1.358   8.943  0.2487 -0.0348 -0.0370
  442POPI   C4B 6998  16.214   1.563   8.564 -0.0793 -0.0186 -0.4452
  443POPI    C1 6999   4.222  11.549  10.401 -0.2687 -0.1416 -0.0501
  443POPI    C2 7000   4.158  11.262  10.130 -0.3353 -0.0886 -0.0908
  443POPI    C3 7001   3.860  11.382  10.368 -0.3117 -0.0419 -0.0849
  443POPI   PO4 7002   4.479  11.654  10.297 -0.3448 -0.2359  0.0599
  443POPI   GL1 7003   4.648  11.539   9.924  0.1647  0.0228  0.2861
  443POPI   GL2 7004   4.628  11.195   9.882  0.0708 -0.2561  0.3473
  443POPI   C1A 7005   4.757  11.507   9.468 -0.1556  0.0713  0.1705
  443POPI   D2A 7006   4.789  11.440   9.048  0.1434  0.2541  0.2105
  443POPI   C3A 7007   4.788  11.560   8.659 -0.1855  0.2739 -0.0509
  443POPI   C4A 7008   4.759  11.536   8.195  0.3383 -0.0212  0.2562
  443POPI   C1B 7009   4.333  11.184   9.641 -0.1526  0.1954  0.1685
  443POPI   C2B 7010   4.381  11.074   9.203  0.1796  0.0623 -0.1877
  443POPI   C3B 7011   4.409  11.217   8.786 -0.1459 -0.2076 -0.0414
  443POPI   C4B 7012   4.344  11.230   8.379 -0.1053 -0.1032 -0.1802
  444POPI    C1 7013  11.919  12.442  11.057 -0.1620 -0.1006 -0.1028
  444POPI    C2 7014  11.651  12.226  11.259 -0.0660 -0.1758 -0.0550
  444POPI    C3 7015  11.967  12.381  11.449 -0.2844  0.2525 -0.0292
  444POPI   PO4 7016  12.005  12.292  10.916 -0.1287 -0.1017 -0.0240
  444POPI   GL1 7017  11.873  12.069  10.615  0.0937  0.1517  0.2208
  444POPI   GL2 7018  11.662  11.834  10.434 -0.2617 -0.1476  0.1737
  444POPI   C1A 7019  11.733  12.267  10.194  0.2169  0.1032  0.1002
  444POPI   D2A 7020  11.773  12.551   9.892 -0.2199  0.1251 -0.1498
  444POPI   C3A 7021  11.707  12.440   9.485 -0.0074  0.0320  0.2378
  444POPI   C4A 7022  11.588  12.407   9.179  0.1247 -0.2216  0.1084
  444POPI   C1B 7023  11.765  11.838   9.960  0.1181 -0.0603  0.2481
  444POPI   C2B 7024  11.829  11.927   9.504 -0.0384 -0.1880  0.0111
  444POPI   C3B 7025  11.711  11.909   9.095 -0.0152 -0.0250 -0.1797
  444POPI   C4B 7026  11.715  12.160   8.786  0.2667  0.0544  0.0667
  445POPI    C1 7027  13.196  14.718  10.823  0.3073  0.1872 -0.1606
  445POPI    C2 7028  13.314  14.883  11.168 -0.1226 -0.0021  0.0844
  445POPI    C3 7029  13.209  15.116  10.860 -0.1106  0.1732  0.2116
  445POPI   PO4 7030  13.413  14.566  10.636  0.0292  0.2158 -0.0075
  445POPI   GL1 7031  13.726  14.783  10.301 -0.0442  0.2833 -0.1012
  445POPI   GL2 7032  13.617  15.024  10.495 -0.2351  0.1820 -0.1415
  445POPI   C1A 7033  13.486  14.706   9.862  0.2694  0.1569 -0.0957
  445POPI   D2A 7034  13.463  14.671   9.330 -0.1731  0.0724 -0.0185
  445POPI   C3A 7035  13.426  14.888   8.842  0.0299 -0.3186 -0.0602
  445POPI   C4A 7036  13.310  15.337   8.618  0.0794  0.1658 -0.2254
  445POPI   C1B 7037  13.372  15.235  10.175  0.2167  0.0483 -0.1575
  445POPI   C2B 7038  13.416  15.269   9.758  0.0250 -0.2745  0.1614
  445POPI   C3B 7039  13.470  15.175   9.474  0.1393 -0.1152  0.0975
  445POPI   C4B 7040  13.365  15.348   9.154  0.0835 -0.5413 -0.0386
  446POPI    C1 7041   7.303   1.015  11.225  0.2021  0.1731 -0.1043
  446POPI    C2 7042   7.693   0.936  11.267  0.1354 -0.0548  0.1126
  446POPI    C3 7043   7.530   1.247  11.459  0.2140  0.0575 -0.0005
  446POPI   PO4 7044   7.264   1.010  11.020 -0.0894  0.1025 -0.4286
  446POPI   GL1 7045   7.607   1.000  10.752  0.2389 -0.0810  0.1743
  446POPI   GL2 7046   7.909   1.140  10.592  0.0884  0.1057  0.0013
  446POPI   C1A 7047   7.433   1.333  10.427  0.0435  0.2069 -0.3510
  446POPI   D2A 7048   7.298   1.473  10.028 -0.0163  0.2378  0.0401
  446POPI   C3A 7049   7.452   1.404   9.595  0.1654 -0.1500 -0.2938
  446POPI   C4A 7050   7.473   1.330   9.205 -0.1595 -0.1716 -0.1862
  446POPI   C1B 7051   7.930   1.224  10.191  0.0338 -0.3214  0.0522
  446POPI   C2B 7052   7.979   1.212   9.706 -0.2701  0.0049  0.1200
  446POPI   C3B 7053   7.968   1.195   9.380 -0.0860 -0.0372  0.1373
  446POPI   C4B 7054   7.893   1.299   8.913  0.4042 -0.2723  0.1793
  447POPI    C1 7055   2.390   2.111  10.458  0.1666 -0.2169 -0.0840
  447POPI    C2 7056   2.311   1.881  10.776  0.2749 -0.0598  0.0588
  447POPI    C3 7057   2.524   2.217  10.820 -0.0373  0.1663 -0.1153
  447POPI   PO4 7058   2.217   2.053  10.336 -0.0200 -0.0086 -0.0758
  447POPI   GL1 7059   2.108   1.963  10.002 -0.0846 -0.1965  0.1511
  447POPI   GL2 7060   2.134   2.198   9.858 -0.0382 -0.1054 -0.0037
  447POPI   C1A 7061   2.138   1.728   9.608 -0.0953 -0.3226  0.1593
  447POPI   D2A 7062   2.140   1.595   9.155 -0.3650  0.0467 -0.0413
  447POPI   C3A 7063   2.286   1.663   8.730 -0.1680  0.0092  0.0307
  447POPI   C4A 7064   2.504   1.619   8.376  0.3223  0.1846  0.1169
  447POPI   C1B 7065   2.153   2.231   9.464  0.1429 -0.0219  0.2275
  447POPI   C2B 7066   2.191   2.096   9.049 -0.1669  0.3965 -0.2149
  447POPI   C3B 7067   2.311   2.186   8.573  0.2399  0.1184 -0.1643
  447POPI   C4B 7068   2.416   2.036   8.117 -0.0460  0.0668 -0.1357
  448POPI    C1 7069   0.923   4.863  10.320 -0.1706  0.0061  0.0175
  448POPI    C2 7070   0.888   4.948  10.709 -0.1002  0.0346  0.0177
  448POPI    C3 7071   1.191   4.721  10.580 -0.0711  0.1011 -0.0320
  448POPI   PO4 7072   0.934   5.022  10.148  0.0863  0.0480 -0.2813
  448POPI   GL1 7073   0.968   5.146   9.645 -0.0790 -0.1362 -0.0130
  448POPI   GL2 7074   1.317   5.075   9.466 -0.0164 -0.0696 -0.1156
  448POPI   C1A 7075   0.825   5.246   9.093  0.4637  0.0996  0.0893
  448POPI   D2A 7076   0.962   5.232   8.697 -0.0623 -0.0928 -0.0814
  448POPI   C3A 7077   0.961   5.067   8.311  0.2585  0.0705  0.0124
  448POPI   C4A 7078   0.926   4.827   7.976  0.1432 -0.3461  0.0653
  448POPI   C1B 7079   1.309   5.187   9.040 -0.2373 -0.0422  0.0387
  448POPI   C2B 7080   1.465   4.960   8.698  0.2247 -0.1891  0.3864
  448POPI   C3B 7081   1.580   5.033   8.189  0.0831  0.0557  0.1110
  448POPI   C4B 7082   1.603   5.372   7.926  0.0365  0.0298 -0.2211
  449POPI    C1 7083   6.613  10.401  10.692  0.1636  0.1743 -0.1401
  449POPI    C2 7084   6.533  10.109  10.430  0.0097  0.1406 -0.0565
  449POPI    C3 7085   6.612  10.020  10.812 -0.0333  0.2079 -0.0316
  449POPI   PO4 7086   6.738  10.539  10.565 -0.0812 -0.3761  0.2451
  449POPI   GL1 7087   6.794  10.476  10.137  0.2327  0.2067 -0.1329
  449POPI   GL2 7088   6.663  10.763  10.097 -0.0244  0.0132 -0.0171
  449POPI   C1A 7089   6.883  10.104   9.892  0.0642  0.0493 -0.2251
  449POPI   D2A 7090   6.918  10.268   9.515 -0.0784  0.0893  0.0738
  449POPI   C3A 7091   6.967  10.154   9.028  0.0941 -0.2113  0.1666
  449POPI   C4A 7092   6.889  10.006   8.584  0.0250  0.0744 -0.0037
  449POPI   C1B 7093   6.700  10.840   9.694  0.1910 -0.0164  0.1413
  449POPI   C2B 7094   6.898  10.803   9.354  0.1900  0.0014 -0.0736
  449POPI   C3B 7095   6.804  10.746   8.970  0.4458  0.2126 -0.2083
  449POPI   C4B 7096   6.654  10.789   8.500  0.2837  0.0598 -0.1498
  450POPI    C1 7097  17.052   0.065  10.600 -0.0737  0.2127  0.1030
  450POPI    C2 7098  16.734  -0.090  10.788  0.0866 -0.1692  0.0692
  450POPI    C3 7099  17.002   0.126  10.992 -0.1643  0.1124  0.1077
  450POPI   PO4 7100  16.927  -0.007  10.328  0.2978  0.0433 -0.2186
  450POPI   GL1 7101  17.017   0.102   9.954  0.2126  0.0550 -0.2710
  450POPI   GL2 7102  16.883   0.314   9.927  0.2280  0.3632 -0.0813
  450POPI   C1A 7103  17.159   0.185   9.533  0.2200  0.0773  0.2144
  450POPI   D2A 7104  17.213   0.312   9.131  0.2696  0.0909  0.0366
  450POPI   C3A 7105  16.900   0.366   8.744  0.0758 -0.1565  0.1975
  450POPI   C4A 7106  16.863   0.461   8.364 -0.0297 -0.2467 -0.1607
  450POPI   C1B 7107  16.625   0.301   9.529 -0.0105 -0.1797  0.0741
  450POPI   C2B 7108  16.461   0.401   9.111 -0.0568 -0.1289 -0.0352
  450POPI   C3B 7109  16.422   0.457   8.667 -0.1306  0.1718 -0.3451
  450POPI   C4B 7110  16.392   0.343   8.310 -0.0173  0.0201  0.0138
  451POPI    C1 7111   1.962  14.259  10.586 -0.2185 -0.3783 -0.0313
  451POPI    C2 7112   1.714  14.410  10.862  0.1900 -0.0753  0.1802
  451POPI    C3 7113   2.007  14.160  10.971  0.4224  0.1313  0.0413
  451POPI   PO4 7114   2.074  14.445  10.413 -0.2685  0.2196  0.2041
  451POPI   GL1 7115   2.416  14.388   9.994 -0.0025 -0.1702 -0.0215
  451POPI   GL2 7116   2.762  14.163   9.961  0.2298  0.0911  0.1959
  451POPI   C1A 7117   2.515  14.239   9.544  0.0888  0.1780 -0.0447
  451POPI   D2A 7118   2.724  14.341   9.162  0.1308  0.1902 -0.3065
  451POPI   C3A 7119   2.577  14.478   8.780  0.1246 -0.1688  0.0858
  451POPI   C4A 7120   2.312  14.227   8.425 -0.0805  0.4534 -0.0178
  451POPI   C1B 7121   2.944  14.059   9.639  0.0552  0.0736 -0.1790
  451POPI   C2B 7122   3.043  13.926   9.282  0.3296 -0.0850  0.4263
  451POPI   C3B 7123   3.031  14.061   8.802  0.0519 -0.1070 -0.0920
  451POPI   C4B 7124   3.134  13.926   8.385 -0.0238 -0.0880  0.1047
  452POPI    C1 7125   1.026  15.214  10.607 -0.2337  0.3111 -0.1107
  452POPI    C2 7126   1.123  15.451  10.914 -0.0799 -0.1422  0.2003
  452POPI    C3 7127   0.772  15.259  10.912 -0.1979  0.0700 -0.0435
  452POPI   PO4 7128   1.147  15.370  10.368 -0.0817  0.1285 -0.2832
  452POPI   GL1 7129   1.133  15.610  10.086 -0.1585 -0.1020  0.0455
  452POPI   GL2 7130   0.820  15.546   9.966  0.0537 -0.3437 -0.0019
  452POPI   C1A 7131   1.099  15.610   9.619 -0.1739  0.0880 -0.0249
  452POPI   D2A 7132   0.979  15.607   9.162 -0.1385  0.2339 -0.1792
  452POPI   C3A 7133   1.067  15.587   8.724  0.0695  0.0733 -0.1247
  452POPI   C4A 7134   0.839  15.856   8.394  0.1621  0.0697  0.1742
  452POPI   C1B 7135   0.579  15.712   9.618 -0.0084  0.0623  0.3614
  452POPI   C2B 7136   0.488  15.806   9.213 -0.0435 -0.0515 -0.1445
  452POPI   C3B 7137   0.586  15.862   8.867 -0.5241  0.1723 -0.0687
  452POPI   C4B 7138   0.475  16.110   8.544  0.0243  0.1793 -0.1529
  453POPI    C1 7139   6.378  15.939  10.940  0.0399  0.0313  0.0211
  453POPI    C2 7140   6.663  15.907  11.219  0.0578 -0.1053 -0.0121
  453POPI    C3 7141   6.294  15.771  11.293 -0.1005  0.4003  0.1679
  453POPI   PO4 7142   6.468  15.772  10.697  0.0636 -0.2301 -0.0737
  453POPI   GL1 7143   6.524  15.705  10.224  0.0320  0.2179  0.1256
  453POPI   GL2 7144   6.537  15.980  10.177  0.0901  0.1446 -0.0627
  453POPI   C1A 7145   6.763  15.428   9.826  0.3368  0.0582 -0.3127
  453POPI   D2A 7146   6.713  15.383   9.410 -0.1263 -0.1099 -0.0931
  453POPI   C3A 7147   6.866  15.498   9.082 -0.1759  0.0918  0.1905
  453POPI   C4A 7148   6.944  15.475   8.624  0.0625  0.3802 -0.1659
  453POPI   C1B 7149   6.452  15.969   9.807  0.1681 -0.1297  0.1244
  453POPI   C2B 7150   6.560  15.921   9.375 -0.1682 -0.0590  0.2835
  453POPI   C3B 7151   6.706  16.049   9.027 -0.1185  0.0329  0.3172
  453POPI   C4B 7152   6.772  16.071   8.582 -0.0828  0.0765  0.2876
  454POPI    C1 7153   3.442  11.712  10.627  0.0889  0.0913 -0.2415
  454POPI    C2 7154   3.429  12.110  10.591 -0.1130  0.0816 -0.2903
  454POPI    C3 7155   3.660  11.942  10.872 -0.0020  0.2308 -0.2908
  454POPI   PO4 7156   3.430  11.678  10.344  0.1255  0.1856 -0.0709
  454POPI   GL1 7157   3.558  11.705   9.968  0.0824 -0.2894  0.0512
  454POPI   GL2 7158   3.621  11.405   9.945  0.0663 -0.0026  0.1433
  454POPI   C1A 7159   3.597  11.742   9.522 -0.2580  0.0579  0.0026
  454POPI   D2A 7160   3.643  11.789   9.119 -0.1084  0.1792  0.0462
  454POPI   C3A 7161   3.797  11.668   8.799 -0.0827 -0.1170 -0.0607
  454POPI   C4A 7162   3.887  11.890   8.310  0.0460 -0.2362 -0.2415
  454POPI   C1B 7163   3.655  11.182   9.559  0.0324 -0.0386 -0.0581
  454POPI   C2B 7164   3.672  11.119   9.181 -0.2100 -0.2085 -0.0105
  454POPI   C3B 7165   3.879  11.188   8.862  0.1257 -0.0181 -0.2786
  454POPI   C4B 7166   3.936  11.024   8.474  0.0434  0.2085  0.0442
  455POPI    C1 7167  12.668  17.066  10.886  0.0987 -0.0955 -0.1233
  455POPI    C2 7168  12.558  17.249  11.224  0.0771  0.1596 -0.2657
  455POPI    C3 7169  12.281  17.139  10.956  0.0983  0.0016 -0.2236
  455POPI   PO4 7170  12.781  17.205  10.773 -0.0567 -0.0516  0.0501
  455POPI   GL1 7171  12.869  17.268  10.422 -0.1019  0.0494  0.3615
  455POPI   GL2 7172  12.917  16.974  10.310  0.1041  0.0921 -0.1600
  455POPI   C1A 7173  12.618  17.338  10.028 -0.0140  0.0696  0.3185
  455POPI   D2A 7174  12.303  17.332   9.743  0.2332  0.0644  0.1257
  455POPI   C3A 7175  12.427  17.506   9.298  0.0229  0.0498 -0.1326
  455POPI   C4A 7176  12.500  17.605   8.971 -0.1382 -0.0560  0.0025
  455POPI   C1B 7177  12.760  16.918   9.783 -0.1235  0.2590  0.0462
  455POPI   C2B 7178  12.463  17.017   9.411  0.1134 -0.0924 -0.0796
  455POPI   C3B 7179  12.513  16.975   8.991 -0.0235  0.0965  0.1649
  455POPI   C4B 7180  12.480  17.200   8.542 -0.0944 -0.0943 -0.0826
  456POPI    C1 7181  10.667  12.999  11.017 -0.1256 -0.1267 -0.1085
  456POPI    C2 7182  10.969  12.997  10.756  0.0815  0.0290  0.1250
  456POPI    C3 7183  10.947  13.285  11.033 -0.3395  0.0791  0.0453
  456POPI   PO4 7184  10.458  13.005  10.871  0.0296 -0.3123 -0.2449
  456POPI   GL1 7185  10.486  13.319  10.541 -0.2306  0.1878 -0.2187
  456POPI   GL2 7186  10.649  13.087  10.422  0.0472  0.2402 -0.1298
  456POPI   C1A 7187  10.473  13.440  10.105 -0.1294  0.3882  0.4046
  456POPI   D2A 7188  10.509  13.431   9.674  0.1878  0.0994 -0.3104
  456POPI   C3A 7189  10.439  13.318   9.288  0.3686 -0.0441 -0.0421
  456POPI   C4A 7190  10.433  13.215   8.911  0.2656 -0.2105 -0.2415
  456POPI   C1B 7191  10.736  13.028   9.936 -0.2683 -0.1209  0.1581
  456POPI   C2B 7192  10.659  12.969   9.562  0.0930 -0.1068  0.0880
  456POPI   C3B 7193  10.554  12.765   9.278  0.2070  0.1156 -0.1344
  456POPI   C4B 7194  10.722  12.682   8.933  0.2073 -0.0130 -0.0112
  457POPI    C1 7195   2.308   6.415  10.161  0.1005  0.1350  0.0476
  457POPI    C2 7196   2.127   6.661  10.420  0.0078  0.1335 -0.0151
  457POPI    C3 7197   1.966   6.596  10.060 -0.1197 -0.2392  0.1046
  457POPI   PO4 7198   2.607   6.512  10.107  0.2418  0.0835  0.3738
  457POPI   GL1 7199   2.890   6.426   9.851  0.1923 -0.1949  0.0755
  457POPI   GL2 7200   2.647   6.503   9.635 -0.0773  0.1025 -0.0726
  457POPI   C1A 7201   3.043   6.393   9.400 -0.2576 -0.1384  0.0170
  457POPI   D2A 7202   3.204   6.379   9.027 -0.4221 -0.0355 -0.0144
  457POPI   C3A 7203   3.266   6.133   8.699 -0.2726  0.1932  0.2251
  457POPI   C4A 7204   3.227   5.727   8.493  0.0101  0.0996 -0.0933
  457POPI   C1B 7205   2.631   6.548   9.179 -0.0129  0.0361  0.0320
  457POPI   C2B 7206   2.523   6.654   8.750  0.0941 -0.0190  0.0668
  457POPI   C3B 7207   2.421   6.716   8.336  0.1301 -0.0782 -0.4146
  457POPI   C4B 7208   2.213   6.539   7.997  0.2834  0.0402  0.0483
  458POPI    C1 7209  10.738   0.950  11.324 -0.1230 -0.3126  0.1312
  458POPI    C2 7210  10.729   1.187  11.646  0.1967 -0.0953 -0.0150
  458POPI    C3 7211  10.782   0.793  11.690  0.1324 -0.0811  0.2030
  458POPI   PO4 7212  10.893   1.123  11.152 -0.0063 -0.0616 -0.1617
  458POPI   GL1 7213  10.943   1.060  10.726  0.1238 -0.2477 -0.0366
  458POPI   GL2 7214  10.850   1.225  10.510  0.2508 -0.2639 -0.2540
  458POPI   C1A 7215  10.833   0.796  10.330 -0.0937  0.2600  0.1570
  458POPI   D2A 7216  10.654   0.748   9.885 -0.2778  0.0804 -0.0578
  458POPI   C3A 7217  10.826   0.800   9.527 -0.0425  0.1214  0.1592
  458POPI   C4A 7218  10.832   0.865   9.104  0.1349 -0.0812  0.0638
  458POPI   C1B 7219  10.706   1.266  10.104  0.0077  0.2072 -0.2637
  458POPI   C2B 7220  10.668   1.291   9.644 -0.0971  0.1763  0.2402
  458POPI   C3B 7221  10.682   1.344   9.250 -0.0473 -0.1370 -0.0249
  458POPI   C4B 7222  10.802   1.299   8.846 -0.2536 -0.0395 -0.5264
  459POPI    C1 7223   2.719   9.141  10.208  0.1063 -0.0031 -0.0389
  459POPI    C2 7224   3.052   9.038  10.404  0.1160 -0.0034 -0.0554
  459POPI    C3 7225   2.802   9.308  10.561  0.0309 -0.1386  0.0440
  459POPI   PO4 7226   2.643   8.940  10.113 -0.2775  0.0180 -0.3602
  459POPI   GL1 7227   2.697   8.904   9.563 -0.1863  0.0911  0.1535
  459POPI   GL2 7228   2.989   9.125   9.475  0.2262 -0.1877 -0.0504
  459POPI   C1A 7229   2.692   8.795   9.061  0.2332  0.4470 -0.0924
  459POPI   D2A 7230   2.755   8.711   8.583  0.2427 -0.1256 -0.0779
  459POPI   C3A 7231   2.810   8.832   8.140 -0.0228  0.0560 -0.1996
  459POPI   C4A 7232   3.099   8.690   7.840  0.2772 -0.1482 -0.0731
  459POPI   C1B 7233   3.008   9.175   9.087  0.0388  0.2087 -0.0591
  459POPI   C2B 7234   3.037   9.156   8.651 -0.2397  0.0853 -0.0886
  459POPI   C3B 7235   3.190   9.107   8.277  0.0208 -0.0484 -0.1548
  459POPI   C4B 7236   3.447   9.054   7.946 -0.0442 -0.1053  0.2642
  460POPI    C1 7237   1.509   8.706   9.939  0.2665 -0.1757  0.0156
  460POPI    C2 7238   1.866   8.881   9.901  0.1374  0.0800 -0.0438
  460POPI    C3 7239   1.771   8.693  10.241  0.3013  0.0700 -0.0024
  460POPI   PO4 7240   1.430   8.515   9.770 -0.1751 -0.1319 -0.0922
  460POPI   GL1 7241   1.355   8.517   9.402 -0.3598 -0.2640 -0.1789
  460POPI   GL2 7242   1.152   8.739   9.395  0.0070 -0.1060  0.0002
  460POPI   C1A 7243   1.221   8.164   9.178 -0.0265  0.1289 -0.0567
  460POPI   D2A 7244   1.245   8.056   8.802  0.0757  0.1839 -0.3314
  460POPI   C3A 7245   1.339   8.202   8.375  0.0375 -0.0068 -0.1524
  460POPI   C4A 7246   1.488   8.285   7.967 -0.0288 -0.2050 -0.1557
  460POPI   C1B 7247   1.174   8.658   8.919 -0.1131 -0.0438 -0.2623
  460POPI   C2B 7248   1.233   8.704   8.478 -0.0755  0.1213 -0.1064
  460POPI   C3B 7249   1.275   8.811   8.100 -0.0652 -0.1057  0.1279
  460POPI   C4B 7250   1.080   9.032   7.767 -0.1729 -0.2514 -0.0039
  461POPI    C1 7251   9.747  11.355  11.278 -0.1692 -0.2089 -0.1158
  461POPI    C2 7252  10.135  11.271  11.235 -0.1791 -0.4137  0.1624
  461POPI    C3 7253  10.019  11.551  11.496 -0.1934 -0.0220 -0.2516
  461POPI   PO4 7254   9.619  11.406  11.022  0.0821  0.2227 -0.0179
  461POPI   GL1 7255   9.820  11.367  10.656 -0.0613  0.0292  0.0338
  461POPI   GL2 7256   9.514  11.689  10.644 -0.0541 -0.1367  0.2617
  461POPI   C1A 7257   9.876  11.349  10.278 -0.2883 -0.0777 -0.1589
  461POPI   D2A 7258   9.814  11.622   9.969  0.1933 -0.0371 -0.2462
  461POPI   C3A 7259   9.778  11.712   9.570 -0.0659  0.1462  0.0221
  461POPI   C4A 7260  10.042  11.632   9.224 -0.2997 -0.0474 -0.0986
  461POPI   C1B 7261   9.299  11.876  10.269 -0.2639 -0.3667 -0.1371
  461POPI   C2B 7262   9.293  11.871   9.744  0.2812 -0.0860  0.1452
  461POPI   C3B 7263   9.410  11.892   9.330 -0.0778 -0.1449 -0.0345
  461POPI   C4B 7264   9.501  11.736   8.931  0.0586  0.1944  0.0298
  462POPI    C1 7265   8.371   8.692  11.024 -0.0241  0.0751  0.0222
  462POPI    C2 7266   8.077   8.688  11.295 -0.2214  0.3637 -0.1823
  462POPI    C3 7267   8.452   8.766  11.409 -0.2030 -0.0910  0.0936
  462POPI   PO4 7268   8.306   8.326  10.941 -0.1758 -0.0875  0.0148
  462POPI   GL1 7269   8.113   8.151  10.578 -0.0739 -0.1587  0.1736
  462POPI   GL2 7270   8.125   8.464  10.420  0.1529  0.0479 -0.1706
  462POPI   C1A 7271   8.223   7.852  10.230  0.2741 -0.0605 -0.1113
  462POPI   D2A 7272   8.243   7.673   9.943  0.0782 -0.1023  0.1128
  462POPI   C3A 7273   8.347   7.879   9.488 -0.1636 -0.2662 -0.0436
  462POPI   C4A 7274   8.414   7.780   9.065  0.1905  0.1394 -0.2290
  462POPI   C1B 7275   8.116   8.437  10.034 -0.0891  0.1992 -0.0267
  462POPI   C2B 7276   8.191   8.478   9.612  0.0266  0.2426  0.0536
  462POPI   C3B 7277   8.264   8.302   9.110  0.0019 -0.0468  0.0432
  462POPI   C4B 7278   8.277   8.468   8.693 -0.2113  0.1266 -0.0090
  463POPI    C1 7279   7.418  12.819  11.326 -0.1272 -0.0610 -0.1141
  463POPI    C2 7280   7.053  12.703  11.211 -0.1176 -0.0362 -0.1700
  463POPI    C3 7281   7.103  12.890  11.561 -0.1167 -0.3069 -0.0225
  463POPI   PO4 7282   7.528  12.910  11.077 -0.0567  0.0871 -0.0163
  463POPI   GL1 7283   7.650  12.827  10.694  0.2707  0.1294 -0.0384
  463POPI   GL2 7284   7.531  12.700  10.451 -0.0216 -0.1080 -0.2173
  463POPI   C1A 7285   7.644  13.241  10.350 -0.4647  0.0394  0.2582
  463POPI   D2A 7286   7.798  13.315   9.958  0.1081  0.2398 -0.1039
  463POPI   C3A 7287   7.762  13.329   9.527 -0.0043 -0.1578 -0.1709
  463POPI   C4A 7288   7.721  13.348   9.040  0.2781  0.0870 -0.2411
  463POPI   C1B 7289   7.848  12.769  10.156 -0.3558 -0.4956  0.1978
  463POPI   C2B 7290   7.883  12.777   9.636  0.0454 -0.1622 -0.3504
  463POPI   C3B 7291   7.798  12.840   9.131 -0.1605 -0.0030 -0.0324
  463POPI   C4B 7292   7.865  13.006   8.754 -0.1533 -0.1982  0.0221
  464POPI    C1 7293   0.123   0.955  10.623 -0.1707 -0.1164 -0.0378
  464POPI    C2 7294   0.346   0.624  10.599 -0.3885 -0.2643 -0.0566
  464POPI    C3 7295   0.023   0.630  10.834 -0.2809 -0.0011  0.0888
  464POPI   PO4 7296   0.116   1.068  10.342  0.0082  0.0866 -0.0508
  464POPI   GL1 7297   0.141   0.749   9.933  0.1006  0.0260  0.1478
  464POPI   GL2 7298   0.368   0.491  10.030 -0.0842 -0.0878  0.4253
  464POPI   C1A 7299   0.245   0.882   9.536  0.0238  0.0258 -0.0245
  464POPI   D2A 7300   0.328   0.979   9.126 -0.1573 -0.1163 -0.1280
  464POPI   C3A 7301   0.384   0.763   8.876 -0.0713  0.0123  0.0198
  464POPI   C4A 7302   0.351   0.730   8.395 -0.0413  0.2379  0.1469
  464POPI   C1B 7303   0.618   0.599   9.707  0.0575  0.1153 -0.1093
  464POPI   C2B 7304   0.656   0.547   9.185 -0.0287 -0.1188  0.0857
  464POPI   C3B 7305   0.854   0.587   8.760  0.0640  0.2001  0.0954
  464POPI   C4B 7306   0.837   0.638   8.378 -0.0689  0.3539  0.3050
  465POPI    C1 7307   1.985   6.111  10.467  0.1495  0.0256 -0.0589
  465POPI    C2 7308   2.270   5.830  10.454 -0.0433 -0.1878  0.2091
  465POPI    C3 7309   2.325   6.161  10.672  0.2317  0.0433 -0.1985
  465POPI   PO4 7310   1.923   6.092  10.226 -0.1471 -0.3752 -0.0494
  465POPI   GL1 7311   2.084   6.019   9.767  0.0341 -0.1319 -0.1128
  465POPI   GL2 7312   2.191   6.353   9.644 -0.0055  0.0216 -0.4323
  465POPI   C1A 7313   2.303   5.759   9.459 -0.2716 -0.0428  0.0416
  465POPI   D2A 7314   2.396   5.672   8.969  0.2036  0.0997 -0.1498
  465POPI   C3A 7315   2.185   5.794   8.555 -0.2543  0.1839 -0.0036
  465POPI   C4A 7316   2.120   5.958   8.133 -0.2434  0.3870 -0.3718
  465POPI   C1B 7317   2.247   6.195   9.264  0.0799  0.3110 -0.1675
  465POPI   C2B 7318   2.227   6.239   8.806 -0.2663 -0.0429 -0.1056
  465POPI   C3B 7319   2.025   6.388   8.461  0.1214 -0.1114  0.0364
  465POPI   C4B 7320   1.774   6.676   8.128 -0.1875 -0.0270  0.1123
  466POPI    C1 7321   5.023  16.531  10.967 -0.0374 -0.0097 -0.0794
  466POPI    C2 7322   4.806  16.735  11.234 -0.0871  0.0533 -0.1672
  466POPI    C3 7323   5.146  16.557  11.347 -0.2154 -0.0980 -0.0148
  466POPI   PO4 7324   4.885  16.580  10.748 -0.3904 -0.1633  0.2860
  466POPI   GL1 7325   4.745  16.741  10.368  0.0092  0.1866 -0.0962
  466POPI   GL2 7326   4.923  16.972  10.207 -0.0804 -0.2782 -0.0023
  466POPI   C1A 7327   4.470  16.772   9.920 -0.0586 -0.1897  0.1085
  466POPI   D2A 7328   4.514  16.822   9.572  0.1803  0.2088  0.1845
  466POPI   C3A 7329   4.546  16.550   9.203  0.0887  0.1271  0.0477
  466POPI   C4A 7330   4.686  16.624   8.874  0.3272 -0.1659  0.2493
  466POPI   C1B 7331   4.904  17.089   9.764  0.1669 -0.0736  0.0397
  466POPI   C2B 7332   5.034  17.031   9.311  0.0363  0.3068 -0.3366
  466POPI   C3B 7333   5.064  16.994   8.949  0.0468  0.1408  0.0850
  466POPI   C4B 7334   4.977  16.993   8.492 -0.0971 -0.0403 -0.1480
  467POPI    C1 7335   0.140  11.815  10.040  0.1321 -0.2525  0.0252
  467POPI    C2 7336   0.419  11.918  10.308  0.0572  0.1125 -0.0320
  467POPI    C3 7337   0.031  11.961  10.396  0.0198 -0.2269 -0.0194
  467POPI   PO4 7338   0.248  11.932   9.775  0.4492  0.2055 -0.4149
  467POPI   GL1 7339  -0.004  12.066   9.521  0.0062  0.0726 -0.3197
  467POPI   GL2 7340   0.123  12.353   9.486 -0.0550  0.3147  0.4866
  467POPI   C1A 7341  -0.055  11.811   9.207 -0.0810  0.0568  0.0819
  467POPI   D2A 7342   0.052  11.701   8.941  0.0261 -0.2207  0.0946
  467POPI   C3A 7343   0.001  11.877   8.525 -0.0804 -0.1685 -0.0741
  467POPI   C4A 7344  -0.043  11.853   8.007  0.1037  0.1030 -0.0275
  467POPI   C1B 7345   0.224  12.343   9.065  0.4265 -0.2587  0.2022
  467POPI   C2B 7346   0.234  12.365   8.647  0.2368  0.2225 -0.1295
  467POPI   C3B 7347   0.329  12.119   8.212  0.0351 -0.0695 -0.2779
  467POPI   C4B 7348   0.404  11.992   7.867  0.0150 -0.0509 -0.2370
  468POPI    C1 7349  10.331   5.258  11.582  0.0752  0.1405  0.1805
  468POPI    C2 7350  10.511   4.994  11.823  0.2015  0.1583  0.1063
  468POPI    C3 7351  10.497   5.381  11.924  0.1699  0.1508  0.1310
  468POPI   PO4 7352  10.408   5.106  11.278 -0.0091 -0.0551 -0.3098
  468POPI   GL1 7353  10.449   5.028  10.760  0.1201 -0.1296 -0.1339
  468POPI   GL2 7354  10.176   5.040  10.729 -0.0338  0.0947  0.1030
  468POPI   C1A 7355  10.598   5.394  10.546  0.1772  0.3927 -0.1292
  468POPI   D2A 7356  10.610   5.543  10.133 -0.0132  0.0813 -0.1774
  468POPI   C3A 7357  10.678   5.455   9.775 -0.5722 -0.1972 -0.1651
  468POPI   C4A 7358  10.759   5.578   9.380 -0.0099 -0.0547 -0.3569
  468POPI   C1B 7359  10.264   5.156  10.307 -0.1189  0.1449  0.0254
  468POPI   C2B 7360  10.258   5.223   9.915  0.1694  0.1691  0.0148
  468POPI   C3B 7361  10.354   5.176   9.477  0.0226  0.0124  0.2207
  468POPI   C4B 7362  10.331   5.310   9.045  0.1170  0.0115  0.2490
  469POPI    C1 7363   3.699  13.904  10.811 -0.0777 -0.0748 -0.1093
  469POPI    C2 7364   3.320  14.015  10.877 -0.1047 -0.0847 -0.2435
  469POPI    C3 7365   3.432  13.636  10.940 -0.0576 -0.0273  0.0324
  469POPI   PO4 7366   3.710  14.015  10.548  0.2917 -0.0346 -0.2540
  469POPI   GL1 7367   3.823  13.975  10.191 -0.0904  0.0459 -0.4756
  469POPI   GL2 7368   3.655  13.672  10.088 -0.0934  0.1395 -0.2312
  469POPI   C1A 7369   4.149  14.074   9.928 -0.4726 -0.0099  0.0511
  469POPI   D2A 7370   4.368  13.984   9.503 -0.3315 -0.2781  0.0949
  469POPI   C3A 7371   4.341  13.953   9.033  0.0484 -0.2146 -0.1660
  469POPI   C4A 7372   4.366  14.189   8.653 -0.0600  0.0441  0.0240
  469POPI   C1B 7373   3.836  13.630   9.697 -0.0324 -0.2200  0.0750
  469POPI   C2B 7374   3.962  13.687   9.328 -0.1109  0.1488  0.4004
  469POPI   C3B 7375   3.928  13.727   8.930  0.0862 -0.0792  0.3349
  469POPI   C4B 7376   4.049  13.790   8.510  0.1347  0.0256  0.1113
  470POPI    C1 7377   1.049  11.391  10.198 -0.1745 -0.1012  0.0131
  470POPI    C2 7378   0.892  11.736  10.325  0.3215  0.1478 -0.0274
  470POPI    C3 7379   0.977  11.447  10.588  0.1401  0.1530  0.0385
  470POPI   PO4 7380   1.022  11.464   9.857  0.2092 -0.3239 -0.0887
  470POPI   GL1 7381   1.155  11.697   9.600 -0.0474 -0.0207  0.1853
  470POPI   GL2 7382   0.791  11.589   9.461 -0.0752 -0.2700  0.0442
  470POPI   C1A 7383   1.264  11.594   9.223  0.0176  0.2220  0.1750
  470POPI   D2A 7384   1.321  11.549   8.760 -0.0073 -0.0120 -0.1536
  470POPI   C3A 7385   1.322  11.501   8.297  0.0618 -0.1400  0.1021
  470POPI   C4A 7386   1.339  11.334   7.911 -0.0287  0.0403  0.1610
  470POPI   C1B 7387   0.810  11.456   9.031  0.0465 -0.0255 -0.2019
  470POPI   C2B 7388   0.862  11.314   8.540 -0.3493 -0.0039 -0.2149
  470POPI   C3B 7389   0.857  11.356   8.215  0.1888 -0.1220  0.2691
  470POPI   C4B 7390   0.663  11.427   7.862  0.0712 -0.1233 -0.0969
  471POPI    C1 7391  17.672   1.856  10.658  0.0510 -0.1105 -0.1177
  471POPI    C2 7392  17.640   1.464  10.732 -0.0360 -0.0706  0.0630
  471POPI    C3 7393  17.443   1.727  10.960  0.1042  0.0840  0.0075
  471POPI   PO4 7394  17.655   1.938  10.412  0.1257  0.1930  0.0843
  471POPI   GL1 7395  17.873   1.862   9.931 -0.1826  0.1182  0.2204
  471POPI   GL2 7396  17.554   2.024   9.920 -0.0800 -0.0915  0.0127
  471POPI   C1A 7397  18.085   1.853   9.427  0.1366 -0.3499 -0.0301
  471POPI   D2A 7398  18.049   2.003   8.944 -0.1393  0.0142 -0.0137
  471POPI   C3A 7399  18.009   1.754   8.640  0.2786  0.0892  0.0931
  471POPI   C4A 7400  17.973   1.513   8.339  0.2570 -0.2091  0.4193
  471POPI   C1B 7401  17.580   1.878   9.545 -0.1304 -0.0364  0.0868
  471POPI   C2B 7402  17.328   1.830   9.175 -0.0810  0.5076 -0.3747
  471POPI   C3B 7403  17.148   1.840   8.748 -0.1378  0.1836 -0.0366
  471POPI   C4B 7404  17.009   1.854   8.343 -0.0733 -0.1665 -0.2880
  472POPI    C1 7405   7.516  11.948  11.019 -0.0074  0.0353  0.0301
  472POPI    C2 7406   7.441  11.555  11.014 -0.0686  0.0483 -0.1221
  472POPI    C3 7407   7.479  11.747  11.363  0.1996 -0.1369 -0.0463
  472POPI   PO4 7408   7.449  11.970  10.724  0.1888  0.1645  0.0641
  472POPI   GL1 7409   7.445  11.933  10.315 -0.5503 -0.1070 -0.2581
  472POPI   GL2 7410   7.444  11.571  10.108  0.0450  0.0679  0.0781
  472POPI   C1A 7411   7.408  11.998   9.886  0.1196 -0.1673  0.1257
  472POPI   D2A 7412   7.433  12.052   9.473 -0.1469 -0.2350  0.1962
  472POPI   C3A 7413   7.454  11.938   9.120  0.0185 -0.2213 -0.2491
  472POPI   C4A 7414   7.514  11.959   8.683 -0.0496 -0.1373 -0.0511
  472POPI   C1B 7415   7.585  11.450   9.654  0.0396 -0.1515 -0.1062
  472POPI   C2B 7416   7.537  11.482   9.148 -0.2727  0.0789  0.1026
  472POPI   C3B 7417   7.701  11.388   8.706 -0.3474 -0.0959 -0.1193
  472POPI   C4B 7418   7.612  11.230   8.367 -0.1533  0.1645 -0.1715
  473DPPI    C1 7419   5.132   1.798  11.087  0.0335  0.0210  0.0706
  473DPPI    C2 7420   5.073   1.461  11.294  0.1815 -0.1268 -0.1238
  473DPPI    C3 7421   5.094   1.812  11.485  0.0937 -0.2345  0.0869
  473DPPI   PO4 7422   5.335   1.780  10.932  0.1615 -0.0324  0.0498
  473DPPI   GL1 7423   5.368   1.643  10.616 -0.2048 -0.2177 -0.0549
  473DPPI   GL2 7424   5.579   1.925  10.486  0.0116  0.0341 -0.1483
  473DPPI   C1A 7425   5.322   1.588  10.201  0.1353 -0.3706 -0.1556
  473DPPI   C2A 7426   5.450   1.522   9.744 -0.0446 -0.0728 -0.2290
  473DPPI   C3A 7427   5.531   1.395   9.356 -0.4384  0.1894 -0.1053
  473DPPI   C4A 7428   5.602   1.392   9.024  0.0822  0.0167  0.1184
  473DPPI   C1B 7429   5.725   1.871  10.017 -0.0166 -0.0818  0.0351
  473DPPI   C2B 7430   5.864   1.787   9.485 -0.4443  0.2349  0.2146
  473DPPI   C3B 7431   5.975   1.737   9.060  0.0030  0.2033  0.1059
  473DPPI   C4B 7432   5.773   1.741   8.665  0.6097 -0.2478 -0.2954
  474DPPI    C1 7433   1.702  13.429  10.333 -0.1212 -0.0673 -0.2617
  474DPPI    C2 7434   1.307  13.368  10.353 -0.1608  0.3023  0.2824
  474DPPI    C3 7435   1.556  13.127  10.552 -0.0964  0.0066 -0.1427
  474DPPI   PO4 7436   1.803  13.442  10.116  0.0462  0.1962  0.1048
  474DPPI   GL1 7437   2.174  13.634   9.901 -0.1263 -0.0636 -0.2252
  474DPPI   GL2 7438   2.504  13.730   9.888 -0.2420 -0.0054 -0.3341
  474DPPI   C1A 7439   2.110  13.520   9.498 -0.2739  0.1993 -0.2301
  474DPPI   C2A 7440   2.197  13.539   9.094 -0.0831 -0.1132  0.1086
  474DPPI   C3A 7441   2.191  13.548   8.669 -0.1200  0.2136 -0.0454
  474DPPI   C4A 7442   2.085  13.465   8.239 -0.2185 -0.3105 -0.0588
  474DPPI   C1B 7443   2.558  13.744   9.400 -0.0371 -0.1159  0.3011
  474DPPI   C2B 7444   2.658  13.793   9.005  0.0900 -0.0951  0.0780
  474DPPI   C3B 7445   2.597  13.866   8.662  0.0966  0.1580  0.1265
  474DPPI   C4B 7446   2.457  13.767   8.297 -0.1571  0.0722  0.1754
  475DPPI    C1 7447   0.279  14.073  10.514  0.1535  0.1360  0.0325
  475DPPI    C2 7448   0.588  13.821  10.555  0.0869  0.0401 -0.0502
  475DPPI    C3 7449   0.214  13.688  10.603  0.0596  0.1659  0.0941
  475DPPI   PO4 7450   0.207  14.234  10.237 -0.0100 -0.2712  0.1167
  475DPPI   GL1 7451   0.033  14.312   9.862 -0.1309 -0.3428 -0.2847
  475DPPI   GL2 7452   0.117  14.702   9.825  0.0237 -0.2776 -0.1672
  475DPPI   C1A 7453  -0.026  14.083   9.479  0.3257  0.0126  0.2290
  475DPPI   C2A 7454  -0.061  14.157   9.105  0.0904  0.2983 -0.3005
  475DPPI   C3A 7455   0.053  14.198   8.661 -0.0090  0.0941  0.1045
  475DPPI   C4A 7456   0.081  14.245   8.211  0.1745 -0.1213 -0.1700
  475DPPI   C1B 7457   0.137  14.826   9.375  0.0947 -0.2300 -0.2340
  475DPPI   C2B 7458   0.081  14.834   8.958 -0.0569 -0.0798  0.0072
  475DPPI   C3B 7459   0.221  14.679   8.512 -0.4091  0.0478 -0.0614
  475DPPI   C4B 7460   0.482  14.575   8.122  0.0558  0.0590  0.0576
  476DPPI    C1 7461   3.603   3.422  10.946 -0.0963 -0.1856  0.0372
  476DPPI    C2 7462   3.682   3.045  10.836  0.0506 -0.1389 -0.0201
  476DPPI    C3 7463   3.937   3.242  11.074 -0.0787 -0.1110  0.0968
  476DPPI   PO4 7464   3.515   3.530  10.712  0.0748  0.1208 -0.0941
  476DPPI   GL1 7465   3.608   3.538  10.280  0.1787 -0.1583 -0.0209
  476DPPI   GL2 7466   3.932   3.541  10.127 -0.3379 -0.2071  0.4306
  476DPPI   C1A 7467   3.415   3.498   9.900  0.2481 -0.1626 -0.2422
  476DPPI   C2A 7468   3.405   3.384   9.499  0.0246  0.0494 -0.1024
  476DPPI   C3A 7469   3.576   3.449   9.174 -0.1558 -0.0057  0.0920
  476DPPI   C4A 7470   3.595   3.284   8.729 -0.1076  0.3478  0.0905
  476DPPI   C1B 7471   3.910   3.519   9.650  0.3106  0.2903  0.3430
  476DPPI   C2B 7472   4.033   3.458   9.251  0.0539  0.2973  0.1744
  476DPPI   C3B 7473   4.189   3.394   8.887 -0.1812 -0.0517  0.1667
  476DPPI   C4B 7474   4.375   3.346   8.402  0.1320  0.1275 -0.0944
  477DPPI    C1 7475  16.176  12.774  10.172  0.0718 -0.1757  0.0172
  477DPPI    C2 7476  16.038  12.652  10.527 -0.1741  0.1828  0.0492
  477DPPI    C3 7477  16.309  12.946  10.508  0.1164 -0.0852 -0.0465
  477DPPI   PO4 7478  16.222  12.561  10.008 -0.0934 -0.1287 -0.0893
  477DPPI   GL1 7479  16.006  12.501   9.630  0.1942  0.3134  0.0641
  477DPPI   GL2 7480  15.658  12.303   9.659 -0.1169 -0.0843  0.0634
  477DPPI   C1A 7481  15.969  12.444   9.205  0.4744  0.0685 -0.0370
  477DPPI   C2A 7482  15.897  12.431   8.759 -0.0584  0.0940  0.2672
  477DPPI   C3A 7483  15.627  12.547   8.344  0.2002  0.1699  0.2295
  477DPPI   C4A 7484  15.733  12.365   7.941  0.3162 -0.0675  0.1138
  477DPPI   C1B 7485  15.464  12.230   9.247  0.1839 -0.0434 -0.0759
  477DPPI   C2B 7486  15.380  12.229   8.800 -0.0751  0.0713  0.1461
  477DPPI   C3B 7487  15.271  12.253   8.400 -0.0799 -0.0760  0.0026
  477DPPI   C4B 7488  15.223  12.462   7.944 -0.1527 -0.1201 -0.1443
  478DPPI    C1 7489   7.993   6.419  11.250  0.1331  0.1131  0.0307
  478DPPI    C2 7490   8.256   6.673  11.412  0.0358  0.0943  0.2206
  478DPPI    C3 7491   7.921   6.579  11.610 -0.0490  0.0128  0.0401
  478DPPI   PO4 7492   8.033   6.517  10.949  0.2481  0.1096 -0.0749
  478DPPI   GL1 7493   8.125   6.272  10.559  0.1365 -0.0737  0.4240
  478DPPI   GL2 7494   7.864   6.031  10.698 -0.3513 -0.0112  0.1082
  478DPPI   C1A 7495   8.108   6.295  10.130  0.2900  0.0774  0.2611
  478DPPI   C2A 7496   8.160   6.357   9.628 -0.0971 -0.1316  0.2142
  478DPPI   C3A 7497   8.230   6.404   9.230 -0.2723  0.0068 -0.0712
  478DPPI   C4A 7498   8.379   6.500   8.849  0.0010 -0.1194 -0.1070
  478DPPI   C1B 7499   7.759   6.017  10.288  0.0688 -0.2954  0.0114
  478DPPI   C2B 7500   7.808   6.092   9.801  0.1679 -0.2128 -0.0846
  478DPPI   C3B 7501   7.830   6.064   9.387  0.0626  0.0819  0.0939
  478DPPI   C4B 7502   7.788   6.182   8.961 -0.0700 -0.1451  0.1459
  479DPPI    C1 7503   7.264  14.784  11.363  0.0033  0.0060 -0.0867
  479DPPI    C2 7504   7.467  15.110  11.473 -0.1954  0.1049 -0.0079
  479DPPI    C3 7505   7.158  14.983  11.693 -0.0448 -0.2076  0.0286
  479DPPI   PO4 7506   7.265  14.706  11.076  0.1895  0.3115 -0.0969
  479DPPI   GL1 7507   7.311  14.801  10.642 -0.1681 -0.0215  0.0526
  479DPPI   GL2 7508   7.021  14.934  10.564  0.2535  0.1328  0.1033
  479DPPI   C1A 7509   7.463  14.841  10.240 -0.0307  0.1242 -0.0188
  479DPPI   C2A 7510   7.350  14.806   9.754  0.0707 -0.0377  0.0345
  479DPPI   C3A 7511   7.433  14.849   9.281 -0.1283 -0.1265 -0.2826
  479DPPI   C4A 7512   7.541  14.947   8.877 -0.2280 -0.1726 -0.1476
  479DPPI   C1B 7513   6.875  14.949  10.061  0.0135  0.2699  0.1642
  479DPPI   C2B 7514   6.831  14.991   9.684 -0.0605  0.0381  0.1959
  479DPPI   C3B 7515   6.894  14.894   9.257  0.0244  0.0371  0.0548
  479DPPI   C4B 7516   6.991  15.008   8.842  0.0974  0.1905 -0.0012
  480DPPI    C1 7517   3.696   7.282  10.736  0.0821  0.1877  0.0352
  480DPPI    C2 7518   3.419   6.994  10.717  0.0822  0.1935 -0.0529
  480DPPI    C3 7519   3.730   6.955  10.965  0.0340  0.1596  0.0025
  480DPPI   PO4 7520   3.763   7.398  10.499  0.1037  0.0480  0.0175
  480DPPI   GL1 7521   3.870   7.370  10.068  0.1894 -0.0518 -0.0980
  480DPPI   GL2 7522   4.173   7.468  10.089 -0.3314 -0.1983 -0.2609
  480DPPI   C1A 7523   3.595   7.284   9.782 -0.1041 -0.0413  0.1493
  480DPPI   C2A 7524   3.700   7.137   9.250  0.1084  0.1725 -0.3087
  480DPPI   C3A 7525   3.709   7.224   8.839  0.2351 -0.1910 -0.1477
  480DPPI   C4A 7526   3.992   7.329   8.559 -0.4273  0.1735 -0.0872
  480DPPI   C1B 7527   4.173   7.182   9.740  0.3484 -0.0563 -0.1079
  480DPPI   C2B 7528   4.205   7.146   9.275  0.2926  0.1495  0.4060
  480DPPI   C3B 7529   4.449   7.109   8.808  0.0678  0.0937 -0.1657
  480DPPI   C4B 7530   4.502   7.288   8.409 -0.1707  0.1711  0.0074
  481DPPI    C1 7531   4.616  10.731  10.592 -0.0977  0.0917 -0.1089
  481DPPI    C2 7532   4.633  10.387  10.794  0.1617  0.2040  0.0662
  481DPPI    C3 7533   4.289  10.591  10.775 -0.0155 -0.1033 -0.1095
  481DPPI   PO4 7534   4.843  10.623  10.341 -0.0404 -0.2118 -0.1996
  481DPPI   GL1 7535   4.866  10.260  10.030 -0.0716  0.0543  0.2014
  481DPPI   GL2 7536   4.563  10.105   9.877 -0.0703  0.1033 -0.3047
  481DPPI   C1A 7537   4.945  10.420   9.699  0.2494  0.2333 -0.1249
  481DPPI   C2A 7538   4.996  10.421   9.227  0.0061  0.3367  0.0492
  481DPPI   C3A 7539   5.071  10.425   8.765 -0.0488  0.2615  0.1447
  481DPPI   C4A 7540   5.165  10.318   8.272 -0.0969  0.3972 -0.1446
  481DPPI   C1B 7541   4.590  10.144   9.422 -0.2495  0.0588  0.0434
  481DPPI   C2B 7542   4.701  10.041   9.014  0.0347 -0.2264  0.1352
  481DPPI   C3B 7543   4.859   9.989   8.522 -0.1070  0.1679  0.1050
  481DPPI   C4B 7544   4.975   9.895   8.102 -0.1619 -0.0679  0.0780
  482DPPI    C1 7545  16.040   7.495  10.649  0.0501  0.1964 -0.0069
  482DPPI    C2 7546  16.366   7.700  10.759  0.0062  0.2609  0.0037
  482DPPI    C3 7547  16.381   7.454  10.444  0.1271  0.0917  0.1396
  482DPPI   PO4 7548  15.868   7.683  10.582  0.1228 -0.1565 -0.1456
  482DPPI   GL1 7549  15.747   7.713  10.175 -0.0971  0.0839  0.1097
  482DPPI   GL2 7550  15.915   7.508  10.077 -0.1112  0.0120  0.0595
  482DPPI   C1A 7551  15.430   7.812   9.898 -0.0636  0.0868 -0.0197
  482DPPI   C2A 7552  15.391   7.785   9.469 -0.0517 -0.0628  0.2346
  482DPPI   C3A 7553  15.326   7.800   9.098  0.0348  0.2344 -0.0573
  482DPPI   C4A 7554  15.409   7.752   8.718 -0.1302 -0.3578  0.0722
  482DPPI   C1B 7555  15.878   7.636   9.601  0.2387  0.2043  0.2201
  482DPPI   C2B 7556  15.905   7.623   9.149  0.0718 -0.3330  0.0338
  482DPPI   C3B 7557  15.931   7.696   8.686 -0.0520  0.0677 -0.1036
  482DPPI   C4B 7558  15.696   7.841   8.299  0.3391 -0.2797 -0.1787
  483DPPI    C1 7559   6.506  16.682  10.701 -0.0795  0.0710 -0.1016
  483DPPI    C2 7560   6.395  16.719  11.084  0.0638  0.1630 -0.0683
  483DPPI    C3 7561   6.724  16.905  10.952  0.1781 -0.1037 -0.1668
  483DPPI   PO4 7562   6.245  16.661  10.575  0.1750  0.1538 -0.1015
  483DPPI   GL1 7563   6.040  16.633  10.206 -0.2967  0.1166  0.2052
  483DPPI   GL2 7564   6.005  16.414  10.155 -0.0311  0.0969  0.0776
  483DPPI   C1A 7565   5.819  16.703   9.821  0.0636 -0.1458  0.1901
  483DPPI   C2A 7566   5.921  16.735   9.386 -0.1031 -0.2818 -0.2438
  483DPPI   C3A 7567   6.082  16.732   8.928 -0.0380  0.4194  0.1190
  483DPPI   C4A 7568   6.157  16.615   8.488  0.0159 -0.1130  0.2258
  483DPPI   C1B 7569   5.963  16.121   9.925  0.0745 -0.0336  0.1389
  483DPPI   C2B 7570   6.033  16.100   9.502 -0.1298 -0.3723  0.0851
  483DPPI   C3B 7571   6.139  16.175   9.108  0.5430  0.1317  0.0634
  483DPPI   C4B 7572   6.266  16.226   8.707 -0.1404  0.1559 -0.2915
  484DPPI    C1 7573  17.578   3.680  10.718  0.0670  0.0253 -0.1584
  484DPPI    C2 7574  17.572   4.071  10.805 -0.0365 -0.0187  0.0377
  484DPPI    C3 7575  17.900   3.854  10.879  0.0025  0.0193 -0.0224
  484DPPI   PO4 7576  17.422   3.671  10.474 -0.0146  0.1414 -0.0203
  484DPPI   GL1 7577  17.495   3.633  10.043  0.1079 -0.1866  0.1142
  484DPPI   GL2 7578  17.580   3.968   9.962 -0.1995 -0.2962  0.0548
  484DPPI   C1A 7579  17.154   3.721   9.760 -0.1777  0.0167  0.0256
  484DPPI   C2A 7580  17.063   3.836   9.311 -0.2654 -0.1821  0.2341
  484DPPI   C3A 7581  17.088   3.861   8.935 -0.2003  0.3367  0.0834
  484DPPI   C4A 7582  16.917   3.928   8.425  0.1181 -0.1466  0.1212
  484DPPI   C1B 7583  17.485   4.164   9.582 -0.2081  0.2378  0.1459
  484DPPI   C2B 7584  17.526   4.192   9.197 -0.0031 -0.1665  0.3172
  484DPPI   C3B 7585  17.360   4.296   8.740 -0.1801 -0.3217 -0.0600
  484DPPI   C4B 7586  17.359   4.227   8.242 -0.1258 -0.0917  0.2699
  485DPPI    C1 7587  12.217   2.564  11.336  0.3138 -0.0594 -0.0318
  485DPPI    C2 7588  12.030   2.286  11.554  0.2001  0.1551  0.1482
  485DPPI    C3 7589  12.123   2.639  11.718  0.1577  0.3014 -0.1369
  485DPPI   PO4 7590  12.149   2.616  11.055  0.2468 -0.1347 -0.0634
  485DPPI   GL1 7591  11.996   2.744  10.616 -0.3185  0.1111 -0.1412
  485DPPI   GL2 7592  12.063   2.332  10.647 -0.1376 -0.1600  0.0790
  485DPPI   C1A 7593  11.892   2.836  10.184  0.3182  0.2512 -0.2967
  485DPPI   C2A 7594  11.833   2.916   9.742  0.0092  0.1124 -0.0171
  485DPPI   C3A 7595  11.760   2.913   9.281  0.0511  0.3129  0.1974
  485DPPI   C4A 7596  11.705   2.841   8.810 -0.0628 -0.1725 -0.1412
  485DPPI   C1B 7597  12.123   2.342  10.200  0.0569 -0.3812  0.1661
  485DPPI   C2B 7598  12.010   2.406   9.782 -0.1550  0.2254 -0.0534
  485DPPI   C3B 7599  11.910   2.414   9.357  0.1224 -0.0995 -0.2602
  485DPPI   C4B 7600  11.777   2.358   8.928 -0.0315  0.1382 -0.3204
  486DPPI    C1 7601  14.413   5.388  10.822  0.0294  0.1016  0.0166
  486DPPI    C2 7602  14.184   5.442  11.146 -0.0482  0.0325 -0.0264
  486DPPI    C3 7603  14.532   5.247  11.177 -0.0346  0.0646  0.0235
  486DPPI   PO4 7604  14.176   5.459  10.639  0.0855 -0.0456 -0.3176
  486DPPI   GL1 7605  14.183   5.488  10.249  0.1681  0.0303  0.1291
  486DPPI   GL2 7606  14.053   5.817  10.323  0.0842  0.0199 -0.0223
  486DPPI   C1A 7607  14.097   5.541   9.825 -0.2858 -0.0620  0.0574
  486DPPI   C2A 7608  13.965   5.436   9.392  0.0652  0.0265  0.0503
  486DPPI   C3A 7609  13.934   5.317   8.966  0.0207  0.0427 -0.0070
  486DPPI   C4A 7610  13.910   5.171   8.524 -0.1042 -0.1600 -0.0863
  486DPPI   C1B 7611  14.046   5.969   9.990  0.0401 -0.2049 -0.0980
  486DPPI   C2B 7612  13.956   5.923   9.523  0.1303 -0.0457  0.1353
  486DPPI   C3B 7613  13.919   5.805   9.037 -0.2059 -0.0293  0.1619
  486DPPI   C4B 7614  13.768   5.674   8.694 -0.0160  0.0853 -0.3592
  487DPPI    C1 7615   0.502  12.914   9.970  0.1514 -0.0722  0.0739
  487DPPI    C2 7616   0.622  12.687  10.277 -0.0343 -0.3783 -0.0755
  487DPPI    C3 7617   0.250  12.834  10.270  0.1185  0.0289  0.0736
  487DPPI   PO4 7618   0.632  13.017   9.869 -0.0555  0.0256 -0.0150
  487DPPI   GL1 7619   0.752  13.410   9.672 -0.2128  0.0969 -0.1919
  487DPPI   GL2 7620   0.987  13.507   9.643  0.1386 -0.0044  0.4212
  487DPPI   C1A 7621   0.624  13.338   9.306  0.1427  0.0673 -0.0672
  487DPPI   C2A 7622   0.542  13.326   8.874  0.0581 -0.0826  0.0069
  487DPPI   C3A 7623   0.538  13.232   8.407 -0.1175 -0.3186 -0.0218
  487DPPI   C4A 7624   0.656  13.037   8.021  0.1214  0.1478  0.2614
  487DPPI   C1B 7625   1.218  13.378   9.309  0.3496 -0.1428 -0.2542
  487DPPI   C2B 7626   1.258  13.521   8.904  0.1318 -0.0124 -0.1002
  487DPPI   C3B 7627   1.360  13.637   8.496  0.0358  0.0794  0.1045
  487DPPI   C4B 7628   1.436  13.695   8.098  0.0908 -0.2670  0.0957
  488DPPI    C1 7629   3.297   9.481  10.244  0.1301 -0.1971  0.1895
  488DPPI    C2 7630   3.157   9.237   9.960 -0.0294 -0.0042  0.0994
  488DPPI    C3 7631   3.479   9.132  10.173  0.0055 -0.2151 -0.0534
  488DPPI   PO4 7632   3.305   9.756  10.142  0.0793  0.0991  0.0316
  488DPPI   GL1 7633   3.130   9.767   9.767  0.0572  0.1157 -0.1483
  488DPPI   GL2 7634   2.956   9.895   9.638 -0.0974  0.0775 -0.1088
  488DPPI   C1A 7635   3.306   9.631   9.312 -0.0123 -0.1740 -0.1512
  488DPPI   C2A 7636   3.374   9.583   8.862 -0.2583  0.1457 -0.0544
  488DPPI   C3A 7637   3.372   9.522   8.512  0.1470  0.2367  0.0988
  488DPPI   C4A 7638   3.707   9.375   8.231  0.1718  0.1665 -0.0575
  488DPPI   C1B 7639   2.853   9.622   9.289  0.1630 -0.2638  0.0443
  488DPPI   C2B 7640   2.856   9.588   8.921  0.1200  0.0115 -0.0429
  488DPPI   C3B 7641   2.906   9.633   8.476 -0.0818  0.0919  0.0232
  488DPPI   C4B 7642   3.032  10.002   8.184 -0.1473 -0.1106 -0.1976
  489DPPI    C1 7643   8.848  10.580  11.204 -0.0972 -0.1299 -0.3104
  489DPPI    C2 7644   8.694  10.948  11.239 -0.0164 -0.1205 -0.0268
  489DPPI    C3 7645   8.931  10.802  11.526  0.0683 -0.3408 -0.2052
  489DPPI   PO4 7646   8.609  10.485  10.987 -0.1134  0.0788 -0.1076
  489DPPI   GL1 7647   8.606  10.678  10.553 -0.0614  0.0073 -0.0915
  489DPPI   GL2 7648   8.682  10.357  10.458 -0.0347 -0.2605  0.2163
  489DPPI   C1A 7649   8.635  10.701  10.099 -0.0858 -0.1926 -0.1891
  489DPPI   C2A 7650   8.702  10.724   9.679 -0.0203  0.1677  0.2975
  489DPPI   C3A 7651   8.761  10.595   9.276 -0.1113  0.2664  0.0144
  489DPPI   C4A 7652   8.767  10.553   8.878 -0.1495 -0.2959 -0.1657
  489DPPI   C1B 7653   8.765  10.195  10.111  0.0130  0.1140  0.3470
  489DPPI   C2B 7654   8.778  10.159   9.650 -0.1485  0.1831 -0.1756
  489DPPI   C3B 7655   8.721  10.092   9.280 -0.1207 -0.1035 -0.4470
  489DPPI   C4B 7656   8.862   9.984   8.889  0.1393 -0.0447 -0.0489
  490DPPI    C1 7657   1.809  16.736  10.554 -0.0362  0.0582 -0.0686
  490DPPI    C2 7658   1.519  16.856  10.803 -0.0270  0.0400 -0.0490
  490DPPI    C3 7659   1.807  16.611  10.933  0.0941  0.1951 -0.0216
  490DPPI   PO4 7660   1.715  16.720  10.249 -0.0539 -0.0174  0.0843
  490DPPI   GL1 7661   1.900  16.632   9.968  0.2583  0.0150 -0.0183
  490DPPI   GL2 7662   2.076  16.432  10.047  0.1090  0.2034 -0.2197
  490DPPI   C1A 7663   1.859  16.695   9.507  0.0006  0.0545  0.4392
  490DPPI   C2A 7664   1.869  16.730   8.979 -0.0407 -0.0538  0.2146
  490DPPI   C3A 7665   1.888  16.708   8.480 -0.1893 -0.2513 -0.3165
  490DPPI   C4A 7666   1.820  16.593   8.026 -0.3769 -0.1029  0.1253
  490DPPI   C1B 7667   2.372  16.380   9.720  0.3127  0.1435 -0.1452
  490DPPI   C2B 7668   2.685  16.439   9.369 -0.3533 -0.6011 -0.3881
  490DPPI   C3B 7669   2.838  16.395   8.932  0.0309 -0.0840 -0.1308
  490DPPI   C4B 7670   2.774  16.553   8.530 -0.1189 -0.0234  0.0233
  491DPPI    C1 7671  12.290  15.378  11.186 -0.3124 -0.0900  0.2754
  491DPPI    C2 7672  12.256  15.776  11.164 -0.1951 -0.0893  0.0881
  491DPPI    C3 7673  12.269  15.596  11.521  0.1151  0.1075  0.1795
  491DPPI   PO4 7674  12.364  15.375  10.901  0.1196  0.2726  0.1283
  491DPPI   GL1 7675  12.276  15.099  10.567 -0.1561 -0.2636 -0.0172
  491DPPI   GL2 7676  12.052  15.349  10.550  0.0465  0.1580 -0.1542
  491DPPI   C1A 7677  12.520  15.148  10.198  0.0351 -0.1520  0.1935
  491DPPI   C2A 7678  12.452  15.149   9.771 -0.0692 -0.0416  0.0485
  491DPPI   C3A 7679  12.343  15.135   9.393  0.1094 -0.0037  0.1489
  491DPPI   C4A 7680  12.387  15.066   8.942 -0.2880  0.0456 -0.5137
  491DPPI   C1B 7681  12.039  15.238  10.136 -0.2557  0.0412  0.0825
  491DPPI   C2B 7682  11.990  15.312   9.776  0.0361 -0.0643  0.0720
  491DPPI   C3B 7683  11.862  15.300   9.228  0.0810  0.1409 -0.1972
  491DPPI   C4B 7684  11.873  15.269   8.749 -0.1446 -0.2540  0.0511
  492DPPI    C1 7685  16.760   6.488  10.638  0.1561  0.1750  0.0014
  492DPPI    C2 7686  16.625   6.766  10.892  0.1951  0.0552  0.1544
  492DPPI    C3 7687  17.012   6.665  10.893  0.1918  0.0401  0.0606
  492DPPI   PO4 7688  16.675   6.531  10.463  0.0433 -0.2413  0.3322
  492DPPI   GL1 7689  16.753   6.716  10.054 -0.2440  0.0435 -0.0435
  492DPPI   GL2 7690  16.745   6.430   9.917 -0.0179 -0.2135  0.0901
  492DPPI   C1A 7691  16.544   6.963   9.777  0.1046 -0.1820 -0.4173
  492DPPI   C2A 7692  16.425   7.017   9.407  0.2040  0.2502 -0.3247
  492DPPI   C3A 7693  16.404   7.023   8.994  0.0411  0.0847 -0.0933
  492DPPI   C4A 7694  16.483   7.126   8.448 -0.3562 -0.2656 -0.4605
  492DPPI   C1B 7695  16.701   6.404   9.562 -0.0413  0.0398 -0.2366
  492DPPI   C2B 7696  16.498   6.445   9.259  0.0996  0.1282  0.1045
  492DPPI   C3B 7697  16.556   6.450   8.902  0.1053 -0.0215  0.0824
  492DPPI   C4B 7698  16.544   6.570   8.442  0.1192  0.0263 -0.0774
  493DPPI    C1 7699   4.379   5.985  10.817  0.2242 -0.1928  0.0437
  493DPPI    C2 7700   4.392   6.271  10.538  0.0084 -0.2789 -0.0571
  493DPPI    C3 7701   4.570   6.328  10.891  0.0108 -0.0412 -0.0948
  493DPPI   PO4 7702   4.436   5.757  10.593 -0.2339 -0.0010 -0.0739
  493DPPI   GL1 7703   4.463   5.900  10.176  0.0989 -0.0089 -0.1022
  493DPPI   GL2 7704   4.242   6.080  10.091  0.3910 -0.1693  0.1550
  493DPPI   C1A 7705   4.639   5.665   9.930 -0.1086  0.1183  0.0954
  493DPPI   C2A 7706   4.736   5.637   9.518  0.0982  0.0757  0.0320
  493DPPI   C3A 7707   4.751   5.618   9.017  0.2082 -0.1235  0.1457
  493DPPI   C4A 7708   4.734   5.546   8.595 -0.0029 -0.3213 -0.1541
  493DPPI   C1B 7709   4.496   6.053   9.673  0.1128  0.1060  0.2159
  493DPPI   C2B 7710   4.595   6.022   9.217 -0.0700 -0.3781  0.4036
  493DPPI   C3B 7711   4.743   6.046   8.764 -0.1221 -0.0749 -0.0034
  493DPPI   C4B 7712   5.198   6.027   8.623  0.4349  0.4567  0.0636
  494DPPI    C1 7713   7.842  15.447  11.271 -0.0238 -0.1076  0.2092
  494DPPI    C2 7714   7.517  15.597  11.092  0.1053 -0.1512 -0.0682
  494DPPI    C3 7715   7.566  15.638  11.487 -0.1069  0.0879 -0.0646
  494DPPI   PO4 7716   7.975  15.435  11.110  0.1143  0.1376 -0.0610
  494DPPI   GL1 7717   7.896  15.399  10.721  0.0699  0.0504 -0.2180
  494DPPI   GL2 7718   8.184  15.384  10.600  0.0097  0.0092  0.1659
  494DPPI   C1A 7719   7.760  15.349  10.237 -0.0697 -0.0531 -0.0837
  494DPPI   C2A 7720   7.706  15.107   9.850 -0.1448  0.1172  0.0550
  494DPPI   C3A 7721   7.770  15.201   9.431 -0.0475  0.0233 -0.0744
  494DPPI   C4A 7722   7.874  15.355   9.018  0.1309 -0.2890 -0.0152
  494DPPI   C1B 7723   8.207  15.431  10.176  0.4858 -0.2754 -0.1502
  494DPPI   C2B 7724   8.119  15.421   9.729  0.1302  0.3014  0.1534
  494DPPI   C3B 7725   8.189  15.557   9.336  0.1066 -0.0639  0.0786
  494DPPI   C4B 7726   8.259  15.620   8.894  0.0501  0.3116 -0.0870
  495DPPI    C1 7727   4.860  14.588  10.981 -0.0569  0.0226  0.0705
  495DPPI    C2 7728   4.723  14.709  11.337 -0.0908  0.0471  0.0492
  495DPPI    C3 7729   4.597  14.362  11.181 -0.2152  0.1229 -0.0216
  495DPPI   PO4 7730   4.809  14.753  10.773  0.0664 -0.3066  0.0561
  495DPPI   GL1 7731   4.855  14.740  10.350  0.0722  0.3383  0.0474
  495DPPI   GL2 7732   5.131  14.505  10.330  0.1541  0.0182 -0.1372
  495DPPI   C1A 7733   4.943  14.732   9.873 -0.0763  0.1979 -0.0106
  495DPPI   C2A 7734   5.049  14.675   9.426 -0.0225  0.0759 -0.0127
  495DPPI   C3A 7735   5.070  14.751   8.977  0.0152  0.2482 -0.2573
  495DPPI   C4A 7736   5.127  14.757   8.551 -0.0464 -0.1310  0.0256
  495DPPI   C1B 7737   5.133  14.272   9.952 -0.5238  0.3133  0.1121
  495DPPI   C2B 7738   5.163  14.125   9.567 -0.1392  0.0097 -0.1684
  495DPPI   C3B 7739   5.138  14.173   9.073  0.1005 -0.0054 -0.2478
  495DPPI   C4B 7740   5.230  14.267   8.737  0.0024 -0.0603  0.1288
  496DPPI    C1 7741   0.864   0.819  10.802  0.0362 -0.0050  0.1164
  496DPPI    C2 7742   1.194   0.643  10.942  0.2015  0.3486  0.1834
  496DPPI    C3 7743   0.925   0.794  11.196 -0.0299  0.0379  0.1296
  496DPPI   PO4 7744   0.873   0.800  10.517 -0.0228 -0.2378 -0.2682
  496DPPI   GL1 7745   0.954   0.621  10.100  0.0405 -0.1543  0.1200
  496DPPI   GL2 7746   1.241   0.709   9.950 -0.2270  0.1203  0.1264
  496DPPI   C1A 7747   0.931   0.244   9.875 -0.2219  0.1484 -0.3633
  496DPPI   C2A 7748   0.853   0.155   9.450 -0.0625  0.1484  0.1042
  496DPPI   C3A 7749   0.973   0.177   8.977  0.2717  0.0781 -0.0438
  496DPPI   C4A 7750   1.172   0.237   8.485  0.2828 -0.0238 -0.1567
  496DPPI   C1B 7751   1.105   0.636   9.532  0.4417 -0.0757  0.0669
  496DPPI   C2B 7752   1.175   0.672   9.093  0.1921  0.1111 -0.1196
  496DPPI   C3B 7753   1.317   0.720   8.676 -0.1284  0.0960  0.4089
  496DPPI   C4B 7754   1.351   0.659   8.232 -0.0430  0.0544  0.4597
  497DPPI    C1 7755  13.625  15.999  10.748 -0.1503 -0.2196 -0.0130
  497DPPI    C2 7756  13.631  15.601  10.710 -0.0375 -0.2361  0.1637
  497DPPI    C3 7757  13.778  15.773  11.040 -0.0658 -0.0461  0.0792
  497DPPI   PO4 7758  13.682  16.096  10.516  0.2363 -0.0132 -0.0508
  497DPPI   GL1 7759  13.794  16.175  10.116  0.3166  0.2187 -0.2753
  497DPPI   GL2 7760  13.846  16.532  10.229 -0.1107  0.0086 -0.4075
  497DPPI   C1A 7761  13.803  16.078   9.643  0.2951  0.1012  0.2034
  497DPPI   C2A 7762  13.634  16.073   9.217 -0.0353 -0.0297  0.3741
  497DPPI   C3A 7763  13.549  16.284   8.826 -0.3023  0.1781 -0.0626
  497DPPI   C4A 7764  13.519  16.330   8.430  0.3897 -0.2942  0.3609
  497DPPI   C1B 7765  13.713  16.572   9.793 -0.4979 -0.0538 -0.0168
  497DPPI   C2B 7766  13.627  16.600   9.330 -0.0027 -0.1567  0.0924
  497DPPI   C3B 7767  13.514  16.755   9.010  0.1708 -0.0180 -0.2625
  497DPPI   C4B 7768  13.479  16.812   8.599 -0.1825 -0.2895 -0.2247
  498DPPI    C1 7769  13.562  17.173  11.110 -0.0505 -0.3688 -0.1539
  498DPPI    C2 7770  13.276  17.361  10.904  0.1943  0.0193 -0.1493
  498DPPI    C3 7771  13.177  17.109  11.198 -0.1444 -0.0581 -0.3242
  498DPPI   PO4 7772  13.649  17.035  10.890  0.0466  0.1036 -0.0788
  498DPPI   GL1 7773  13.771  17.055  10.398  0.1252  0.0633 -0.0554
  498DPPI   GL2 7774  13.383  17.103  10.404  0.0306  0.0280  0.1647
  498DPPI   C1A 7775  13.735  17.010   9.988 -0.0224 -0.0464  0.3108
  498DPPI   C2A 7776  13.555  17.076   9.591  0.0586 -0.0359  0.0108
  498DPPI   C3A 7777  13.436  17.192   9.206  0.0604 -0.0278 -0.1640
  498DPPI   C4A 7778  13.398  17.308   8.714  0.3355 -0.0040 -0.0858
  498DPPI   C1B 7779  13.228  17.229   9.999 -0.2223 -0.0014  0.0061
  498DPPI   C2B 7780  13.084  17.232   9.561 -0.0503  0.0848  0.1454
  498DPPI   C3B 7781  12.942  17.414   9.155 -0.2669 -0.0320 -0.0982
  498DPPI   C4B 7782  12.912  17.539   8.676  0.2495  0.3247  0.0426
  499DPPI    C1 7783  13.362  13.759  10.937  0.0800 -0.0320  0.1321
  499DPPI    C2 7784  13.281  13.818  11.324  0.0777  0.1136  0.1100
  499DPPI    C3 7785  13.583  13.579  11.217  0.0049 -0.0196  0.1998
  499DPPI   PO4 7786  13.155  13.715  10.724 -0.3584 -0.1491 -0.1024
  499DPPI   GL1 7787  13.417  13.633  10.370 -0.0335  0.1049 -0.1292
  499DPPI   GL2 7788  13.496  13.387  10.250  0.0332  0.0021 -0.0914
  499DPPI   C1A 7789  13.293  13.788   9.919 -0.0417  0.0469 -0.2796
  499DPPI   C2A 7790  13.181  13.737   9.455 -0.0464  0.0992  0.1457
  499DPPI   C3A 7791  13.196  13.806   9.046  0.0667  0.2192 -0.1489
  499DPPI   C4A 7792  13.099  13.809   8.601  0.0188 -0.3258 -0.0404
  499DPPI   C1B 7793  13.386  13.352   9.791  0.0555  0.5147 -0.0239
  499DPPI   C2B 7794  13.387  13.289   9.385  0.2750  0.0874 -0.0264
  499DPPI   C3B 7795  13.219  13.260   9.032 -0.2817 -0.1135  0.1309
  499DPPI   C4B 7796  13.125  13.288   8.591 -0.1815 -0.1401  0.0587
  500DPPI    C1 7797  15.118  15.088  10.863 -0.0541 -0.0445  0.0769
  500DPPI    C2 7798  14.901  14.755  10.816 -0.1753  0.0554 -0.0796
  500DPPI    C3 7799  15.056  14.843  11.174  0.0336 -0.2751 -0.0841
  500DPPI   PO4 7800  15.012  15.303  10.736  0.2866  0.2969 -0.0855
  500DPPI   GL1 7801  14.812  15.555  10.419  0.1271 -0.0763  0.2314
  500DPPI   GL2 7802  14.535  15.511  10.623  0.2073 -0.2529  0.0088
  500DPPI   C1A 7803  14.766  15.725   9.931 -0.1943  0.2077  0.0008
  500DPPI   C2A 7804  14.749  15.709   9.546  0.1430 -0.1439 -0.0838
  500DPPI   C3A 7805  14.685  15.794   9.059  0.0695  0.0228 -0.0403
  500DPPI   C4A 7806  14.653  15.767   8.686  0.0265 -0.0643 -0.4433
  500DPPI   C1B 7807  14.445  15.372  10.209 -0.0756 -0.0615 -0.0595
  500DPPI   C2B 7808  14.361  15.381   9.770 -0.1907 -0.0304 -0.2825
  500DPPI   C3B 7809  14.203  15.382   9.335  0.0184 -0.1657  0.0102
  500DPPI   C4B 7810  14.267  15.531   8.928 -0.1562  0.0230 -0.0127
  501DPPI    C1 7811  13.385   2.543  11.454  0.1425 -0.0457  0.0027
  501DPPI    C2 7812  13.642   2.386  11.191  0.1508  0.1665 -0.1190
  501DPPI    C3 7813  13.771   2.505  11.550  0.1513 -0.0656 -0.0401
  501DPPI   PO4 7814  13.212   2.682  11.236 -0.1355  0.3836 -0.0292
  501DPPI   GL1 7815  13.303   2.651  10.865  0.0042 -0.1492  0.1503
  501DPPI   GL2 7816  13.489   2.526  10.626 -0.1228 -0.0991  0.0193
  501DPPI   C1A 7817  13.035   2.631  10.442 -0.0941 -0.1725  0.2185
  501DPPI   C2A 7818  12.855   2.608  10.049 -0.4237  0.1038 -0.3302
  501DPPI   C3A 7819  12.671   2.628   9.596 -0.0563 -0.0189 -0.2421
  501DPPI   C4A 7820  12.676   2.599   9.229 -0.1387  0.1797 -0.2300
  501DPPI   C1B 7821  13.387   2.381  10.186  0.0118  0.0839 -0.2336
  501DPPI   C2B 7822  13.254   2.445   9.755 -0.0072  0.1068  0.1469
  501DPPI   C3B 7823  13.217   2.407   9.240 -0.1989  0.1521  0.2747
  501DPPI   C4B 7824  13.262   2.432   8.875 -0.0525  0.0616  0.3121
  502DPPI    C1 7825  11.575  13.113  11.375  0.0481 -0.1659 -0.0405
  502DPPI    C2 7826  11.429  12.885  11.670  0.2226  0.0338  0.2048
  502DPPI    C3 7827  11.803  12.828  11.539  0.1257 -0.0938 -0.0218
  502DPPI   PO4 7828  11.436  13.180  11.158  0.0409  0.1738  0.0733
  502DPPI   GL1 7829  11.461  13.198  10.733  0.0141  0.3282  0.2207
  502DPPI   GL2 7830  11.512  13.520  10.556  0.0640  0.0181  0.1869
  502DPPI   C1A 7831  11.245  13.148  10.395 -0.0344  0.0084  0.0096
  502DPPI   C2A 7832  11.208  13.131   9.941 -0.0793  0.2373  0.0881
  502DPPI   C3A 7833  11.162  13.204   9.484 -0.0705  0.2266 -0.1222
  502DPPI   C4A 7834  10.967  13.131   9.106 -0.1090 -0.1199 -0.0585
  502DPPI   C1B 7835  11.474  13.564  10.048 -0.1578 -0.0479 -0.1723
  502DPPI   C2B 7836  11.481  13.538   9.668 -0.0607 -0.1397  0.1779
  502DPPI   C3B 7837  11.361  13.577   9.297 -0.0345 -0.1660  0.0660
  502DPPI   C4B 7838  11.260  13.455   8.937 -0.2667 -0.0674  0.1258
  503DPPI    C1 7839   8.673   6.451  11.261  0.0336  0.0265 -0.1212
  503DPPI    C2 7840   8.494   6.125  11.408  0.1682 -0.1152 -0.2682
  503DPPI    C3 7841   8.854   6.235  11.545 -0.0111  0.1504  0.0031
  503DPPI   PO4 7842   8.577   6.373  10.954 -0.1213 -0.0041 -0.1073
  503DPPI   GL1 7843   8.750   6.269  10.623 -0.1296 -0.0393 -0.4681
  503DPPI   GL2 7844   8.790   5.894  10.624  0.0731 -0.2093  0.2690
  503DPPI   C1A 7845   8.596   6.231  10.250 -0.0796  0.0248 -0.0265
  503DPPI   C2A 7846   8.679   6.228   9.867 -0.1903  0.0442 -0.0386
  503DPPI   C3A 7847   8.750   6.192   9.492  0.0389 -0.2195  0.0576
  503DPPI   C4A 7848   8.802   6.259   9.160  0.0090 -0.2237 -0.2931
  503DPPI   C1B 7849   8.720   5.718  10.168  0.0617  0.0209 -0.0883
  503DPPI   C2B 7850   8.790   5.749   9.794  0.1220  0.1446  0.1869
  503DPPI   C3B 7851   8.916   5.768   9.337  0.1518 -0.3033  0.1295
  503DPPI   C4B 7852   8.922   5.743   8.946  0.0268  0.1804 -0.0112
  504DPPI    C1 7853   5.835  10.495  10.658  0.0982  0.4062  0.0555
  504DPPI    C2 7854   5.803  10.232  10.957 -0.2164  0.2968 -0.0708
  504DPPI    C3 7855   6.160  10.385  10.864 -0.0565  0.0438  0.1133
  504DPPI   PO4 7856   5.806  10.450  10.438 -0.1572  0.1699  0.0309
  504DPPI   GL1 7857   5.840  10.646  10.035  0.2129 -0.3825  0.0756
  504DPPI   GL2 7858   5.998  10.985  10.091  0.0851  0.1616  0.1411
  504DPPI   C1A 7859   5.914  10.548   9.647  0.0911 -0.0969  0.0383
  504DPPI   C2A 7860   5.915  10.406   9.224  0.0373  0.1884 -0.0686
  504DPPI   C3A 7861   5.955  10.409   8.834 -0.0215 -0.2550  0.0335
  504DPPI   C4A 7862   5.895  10.552   8.388  0.0130 -0.1276 -0.1630
  504DPPI   C1B 7863   6.229  10.982   9.768 -0.2853  0.0105  0.1846
  504DPPI   C2B 7864   6.304  10.940   9.380  0.1163  0.0862  0.1518
  504DPPI   C3B 7865   6.315  10.847   8.888  0.2167  0.3717 -0.0999
  504DPPI   C4B 7866   6.193  11.013   8.528  0.1487  0.0568 -0.0892
  505DPPI    C1 7867  17.412   0.887  10.607  0.0558  0.1293  0.0090
  505DPPI    C2 7868  17.122   0.980  10.865 -0.0224  0.0939 -0.0660
  505DPPI    C3 7869  17.504   1.001  10.979 -0.0673 -0.3134  0.1821
  505DPPI   PO4 7870  17.376   1.008  10.392 -0.0795 -0.0402  0.1941
  505DPPI   GL1 7871  17.477   0.967   9.972 -0.3521 -0.0282  0.2129
  505DPPI   GL2 7872  17.313   1.229   9.833 -0.2809  0.1415  0.1675
  505DPPI   C1A 7873  17.536   0.998   9.454  0.0693 -0.0590 -0.2801
  505DPPI   C2A 7874  17.575   1.027   9.068  0.3125 -0.0398 -0.0337
  505DPPI   C3A 7875  17.328   1.114   8.675  0.0236 -0.1888 -0.1986
  505DPPI   C4A 7876  17.082   0.890   8.340  0.2081 -0.1778 -0.1381
  505DPPI   C1B 7877  17.173   1.330   9.417  0.0236 -0.1594  0.0034
  505DPPI   C2B 7878  17.089   1.331   9.049  0.2331  0.0737  0.2916
  505DPPI   C3B 7879  16.881   1.391   8.619  0.2511 -0.0986  0.0385
  505DPPI   C4B 7880  16.619   1.514   8.295  0.0210  0.1712  0.1207
  506DPPI    C1 7881   5.534   7.598  11.276 -0.1325  0.0336  0.0762
  506DPPI    C2 7882   5.913   7.590  11.402 -0.0935  0.1304 -0.0330
  506DPPI    C3 7883   5.615   7.614  11.668 -0.0317 -0.1184  0.0626
  506DPPI   PO4 7884   5.572   7.437  11.065  0.2441 -0.1932 -0.0244
  506DPPI   GL1 7885   5.693   7.314  10.704  0.0943 -0.0372 -0.3867
  506DPPI   GL2 7886   5.702   7.629  10.633  0.2446  0.0870 -0.0687
  506DPPI   C1A 7887   5.561   7.218  10.342 -0.2820 -0.0167  0.2567
  506DPPI   C2A 7888   5.688   7.175   9.924  0.1063 -0.0581 -0.0415
  506DPPI   C3A 7889   5.672   7.194   9.461 -0.0573  0.3268  0.0460
  506DPPI   C4A 7890   5.769   7.174   9.057  0.0309 -0.0842 -0.0072
  506DPPI   C1B 7891   5.859   7.591  10.132  0.0535  0.1962 -0.3641
  506DPPI   C2B 7892   6.091   7.659   9.772 -0.0235  0.0018 -0.0872
  506DPPI   C3B 7893   6.086   7.572   9.431 -0.1643  0.1912 -0.1414
  506DPPI   C4B 7894   6.057   7.546   9.013  0.0906 -0.0364  0.2228
  507DPPI    C1 7895   4.959   6.623  11.064 -0.0794  0.0571  0.1808
  507DPPI    C2 7896   4.814   6.964  11.215 -0.0374  0.0751  0.1806
  507DPPI    C3 7897   4.654   6.614  11.322 -0.1173  0.0982  0.1378
  507DPPI   PO4 7898   4.931   6.678  10.835  0.3299 -0.0636 -0.2913
  507DPPI   GL1 7899   4.876   6.875  10.368 -0.0162  0.1379  0.0002
  507DPPI   GL2 7900   5.189   6.988  10.499  0.0374 -0.0181  0.0151
  507DPPI   C1A 7901   4.917   6.684   9.958  0.1561 -0.1409 -0.0876
  507DPPI   C2A 7902   4.766   6.525   9.633 -0.1316 -0.0271  0.0231
  507DPPI   C3A 7903   4.949   6.487   9.217 -0.0133 -0.0200  0.0175
  507DPPI   C4A 7904   5.012   6.476   8.746 -0.3005  0.1143 -0.0452
  507DPPI   C1B 7905   5.328   6.855  10.008 -0.1047 -0.1870  0.0649
  507DPPI   C2B 7906   5.239   6.786   9.509 -0.2584 -0.1521 -0.0194
  507DPPI   C3B 7907   5.371   6.892   9.161 -0.0001 -0.0539 -0.1502
  507DPPI   C4B 7908   5.423   6.933   8.733 -0.2195 -0.1898  0.1997
  508DPPI    C1 7909   5.275  12.253  11.096 -0.1896  0.1404 -0.1703
  508DPPI    C2 7910   5.314  11.858  11.047  0.1107  0.1663 -0.1632
  508DPPI    C3 7911   5.335  12.016  11.413  0.1066  0.2011 -0.1778
  508DPPI   PO4 7912   4.963  12.372  10.929  0.1951  0.0820  0.0442
  508DPPI   GL1 7913   4.845  12.371  10.390 -0.3698  0.1160  0.5896
  508DPPI   GL2 7914   4.622  12.588  10.203 -0.0073 -0.0437 -0.1403
  508DPPI   C1A 7915   5.042  12.347   9.981 -0.0525  0.1881  0.5120
  508DPPI   C2A 7916   5.089  12.330   9.494 -0.3018  0.0600 -0.1761
  508DPPI   C3A 7917   5.056  12.254   9.069  0.2150  0.2064 -0.1049
  508DPPI   C4A 7918   5.184  12.350   8.691  0.3483  0.0817  0.0131
  508DPPI   C1B 7919   4.632  12.440   9.718 -0.0867  0.0229  0.0418
  508DPPI   C2B 7920   4.604  12.500   9.220 -0.0533  0.0640 -0.0652
  508DPPI   C3B 7921   4.601  12.522   8.787 -0.2781  0.0684  0.2327
  508DPPI   C4B 7922   4.519  12.653   8.475  0.0052  0.1080 -0.0167
  509DPPI    C1 7923   6.080  15.475  10.872  0.0686  0.2411 -0.0493
  509DPPI    C2 7924   6.070  15.349  11.252  0.0410  0.1862 -0.0683
  509DPPI    C3 7925   5.816  15.632  11.128  0.1734  0.3368  0.0010
  509DPPI   PO4 7926   6.188  15.333  10.716 -0.2391  0.0209  0.0439
  509DPPI   GL1 7927   6.194  15.287  10.308 -0.4681 -0.0436  0.1452
  509DPPI   GL2 7928   6.441  15.124  10.171 -0.1324  0.0729  0.0076
  509DPPI   C1A 7929   6.159  15.593   9.914 -0.0259  0.1394  0.2814
  509DPPI   C2A 7930   6.169  15.599   9.467 -0.0076  0.1230 -0.1151
  509DPPI   C3A 7931   6.279  15.592   9.106  0.0297 -0.0805  0.1641
  509DPPI   C4A 7932   6.435  15.749   8.797 -0.0606  0.1034 -0.0968
  509DPPI   C1B 7933   6.349  15.115   9.824  0.2723 -0.0215 -0.3380
  509DPPI   C2B 7934   6.307  15.143   9.351 -0.0039 -0.1645  0.0761
  509DPPI   C3B 7935   6.553  15.121   8.947  0.5852 -0.2264  0.1180
  509DPPI   C4B 7936   6.587  15.062   8.476 -0.0681  0.2101 -0.0842
  510DPPI    C1 7937   7.049   8.097  11.085  0.0087  0.0478  0.0525
  510DPPI    C2 7938   6.875   7.766  11.227  0.0677  0.0108  0.0387
  510DPPI    C3 7939   7.202   7.912  11.405  0.0064  0.0959  0.0815
  510DPPI   PO4 7940   6.927   8.063  10.835 -0.0696  0.0736  0.0082
  510DPPI   GL1 7941   6.820   7.913  10.488 -0.3662  0.0310  0.1518
  510DPPI   GL2 7942   6.454   8.131  10.503 -0.1152  0.3152 -0.2325
  510DPPI   C1A 7943   6.993   7.816  10.101 -0.1131 -0.2165  0.0338
  510DPPI   C2A 7944   6.955   7.759   9.584  0.3098 -0.0131 -0.0704
  510DPPI   C3A 7945   6.992   7.844   9.100  0.4435 -0.2370 -0.0306
  510DPPI   C4A 7946   6.988   7.811   8.656  0.0085 -0.2289  0.0400
  510DPPI   C1B 7947   6.431   7.995  10.043  0.1320 -0.3089 -0.1141
  510DPPI   C2B 7948   6.465   7.922   9.623  0.2729  0.0779 -0.1339
  510DPPI   C3B 7949   6.505   7.961   9.132 -0.3989 -0.0581 -0.4083
  510DPPI   C4B 7950   6.537   8.008   8.762  0.1182  0.3589  0.1839
  511DPPI    C1 7951   9.694  17.426  11.324 -0.2032  0.1192  0.1874
  511DPPI    C2 7952   9.628  17.037  11.391  0.1081  0.0316  0.0050
  511DPPI    C3 7953   9.802  17.262  11.672 -0.1305  0.0552  0.1354
  511DPPI   PO4 7954   9.486  17.467  11.151 -0.3882  0.0040  0.1689
  511DPPI   GL1 7955   9.479  17.656  10.774 -0.0587  0.0980 -0.1837
  511DPPI   GL2 7956   9.778  17.481  10.627  0.1824 -0.0785  0.1083
  511DPPI   C1A 7957   9.185  17.656  10.443  0.1832  0.0245  0.2700
  511DPPI   C2A 7958   9.145  17.590  10.040 -0.0660 -0.1759  0.1363
  511DPPI   C3A 7959   9.026  17.713   9.611  0.2123  0.0606  0.0996
  511DPPI   C4A 7960   9.167  17.688   9.285  0.0256 -0.1325 -0.3886
  511DPPI   C1B 7961   9.608  17.497  10.217 -0.2625  0.2475 -0.1003
  511DPPI   C2B 7962   9.564  17.442   9.757  0.2427  0.2996  0.2398
  511DPPI   C3B 7963   9.643  17.528   9.384  0.0751  0.1046  0.0867
  511DPPI   C4B 7964   9.496  17.435   8.952 -0.0165  0.2453 -0.1990
  512DPPI    C1 7965   4.072   2.686  10.954 -0.1175 -0.0237  0.0276
  512DPPI    C2 7966   4.299   2.932  11.173 -0.0220  0.0371 -0.1374
  512DPPI    C3 7967   4.312   2.537  11.238 -0.0793  0.0633  0.0411
  512DPPI   PO4 7968   4.174   2.907  10.658 -0.0225 -0.0815  0.0059
  512DPPI   GL1 7969   4.336   2.783  10.322 -0.0847  0.1628  0.0203
  512DPPI   GL2 7970   4.059   2.623  10.167  0.1293 -0.0475  0.3622
  512DPPI   C1A 7971   4.477   2.544   9.888 -0.1054 -0.3992 -0.0157
  512DPPI   C2A 7972   4.484   2.518   9.539  0.1780 -0.1281  0.1019
  512DPPI   C3A 7973   4.483   2.355   9.105  0.1878  0.0234  0.2000
  512DPPI   C4A 7974   4.521   2.360   8.664 -0.1452 -0.0266  0.1745
  512DPPI   C1B 7975   4.018   2.625   9.704  0.3840  0.0249 -0.1372
  512DPPI   C2B 7976   3.998   2.614   9.303  0.0257 -0.1475 -0.0186
  512DPPI   C3B 7977   4.011   2.466   8.971  0.1323 -0.1374 -0.0277
  512DPPI   C4B 7978   4.058   2.359   8.502  0.0339 -0.0205 -0.1953
  513PYPI    C1 7979  16.095  13.868  10.503 -0.0083 -0.1614  0.0095
  513PYPI    C2 7980  15.757  13.805  10.707 -0.0567 -0.0147 -0.0248
  513PYPI    C3 7981  16.105  13.832  10.901 -0.1052  0.1442  0.0422
  513PYPI   PO4 7982  16.055  13.800  10.245 -0.0111 -0.3336 -0.0234
  513PYPI   GL1 7983  15.903  13.929   9.949  0.0101 -0.1451  0.0392
  513PYPI   GL2 7984  15.599  14.040   9.854 -0.2618  0.0117  0.0043
  513PYPI   C1A 7985  15.844  13.808   9.498 -0.0716 -0.0239  0.1225
  513PYPI   C2A 7986  15.706  13.778   9.112 -0.0567  0.1105  0.0340
  513PYPI   D3A 7987  15.789  13.894   8.702  0.2422  0.0442 -0.0652
  513PYPI   C4A 7988  15.777  14.278   8.553 -0.3335 -0.1348  0.1123
  513PYPI   C1B 7989  15.469  14.100   9.385 -0.0328  0.2028 -0.0209
  513PYPI   C2B 7990  15.512  14.257   9.089  0.1229  0.0467  0.0433
  513PYPI   C3B 7991  15.314  14.192   8.773 -0.0566 -0.0429 -0.0114
  513PYPI   C4B 7992  15.358  13.965   8.348 -0.0187 -0.1320 -0.2700
  514PYPI    C1 7993  14.152   1.805  10.982  0.0117 -0.2821 -0.0202
  514PYPI    C2 7994  14.001   1.998  11.298 -0.2202 -0.2609 -0.1420
  514PYPI    C3 7995  14.314   2.151  11.101 -0.3011 -0.0903 -0.1402
  514PYPI   PO4 7996  13.869   1.775  10.850 -0.1241 -0.1920 -0.1771
  514PYPI   GL1 7997  13.860   1.769  10.454 -0.2844 -0.2559  0.2427
  514PYPI   GL2 7998  13.656   1.996  10.447 -0.0345 -0.1727  0.1601
  514PYPI   C1A 7999  13.796   1.489  10.185  0.2540 -0.0449 -0.4659
  514PYPI   C2A 8000  13.840   1.670   9.758  0.0124 -0.1806  0.2778
  514PYPI   D3A 8001  13.857   1.748   9.311  0.1117  0.0599  0.0996
  514PYPI   C4A 8002  13.871   1.646   8.804 -0.2270 -0.0624 -0.0233
  514PYPI   C1B 8003  13.870   2.180  10.068  0.1558 -0.0298  0.1424
  514PYPI   C2B 8004  13.808   2.225   9.552 -0.1374  0.0776 -0.2210
  514PYPI   C3B 8005  13.709   2.346   9.201  0.1434  0.3079  0.1516
  514PYPI   C4B 8006  13.704   2.213   8.760 -0.1117  0.1005  0.1535
  515PYPI    C1 8007  17.529  10.725  10.379  0.2354  0.0007 -0.1760
  515PYPI    C2 8008  17.462  10.332  10.414 -0.1410  0.0631 -0.1590
  515PYPI    C3 8009  17.594  10.542  10.728  0.0679 -0.0489 -0.1701
  515PYPI   PO4 8010  17.654  10.744  10.143  0.0877 -0.1945  0.0133
  515PYPI   GL1 8011  17.626  10.756   9.773 -0.2112  0.0785  0.1156
  515PYPI   GL2 8012  17.495  11.027   9.696 -0.1053  0.2866 -0.1290
  515PYPI   C1A 8013  17.319  10.460   9.585  0.1939  0.3203 -0.1607
  515PYPI   C2A 8014  17.271  10.333   9.175  0.1659 -0.0235  0.0194
  515PYPI   D3A 8015  17.320  10.096   8.813  0.1190 -0.2704 -0.0980
  515PYPI   C4A 8016  17.336  10.122   8.253  0.1474 -0.1241 -0.1348
  515PYPI   C1B 8017  17.400  10.866   9.205  0.1780 -0.0675  0.0937
  515PYPI   C2B 8018  17.340  10.761   8.790  0.1792 -0.3795  0.2496
  515PYPI   C3B 8019  17.252  10.595   8.399  0.1017  0.0184 -0.1734
  515PYPI   C4B 8020  17.441  10.528   8.025  0.0942 -0.0751 -0.1467
  516PYPI    C1 8021   8.678  14.219  11.337 -0.0888 -0.3726  0.1364
  516PYPI    C2 8022   8.762  14.028  11.678 -0.1883  0.1217  0.4469
  516PYPI    C3 8023   8.382  14.106  11.581 -0.1788 -0.2537  0.0833
  516PYPI   PO4 8024   8.857  14.089  11.139  0.0665 -0.0526 -0.2995
  516PYPI   GL1 8025   9.172  14.197  10.872  0.0320 -0.1835 -0.0037
  516PYPI   GL2 8026   9.469  14.060  10.917  0.1523 -0.0761 -0.0162
  516PYPI   C1A 8027   9.006  14.298  10.426 -0.1689  0.0054  0.3023
  516PYPI   C2A 8028   8.993  14.284  10.055 -0.2310 -0.1154  0.1165
  516PYPI   D3A 8029   8.895  14.391   9.564  0.0600 -0.1592 -0.2770
  516PYPI   C4A 8030   8.988  14.331   9.136 -0.0704 -0.1408  0.0030
  516PYPI   C1B 8031   9.409  14.037  10.479 -0.0086 -0.1036  0.1334
  516PYPI   C2B 8032   9.481  14.153  10.005  0.2162 -0.1136  0.0144
  516PYPI   C3B 8033   9.400  14.260   9.538 -0.0252  0.0057 -0.1317
  516PYPI   C4B 8034   9.517  14.204   9.131  0.0340 -0.1292 -0.1352
  517PYPI    C1 8035   8.304   7.269  11.293  0.0478 -0.1885  0.0423
  517PYPI    C2 8036   8.608   7.018  11.360  0.2285  0.0878  0.2856
  517PYPI    C3 8037   8.335   7.083  11.645  0.2209  0.2186  0.2491
  517PYPI   PO4 8038   8.390   7.369  11.075 -0.1328 -0.2764 -0.4433
  517PYPI   GL1 8039   8.542   7.536  10.675  0.0208 -0.0324 -0.0154
  517PYPI   GL2 8040   8.521   7.239  10.622 -0.1103  0.1355 -0.0493
  517PYPI   C1A 8041   8.626   7.600  10.259 -0.1723 -0.0585 -0.1555
  517PYPI   C2A 8042   8.719   7.649   9.826 -0.1479 -0.1302  0.1985
  517PYPI   D3A 8043   8.879   7.662   9.479  0.1462  0.0384 -0.1347
  517PYPI   C4A 8044   8.968   7.710   9.016  0.2889  0.5799 -0.0116
  517PYPI   C1B 8045   8.458   7.145  10.265 -0.0693  0.1462 -0.2050
  517PYPI   C2B 8046   8.453   7.216   9.785 -0.0758  0.0856 -0.0940
  517PYPI   C3B 8047   8.544   7.334   9.364 -0.0548  0.0634 -0.1248
  517PYPI   C4B 8048   8.514   7.163   8.914 -0.2346 -0.2069  0.0395
  518PYPI    C1 8049  11.329   9.182  10.857 -0.3073  0.0093  0.0538
  518PYPI    C2 8050  11.209   9.189  11.238 -0.1475 -0.3408  0.1150
  518PYPI    C3 8051  11.565   9.033  11.143 -0.1309 -0.1407 -0.1653
  518PYPI   PO4 8052  11.350   9.396  10.781  0.0485  0.0711 -0.2772
  518PYPI   GL1 8053  11.408   9.670  10.461  0.0985  0.1987 -0.1907
  518PYPI   GL2 8054  11.197   9.881  10.483 -0.1430 -0.0537  0.1117
  518PYPI   C1A 8055  11.669   9.445  10.106 -0.3264  0.0703 -0.1082
  518PYPI   C2A 8056  11.706   9.523   9.636  0.0681 -0.4569  0.2885
  518PYPI   D3A 8057  11.774   9.456   9.261  0.1007 -0.0494 -0.1397
  518PYPI   C4A 8058  11.814   9.663   8.866 -0.3293  0.2186  0.2492
  518PYPI   C1B 8059  11.213   9.750  10.064 -0.2315  0.5256  0.0734
  518PYPI   C2B 8060  11.240   9.714   9.612  0.2209 -0.1376 -0.0219
  518PYPI   C3B 8061  11.245   9.753   9.139  0.2353 -0.0516  0.0194
  518PYPI   C4B 8062  11.265   9.788   8.741  0.0996  0.2003  0.3636
  519PYPI    C1 8063   2.530   3.601  10.606 -0.0459 -0.0518 -0.1433
  519PYPI    C2 8064   2.775   3.463  10.891 -0.0270  0.0381 -0.1156
  519PYPI    C3 8065   2.640   3.839  10.909  0.2411  0.1532 -0.4019
  519PYPI   PO4 8066   2.596   3.430  10.388  0.0182  0.0822 -0.0048
  519PYPI   GL1 8067   2.423   3.297   9.970  0.0741  0.0750  0.0370
  519PYPI   GL2 8068   2.477   3.024   9.884 -0.0508  0.2013  0.1562
  519PYPI   C1A 8069   2.477   3.359   9.544  0.0551  0.1351 -0.0344
  519PYPI   C2A 8070   2.483   3.346   9.099  0.1785  0.3762  0.0637
  519PYPI   D3A 8071   2.507   3.154   8.746  0.0991 -0.2673 -0.3159
  519PYPI   C4A 8072   2.388   3.377   8.404  0.0531  0.2242 -0.2940
  519PYPI   C1B 8073   2.742   2.922   9.601 -0.0982 -0.0536 -0.0524
  519PYPI   C2B 8074   2.744   2.907   9.164 -0.0907 -0.2952  0.0229
  519PYPI   C3B 8075   2.872   2.791   8.741 -0.1495 -0.0778  0.3690
  519PYPI   C4B 8076   2.829   2.918   8.273  0.0843  0.1422 -0.1828
  520PYPI    C1 8077  11.141   1.653  11.018 -0.0669  0.0268  0.0255
  520PYPI    C2 8078  11.340   1.968  10.871  0.2035 -0.1244  0.0610
  520PYPI    C3 8079  11.450   1.806  11.220  0.0614 -0.2552  0.0464
  520PYPI   PO4 8080  11.140   1.518  10.793 -0.1451  0.1014 -0.2934
  520PYPI   GL1 8081  11.393   1.693  10.377 -0.1803 -0.0032  0.0099
  520PYPI   GL2 8082  11.742   1.502  10.217 -0.4354  0.1545  0.2779
  520PYPI   C1A 8083  11.269   1.759   9.991  0.0544  0.1302 -0.0015
  520PYPI   C2A 8084  11.185   1.712   9.536  0.1860 -0.2808  0.1815
  520PYPI   D3A 8085  11.141   1.604   9.089  0.1119  0.0388 -0.3102
  520PYPI   C4A 8086  11.052   1.879   8.730 -0.3829 -0.0088  0.0837
  520PYPI   C1B 8087  11.643   1.548   9.758 -0.0244  0.3122 -0.0257
  520PYPI   C2B 8088  11.626   1.444   9.473 -0.0414  0.1417 -0.1437
  520PYPI   C3B 8089  11.626   1.408   9.138  0.0103 -0.1284 -0.0897
  520PYPI   C4B 8090  11.610   1.450   8.692 -0.0923  0.2243 -0.0491
  521PYPI    C1 8091   0.245   3.389   9.980 -0.1760  0.0305  0.1733
  521PYPI    C2 8092   0.062   3.411  10.335 -0.1587 -0.0921  0.1905
  521PYPI    C3 8093   0.418   3.232  10.305 -0.1942 -0.1475  0.0981
  521PYPI   PO4 8094   0.164   3.625   9.852 -0.1172  0.0876 -0.0128
  521PYPI   GL1 8095  -0.149   3.664   9.554 -0.2162  0.0621  0.2502
  521PYPI   GL2 8096   0.081   3.331   9.400 -0.1520 -0.1646 -0.0148
  521PYPI   C1A 8097  -0.196   3.707   9.185  0.0384 -0.1054  0.1754
  521PYPI   C2A 8098  -0.228   3.773   8.718 -0.1379  0.2524 -0.1369
  521PYPI   D3A 8099  -0.286   3.620   8.384  0.2396  0.1120 -0.0995
  521PYPI   C4A 8100  -0.655   3.587   8.165 -0.1033  0.1985  0.0190
  521PYPI   C1B 8101   0.124   3.417   9.002 -0.0158  0.0634  0.2537
  521PYPI   C2B 8102   0.269   3.544   8.657 -0.1880 -0.2087  0.5142
  521PYPI   C3B 8103   0.260   3.583   8.173 -0.1341  0.1628 -0.1440
  521PYPI   C4B 8104   0.389   3.458   7.796  0.0592  0.2152  0.1511
  522PYPI    C1 8105  12.846   7.589  11.122  0.2559 -0.1968  0.1011
  522PYPI    C2 8106  12.671   7.880  11.334  0.0303 -0.1580 -0.1343
  522PYPI    C3 8107  12.984   7.683  11.486 -0.0181 -0.0126  0.1605
  522PYPI   PO4 8108  12.903   7.768  10.897  0.3800  0.1298 -0.3705
  522PYPI   GL1 8109  13.103   7.691  10.529  0.1604 -0.1981 -0.2217
  522PYPI   GL2 8110  13.142   7.347  10.675  0.2090 -0.1522 -0.1750
  522PYPI   C1A 8111  13.105   7.637  10.063 -0.1184 -0.1834  0.1208
  522PYPI   C2A 8112  13.165   7.583   9.614  0.0831  0.1305  0.0550
  522PYPI   D3A 8113  13.023   7.718   9.332  0.0906  0.4391 -0.0269
  522PYPI   C4A 8114  12.935   7.526   8.900 -0.2387  0.1203  0.0378
  522PYPI   C1B 8115  12.890   7.228  10.405 -0.1733  0.0650  0.0367
  522PYPI   C2B 8116  12.752   7.269   9.960 -0.2656 -0.0287  0.1074
  522PYPI   C3B 8117  12.734   7.304   9.509 -0.0178  0.0953 -0.2172
  522PYPI   C4B 8118  12.647   7.285   9.168  0.1177  0.1287 -0.4062
  523PYPI    C1 8119   0.538  11.382  10.336 -0.0517 -0.1093  0.0784
  523PYPI    C2 8120   0.179  11.486  10.478 -0.0641 -0.2567  0.1576
  523PYPI    C3 8121   0.508  11.563  10.692 -0.0464 -0.1063  0.0773
  523PYPI   PO4 8122   0.525  11.491  10.056  0.4075 -0.0082  0.1773
  523PYPI   GL1 8123   0.401  11.316   9.688  0.0036 -0.2046 -0.3121
  523PYPI   GL2 8124   0.166  11.169   9.582  0.0047  0.1696  0.1633
  523PYPI   C1A 8125   0.345  11.437   9.244  0.3396 -0.0059  0.0164
  523PYPI   C2A 8126   0.351  11.355   8.823  0.1944 -0.2252  0.1665
  523PYPI   D3A 8127   0.381  11.281   8.414  0.0113 -0.0194 -0.0662
  523PYPI   C4A 8128   0.350  11.603   8.161 -0.1375  0.1339  0.1179
  523PYPI   C1B 8129   0.105  10.989   9.193  0.3209 -0.2584 -0.4224
  523PYPI   C2B 8130   0.068  10.915   8.733 -0.0773  0.0567  0.0139
  523PYPI   C3B 8131  -0.045  10.819   8.355  0.0701 -0.1110  0.1222
  523PYPI   C4B 8132  -0.151  10.913   7.849  0.0236  0.1979 -0.1768
  524PYPI    C1 8133   3.345  10.234  10.577  0.0861  0.0832  0.0400
  524PYPI    C2 8134   3.487  10.109  10.929 -0.0942 -0.0362  0.0722
  524PYPI    C3 8135   3.265  10.441  10.910  0.0539  0.0623  0.0453
  524PYPI   PO4 8136   3.492  10.134  10.340 -0.1348 -0.3011 -0.2311
  524PYPI   GL1 8137   3.435  10.202   9.953 -0.1257  0.0419  0.1014
  524PYPI   GL2 8138   3.702  10.035   9.909 -0.3850  0.2415  0.1222
  524PYPI   C1A 8139   3.462  10.209   9.537 -0.2105 -0.2191  0.0322
  524PYPI   C2A 8140   3.495  10.027   9.120 -0.2137 -0.2592 -0.2810
  524PYPI   D3A 8141   3.527  10.005   8.740  0.0328 -0.0823 -0.2344
  524PYPI   C4A 8142   3.820   9.728   8.641 -0.2798 -0.2088  0.0766
  524PYPI   C1B 8143   3.767   9.777   9.526 -0.3312 -0.2733  0.1172
  524PYPI   C2B 8144   3.831   9.618   9.133 -0.0633  0.2305  0.1554
  524PYPI   C3B 8145   4.054   9.265   8.789 -0.1555  0.0901 -0.0205
  524PYPI   C4B 8146   4.240   9.314   8.404 -0.1613  0.0315  0.0427
  525PYPI    C1 8147  12.357   9.012  10.547 -0.0059 -0.0017  0.0567
  525PYPI    C2 8148  12.273   9.174  10.903 -0.2725  0.2634 -0.1217
  525PYPI    C3 8149  12.654   9.112  10.796 -0.1882  0.2437  0.1800
  525PYPI   PO4 8150  12.201   8.798  10.557  0.1448  0.1178 -0.0425
  525PYPI   GL1 8151  11.968   8.627  10.312  0.0026 -0.0025  0.1918
  525PYPI   GL2 8152  11.908   8.944  10.134 -0.0433  0.1555  0.0028
  525PYPI   C1A 8153  12.073   8.417   9.868 -0.0414 -0.0557 -0.2162
  525PYPI   C2A 8154  11.982   8.496   9.527 -0.1072  0.0199  0.0465
  525PYPI   D3A 8155  11.892   8.562   9.054 -0.4790 -0.3099  0.3777
  525PYPI   C4A 8156  12.236   8.474   8.709  0.0615 -0.1655 -0.2383
  525PYPI   C1B 8157  11.777   9.063   9.709  0.1709  0.1028  0.0073
  525PYPI   C2B 8158  11.735   8.994   9.300 -0.1556 -0.0781  0.1554
  525PYPI   C3B 8159  11.882   9.122   8.949  0.1433  0.1564  0.1530
  525PYPI   C4B 8160  11.789   8.846   8.658  0.0332  0.0066 -0.0475
  526PYPI    C1 8161   9.945   3.264  10.990  0.2865  0.0459 -0.2227
  526PYPI    C2 8162  10.092   3.299  11.360  0.1234 -0.0690 -0.1460
  526PYPI    C3 8163   9.791   3.535  11.241  0.0550 -0.1548 -0.1440
  526PYPI   PO4 8164   9.984   3.368  10.771  0.0341 -0.0276 -0.1353
  526PYPI   GL1 8165   9.831   3.363  10.442  0.0116 -0.0012  0.2416
  526PYPI   GL2 8166   9.940   3.618  10.200  0.3411  0.0414  0.0442
  526PYPI   C1A 8167   9.635   3.273  10.133  0.1786  0.2772  0.3814
  526PYPI   C2A 8168   9.666   3.194   9.641 -0.2665 -0.1014  0.1364
  526PYPI   D3A 8169   9.865   3.013   9.258  0.0537 -0.2496  0.1004
  526PYPI   C4A 8170   9.921   3.074   8.722 -0.1525 -0.0984  0.1705
  526PYPI   C1B 8171   9.855   3.646   9.825 -0.2755  0.3441 -0.1448
  526PYPI   C2B 8172   9.816   3.618   9.401 -0.0402 -0.0925  0.2460
  526PYPI   C3B 8173   9.688   3.508   8.965  0.3666  0.1034  0.1540
  526PYPI   C4B 8174   9.669   3.514   8.509  0.0736  0.0332 -0.1541
  527PYPI    C1 8175  15.691  13.021  10.352 -0.0670  0.1122 -0.0139
  527PYPI    C2 8176  15.489  13.272  10.589 -0.1865  0.0391 -0.0372
  527PYPI    C3 8177  15.722  12.989  10.749 -0.2119  0.0345 -0.0081
  527PYPI   PO4 8178  15.811  13.189  10.218  0.0724 -0.1009  0.1069
  527PYPI   GL1 8179  15.712  13.432   9.830  0.3604  0.1178  0.1057
  527PYPI   GL2 8180  16.057  13.389   9.640  0.1943 -0.1482 -0.2794
  527PYPI   C1A 8181  15.612  13.278   9.397  0.3984  0.3269  0.0836
  527PYPI   C2A 8182  15.598  13.305   8.878  0.1336  0.0509  0.2139
  527PYPI   D3A 8183  15.598  13.442   8.479 -0.1711 -0.0410 -0.1144
  527PYPI   C4A 8184  15.870  13.764   8.233 -0.1370  0.0822  0.2553
  527PYPI   C1B 8185  16.087  13.457   9.185  0.1534  0.1247  0.1000
  527PYPI   C2B 8186  16.030  13.468   8.723 -0.0413 -0.0231  0.2744
  527PYPI   C3B 8187  16.032  13.289   8.206  0.1094  0.1541 -0.0360
  527PYPI   C4B 8188  15.931  13.144   7.884  0.1954 -0.0264  0.0678
  528PYPI    C1 8189   8.016  14.346  11.273  0.2502 -0.0309 -0.1244
  528PYPI    C2 8190   7.855  14.078  11.022 -0.1298  0.0147  0.0627
  528PYPI    C3 8191   7.882  13.995  11.412 -0.0326  0.1564  0.0867
  528PYPI   PO4 8192   8.235  14.443  11.075  0.0980 -0.0123 -0.0451
  528PYPI   GL1 8193   8.164  14.403  10.691 -0.1290 -0.2059  0.0244
  528PYPI   GL2 8194   7.990  14.136  10.577 -0.2444 -0.2474 -0.2958
  528PYPI   C1A 8195   8.412  14.477  10.286  0.0274  0.0540  0.0039
  528PYPI   C2A 8196   8.487  14.540   9.867 -0.1997 -0.1856  0.1245
  528PYPI   D3A 8197   8.373  14.571   9.444 -0.1639  0.1633 -0.4372
  528PYPI   C4A 8198   8.452  14.534   8.968  0.0243 -0.1351  0.2889
  528PYPI   C1B 8199   8.030  14.205  10.107 -0.1113  0.0037  0.0199
  528PYPI   C2B 8200   8.056  14.260   9.703 -0.0936  0.1022  0.0210
  528PYPI   C3B 8201   8.092  14.251   9.244 -0.2449 -0.0365 -0.2424
  528PYPI   C4B 8202   7.983  14.189   8.795 -0.1767 -0.0391  0.3556
  529PYPI    C1 8203  14.310  12.946  10.868 -0.1353 -0.0494 -0.0975
  529PYPI    C2 8204  14.110  12.650  11.046 -0.3609  0.1201 -0.0652
  529PYPI    C3 8205  14.351  12.886  11.261 -0.1961 -0.0255 -0.0875
  529PYPI   PO4 8206  14.107  13.085  10.710 -0.0441  0.1819 -0.2089
  529PYPI   GL1 8207  13.982  13.095  10.324  0.0565  0.1058  0.3246
  529PYPI   GL2 8208  13.676  12.987  10.456 -0.0582  0.1824  0.0326
  529PYPI   C1A 8209  13.895  13.225   9.942  0.2121 -0.1088  0.1613
  529PYPI   C2A 8210  13.913  13.171   9.538  0.0260  0.1889  0.0321
  529PYPI   D3A 8211  13.794  13.141   9.046  0.0763  0.1423 -0.2609
  529PYPI   C4A 8212  13.688  13.249   8.686 -0.1416  0.0982 -0.2077
  529PYPI   C1B 8213  13.594  12.852  10.052  0.0946 -0.1411 -0.0324
  529PYPI   C2B 8214  13.502  12.865   9.664 -0.2545 -0.0035  0.0040
  529PYPI   C3B 8215  13.528  12.792   9.234  0.2798 -0.0833 -0.1986
  529PYPI   C4B 8216  13.344  12.838   8.811 -0.3141  0.0841 -0.1892
  530PYPI    C1 8217   5.802   3.456  10.822 -0.0965  0.2419  0.1532
  530PYPI    C2 8218   6.034   3.773  10.898  0.0344  0.1287  0.2283
  530PYPI    C3 8219   6.025   3.465  11.154  0.0892 -0.0320  0.0394
  530PYPI   PO4 8220   5.619   3.504  10.723 -0.0473  0.2283 -0.1040
  530PYPI   GL1 8221   5.360   3.462  10.266  0.2029  0.0716  0.0124
  530PYPI   GL2 8222   5.413   3.734  10.274  0.3363  0.2090  0.1033
  530PYPI   C1A 8223   5.454   3.365   9.866 -0.0655 -0.2739  0.0836
  530PYPI   C2A 8224   5.523   3.206   9.420 -0.0864  0.2510 -0.0943
  530PYPI   D3A 8225   5.275   2.927   9.103  0.3780  0.2678  0.0050
  530PYPI   C4A 8226   5.528   2.860   8.564 -0.1450 -0.1218  0.1071
  530PYPI   C1B 8227   5.381   3.869   9.852  0.1229  0.0771 -0.0043
  530PYPI   C2B 8228   5.544   3.735   9.401  0.0291 -0.0824  0.0890
  530PYPI   C3B 8229   5.778   3.557   9.075 -0.2842  0.0145  0.3221
  530PYPI   C4B 8230   5.967   3.569   8.684 -0.3554  0.2182 -0.1567
  531PYPI    C1 8231  17.227   2.561  10.656 -0.2137 -0.0264  0.0410
  531PYPI    C2 8232  17.565   2.354  10.710 -0.1468  0.0008 -0.2564
  531PYPI    C3 8233  17.211   2.179  10.775 -0.0778 -0.0185  0.0854
  531PYPI   PO4 8234  17.319   2.689  10.432 -0.1978 -0.2189 -0.1687
  531PYPI   GL1 8235  17.209   2.834  10.053  0.0304 -0.3050  0.0059
  531PYPI   GL2 8236  17.487   2.660   9.920 -0.2097 -0.3031 -0.3662
  531PYPI   C1A 8237  16.981   2.717   9.718 -0.4010 -0.4620  0.1491
  531PYPI   C2A 8238  16.939   2.886   9.333  0.1505  0.0715  0.0498
  531PYPI   D3A 8239  16.827   3.021   8.968 -0.2434 -0.0825 -0.1334
  531PYPI   C4A 8240  16.995   2.908   8.683  0.0606  0.0902  0.0497
  531PYPI   C1B 8241  17.413   2.610   9.516 -0.0539 -0.1316  0.1404
  531PYPI   C2B 8242  17.349   2.720   9.084  0.2115  0.1901  0.0313
  531PYPI   C3B 8243  17.426   2.686   8.656  0.0191 -0.1060  0.2016
  531PYPI   C4B 8244  17.725   2.646   8.362 -0.0134 -0.0309 -0.3934
  532PYPI    C1 8245   9.716   7.288  11.191 -0.0889 -0.1052 -0.1028
  532PYPI    C2 8246   9.563   7.330  11.559 -0.2177 -0.1160 -0.1546
  532PYPI    C3 8247   9.795   7.015  11.473 -0.0800 -0.0450 -0.0467
  532PYPI   PO4 8248   9.462   7.360  10.994  0.0924 -0.2339 -0.2425
  532PYPI   GL1 8249   9.516   7.481  10.624 -0.1605  0.0674  0.0700
  532PYPI   GL2 8250   9.835   7.268  10.611 -0.1258  0.1072  0.0126
  532PYPI   C1A 8251   9.416   7.500  10.203 -0.0875  0.0160 -0.2727
  532PYPI   C2A 8252   9.275   7.517   9.848 -0.2187 -0.1680 -0.0256
  532PYPI   D3A 8253   9.422   7.426   9.421  0.0521 -0.0619 -0.0106
  532PYPI   C4A 8254   9.446   7.606   9.056 -0.1883  0.0142  0.1427
  532PYPI   C1B 8255   9.899   7.289  10.188 -0.0682 -0.1844  0.1116
  532PYPI   C2B 8256   9.980   7.234   9.866 -0.0250  0.1585 -0.1089
  532PYPI   C3B 8257   9.901   7.231   9.419 -0.0586  0.0550  0.3406
  532PYPI   C4B 8258   9.905   7.355   8.992  0.3900 -0.0671 -0.1474
  533PYPI    C1 8259  15.951  16.727  10.678  0.2379 -0.2194  0.0330
  533PYPI    C2 8260  15.851  16.376  10.840 -0.2006 -0.0759  0.0872
  533PYPI    C3 8261  15.969  16.678  11.074 -0.2066 -0.0670  0.0787
  533PYPI   PO4 8262  15.779  16.709  10.414  0.0978 -0.2558 -0.1431
  533PYPI   GL1 8263  15.860  16.378  10.131 -0.0781  0.0811  0.2251
  533PYPI   GL2 8264  15.524  16.459  10.021  0.2214 -0.1079 -0.1686
  533PYPI   C1A 8265  15.901  16.179   9.779 -0.0884 -0.1587 -0.4510
  533PYPI   C2A 8266  15.881  16.258   9.339 -0.0447  0.0661 -0.1816
  533PYPI   D3A 8267  15.803  16.293   8.939  0.2099 -0.0332  0.0381
  533PYPI   C4A 8268  16.076  16.352   8.629 -0.1041 -0.1599 -0.2203
  533PYPI   C1B 8269  15.507  16.431   9.602 -0.1248  0.2349  0.2709
  533PYPI   C2B 8270  15.400  16.586   9.163  0.1150 -0.0665  0.1000
  533PYPI   C3B 8271  15.580  16.687   8.716 -0.2990 -0.0675  0.0951
  533PYPI   C4B 8272  15.550  16.790   8.245  0.3106 -0.0328  0.0637
  534PYPI    C1 8273   3.343  12.947  10.999  0.3253 -0.0826  0.0420
  534PYPI    C2 8274   3.312  13.213  11.297  0.3336 -0.0536  0.0171
  534PYPI    C3 8275   3.556  12.898  11.335  0.1192 -0.2058  0.1563
  534PYPI   PO4 8276   3.267  13.178  10.774  0.0323 -0.0778  0.0439
  534PYPI   GL1 8277   3.273  13.200  10.358 -0.3566 -0.0794 -0.0742
  534PYPI   GL2 8278   3.127  12.913  10.144 -0.1686  0.3465 -0.2436
  534PYPI   C1A 8279   3.473  13.252   9.888  0.1893 -0.0674 -0.0479
  534PYPI   C2A 8280   3.504  13.340   9.480  0.3204 -0.1259  0.3245
  534PYPI   D3A 8281   3.627  13.372   9.018  0.1765  0.1035  0.1932
  534PYPI   C4A 8282   3.441  13.341   8.533  0.2978 -0.3157 -0.1051
  534PYPI   C1B 8283   3.112  12.937   9.809  0.1735 -0.0075  0.2937
  534PYPI   C2B 8284   3.139  13.028   9.329  0.0151  0.3036 -0.0671
  534PYPI   C3B 8285   3.084  13.055   8.862 -0.0931 -0.2677  0.1995
  534PYPI   C4B 8286   2.998  13.096   8.466 -0.4511 -0.0920  0.1434
  535PYPI    C1 8287   6.304   1.191  11.039 -0.0291 -0.0731  0.0290
  535PYPI    C2 8288   6.063   1.112  10.729 -0.1622  0.0127  0.1098
  535PYPI    C3 8289   5.985   0.954  11.088  0.0717 -0.2018  0.0688
  535PYPI   PO4 8290   6.509   1.155  10.875  0.0910 -0.0934 -0.0395
  535PYPI   GL1 8291   6.518   1.192  10.401  0.0724  0.2246 -0.2352
  535PYPI   GL2 8292   6.438   0.929  10.462 -0.3143  0.1688  0.0866
  535PYPI   C1A 8293   6.442   1.188   9.944  0.4172  0.1107  0.3831
  535PYPI   C2A 8294   6.557   1.203   9.462  0.1846 -0.0166  0.0777
  535PYPI   D3A 8295   6.579   1.184   8.993  0.1614 -0.0220 -0.0475
  535PYPI   C4A 8296   6.551   1.420   8.620 -0.1427  0.1370  0.1253
  535PYPI   C1B 8297   6.542   0.655  10.089 -0.0157  0.0359 -0.1311
  535PYPI   C2B 8298   6.556   0.622   9.678 -0.0312  0.0071  0.1343
  535PYPI   C3B 8299   6.587   0.658   9.261  0.1461  0.1864  0.0272
  535PYPI   C4B 8300   6.719   0.703   8.842 -0.1461  0.1577  0.1114
  536PYPI    C1 8301   1.834   9.535  10.326  0.0695 -0.1620 -0.3730
  536PYPI    C2 8302   1.708   9.162  10.399 -0.0455 -0.0770 -0.1220
  536PYPI    C3 8303   1.855   9.386  10.697  0.1366  0.0378 -0.2945
  536PYPI   PO4 8304   1.925   9.523  10.074  0.1204 -0.0700  0.1265
  536PYPI   GL1 8305   1.843   9.396   9.648  0.0011  0.1947  0.0022
  536PYPI   GL2 8306   1.973   9.599   9.542 -0.0642 -0.2017  0.1700
  536PYPI   C1A 8307   2.090   8.976   9.489  0.0312  0.0111  0.3616
  536PYPI   C2A 8308   2.176   8.957   9.054  0.0854 -0.0287 -0.0343
  536PYPI   D3A 8309   2.108   8.913   8.593  0.1148 -0.0919 -0.4170
  536PYPI   C4A 8310   2.187   8.997   8.187 -0.0644  0.0694 -0.2855
  536PYPI   C1B 8311   2.019   9.400   9.138 -0.1759  0.0975 -0.2550
  536PYPI   C2B 8312   2.094   9.444   8.640 -0.0655  0.1381  0.0022
  536PYPI   C3B 8313   2.009   9.508   8.205  0.0125 -0.0939 -0.1139
  536PYPI   C4B 8314   2.283   9.366   7.836 -0.0202 -0.1830  0.1231
  537PYPI    C1 8315  17.260  16.102  10.481 -0.0831 -0.0931 -0.0255
  537PYPI    C2 8316  17.431  15.977  10.820  0.2512  0.0166 -0.1487
  537PYPI    C3 8317  17.198  16.302  10.822 -0.0803 -0.2155  0.0475
  537PYPI   PO4 8318  17.169  15.864  10.398  0.1165  0.0703 -0.2139
  537PYPI   GL1 8319  16.923  15.537  10.098  0.1575  0.2244  0.2164
  537PYPI   GL2 8320  17.202  15.437   9.986  0.1549 -0.0527 -0.2997
  537PYPI   C1A 8321  16.788  15.636   9.653 -0.2238 -0.1707  0.0069
  537PYPI   C2A 8322  16.911  15.561   9.313  0.2994  0.1976  0.2200
  537PYPI   D3A 8323  16.835  15.456   8.887 -0.1126 -0.1962 -0.2563
  537PYPI   C4A 8324  17.051  15.537   8.472 -0.0122 -0.1946 -0.3404
  537PYPI   C1B 8325  17.320  15.484   9.552 -0.1796  0.1243  0.1439
  537PYPI   C2B 8326  17.469  15.577   9.060  0.1023  0.0769 -0.0175
  537PYPI   C3B 8327  17.526  15.461   8.696 -0.0534 -0.0531  0.0492
  537PYPI   C4B 8328  17.485  15.493   8.171  0.2692 -0.1091  0.2000
  538PYPI    C1 8329  15.108   8.141  10.931 -0.1060  0.1461  0.0082
  538PYPI    C2 8330  15.060   8.464  11.161 -0.3814  0.1586 -0.0631
  538PYPI    C3 8331  14.813   8.152  11.201 -0.2312  0.0313 -0.1218
  538PYPI   PO4 8332  15.061   8.171  10.677  0.0995  0.1146  0.0987
  538PYPI   GL1 8333  14.870   8.235  10.340 -0.0408 -0.4679  0.0867
  538PYPI   GL2 8334  15.038   7.900  10.274 -0.2640 -0.0005 -0.0010
  538PYPI   C1A 8335  14.859   8.480   9.917 -0.0407 -0.1837  0.1231
  538PYPI   C2A 8336  14.827   8.585   9.528  0.2019  0.2206  0.2617
  538PYPI   D3A 8337  14.693   8.565   9.055  0.2865  0.0127 -0.2060
  538PYPI   C4A 8338  14.835   8.317   8.627 -0.1673  0.0041 -0.1811
  538PYPI   C1B 8339  14.912   7.684   9.963  0.1613 -0.0389 -0.2890
  538PYPI   C2B 8340  14.903   7.673   9.627 -0.0507 -0.0933 -0.7304
  538PYPI   C3B 8341  15.030   7.481   9.272  0.0656  0.0270 -0.2908
  538PYPI   C4B 8342  14.950   7.461   8.910 -0.3670  0.1537 -0.0857
  539PYPI    C1 8343   9.134  15.593  11.132  0.0945  0.0797  0.0620
  539PYPI    C2 8344   8.888  15.777  10.875  0.1382  0.1957  0.1021
  539PYPI    C3 8345   8.751  15.655  11.231  0.0129 -0.1939 -0.0739
  539PYPI   PO4 8346   9.378  15.720  10.969 -0.1247 -0.0614 -0.1129
  539PYPI   GL1 8347   9.258  15.863  10.631  0.0849 -0.3544 -0.1143
  539PYPI   GL2 8348   9.422  16.246  10.729 -0.1534  0.1566 -0.0100
  539PYPI   C1A 8349   9.337  15.739  10.116  0.2343  0.1169  0.2594
  539PYPI   C2A 8350   9.229  15.685   9.707 -0.1276 -0.1121  0.0941
  539PYPI   D3A 8351   9.006  15.735   9.363 -0.1696  0.1831  0.4763
  539PYPI   C4A 8352   9.121  15.704   8.935  0.0912 -0.1973 -0.0570
  539PYPI   C1B 8353   9.426  16.194  10.184 -0.0814 -0.0662 -0.0174
  539PYPI   C2B 8354   9.519  16.064   9.660  0.3403 -0.4413 -0.0946
  539PYPI   C3B 8355   9.449  15.985   9.251 -0.3148 -0.1966 -0.2444
  539PYPI   C4B 8356   9.554  16.040   8.781 -0.0271 -0.1027 -0.1762
  540ERGO   ROH 8357  13.068  10.674  10.382  0.0815 -0.0891  0.0449
  540ERGO    R1 8358  13.150  10.667  10.111  0.1199 -0.2135  0.0592
  540ERGO    R2 8359  13.111  10.447   9.949 -0.0694 -0.2037  0.0901
  540ERGO    R3 8360  12.989  10.628   9.787  0.1330 -0.1095  0.0395
  540ERGO    R4 8361  13.079  10.416   9.606 -0.1149 -0.2733  0.1001
  540ERGO    R5 8362  13.122  10.629   9.588  0.1308 -0.3237  0.0338
  540ERGO    C1 8363  12.946  10.568   9.255  0.0485 -0.2254  0.0584
  540ERGO    C2 8364  12.931  10.662   8.944  0.1604  0.0066  0.3471
  541ERGO   ROH 8365  11.896  13.210  10.451 -0.1087  0.1095  0.0461
  541ERGO    R1 8366  11.973  13.358  10.222 -0.0865  0.0741  0.0301
  541ERGO    R2 8367  12.085  13.240   9.999  0.0331  0.0522  0.0990
  541ERGO    R3 8368  11.882  13.366   9.870  0.0281 -0.0591 -0.0027
  541ERGO    R4 8369  12.040  13.241   9.656  0.1601 -0.0299  0.0816
  541ERGO    R5 8370  11.983  13.451   9.669  0.0654 -0.0535  0.0204
  541ERGO    C1 8371  11.823  13.360   9.335  0.2293 -0.1821 -0.0241
  541ERGO    C2 8372  11.857  13.339   8.977  0.0801 -0.2230 -0.0721
  542ERGO   ROH 8373  17.369  14.894   9.974  0.2419 -0.0835  0.0239
  542ERGO    R1 8374  17.326  15.031   9.730  0.1594  0.0183  0.0947
  542ERGO    R2 8375  17.494  15.004   9.513  0.1181  0.1521  0.0445
  542ERGO    R3 8376  17.264  14.941   9.383  0.1026  0.1615  0.0670
  542ERGO    R4 8377  17.428  15.077   9.181  0.1552  0.0052  0.0038
  542ERGO    R5 8378  17.224  15.128   9.239  0.1697  0.1015 -0.0302
  542ERGO    C1 8379  17.173  15.061   8.867  0.1625 -0.0715  0.0012
  542ERGO    C2 8380  17.296  15.096   8.545  0.1066 -0.0653 -0.0842
  543ERGO   ROH 8381   0.061  17.499   9.868  0.0400 -0.1297  0.0810
  543ERGO    R1 8382  -0.056  17.476   9.611 -0.1211 -0.0051  0.1419
  543ERGO    R2 8383  -0.170  17.691   9.480  0.1241  0.1388  0.1659
  543ERGO    R3 8384   0.002  17.618   9.281 -0.0767 -0.1423  0.0887
  543ERGO    R4 8385  -0.170  17.823   9.161  0.2840  0.2549  0.2124
  543ERGO    R5 8386  -0.132  17.623   9.083 -0.1402  0.1937  0.1306
  543ERGO    C1 8387  -0.010  17.833   8.789  0.1886  0.0587  0.1667
  543ERGO    C2 8388  -0.006  18.035   8.438  0.2875 -0.1841  0.2269
  544ERGO   ROH 8389   6.755   3.884  10.243  0.1734 -0.1107  0.0200
  544ERGO    R1 8390   6.657   3.894   9.978  0.0890  0.0238  0.0557
  544ERGO    R2 8391   6.740   4.084   9.795  0.2652 -0.0733  0.0371
  544ERGO    R3 8392   6.797   3.866   9.643 -0.0654 -0.1418  0.0025
  544ERGO    R4 8393   6.806   4.092   9.456  0.5023 -0.0806  0.0809
  544ERGO    R5 8394   6.688   3.910   9.434  0.1491  0.1503 -0.0562
  544ERGO    C1 8395   6.898   3.893   9.115  0.3299 -0.1491  0.0739
  544ERGO    C2 8396   6.917   3.896   8.804 -0.0300  0.3057  0.0168
  545ERGO   ROH 8397  14.516   7.835  10.299 -0.0151  0.0972  0.0769
  545ERGO    R1 8398  14.432   7.993  10.080  0.0196  0.0859  0.0554
  545ERGO    R2 8399  14.599   8.058   9.869  0.0188 -0.0236  0.0206
  545ERGO    R3 8400  14.399   7.950   9.720 -0.0433  0.0248  0.0681
  545ERGO    R4 8401  14.528   8.146   9.543  0.0030 -0.0516  0.0164
  545ERGO    R5 8402  14.315   8.135   9.592  0.0055  0.0346  0.0500
  545ERGO    C1 8403  14.299   8.097   9.212 -0.0645 -0.0226  0.0587
  545ERGO    C2 8404  14.454   8.154   8.917  0.0587  0.0076  0.2205
  546ERGO   ROH 8405   5.402  17.298  10.404  0.1298 -0.1464  0.0587
  546ERGO    R1 8406   5.318  17.252  10.137  0.0518 -0.1129  0.0775
  546ERGO    R2 8407   5.338  17.445   9.940 -0.0155 -0.0837  0.0973
  546ERGO    R3 8408   5.473  17.250   9.808 -0.0459 -0.0606  0.0314
  546ERGO    R4 8409   5.387  17.436   9.598  0.0554  0.0612  0.1026
  546ERGO    R5 8410   5.351  17.221   9.604 -0.0092  0.0709 -0.0081
  546ERGO    C1 8411   5.542  17.247   9.275  0.0682  0.1674  0.0437
  546ERGO    C2 8412   5.583  17.379   8.889 -0.1549 -0.0941  0.3044
  547ERGO   ROH 8413   8.186   0.219  10.389 -0.0177 -0.2371  0.0272
  547ERGO    R1 8414   8.130   0.075  10.152 -0.2338 -0.1367  0.0144
  547ERGO    R2 8415   7.944   0.161   9.966 -0.0971  0.1683  0.0085
  547ERGO    R3 8416   8.153   0.135   9.794 -0.1222 -0.1459  0.0206
  547ERGO    R4 8417   7.928   0.219   9.626  0.0305  0.2637  0.0186
  547ERGO    R5 8418   8.055   0.045   9.595 -0.2562  0.0560 -0.0047
  547ERGO    C1 8419   8.114   0.229   9.266  0.0812  0.0244  0.0360
  547ERGO    C2 8420   8.215   0.212   8.971  0.1835 -0.2312 -0.1818
  548ERGO   ROH 8421   1.829   5.301   9.601  0.1079 -0.3192  0.0264
  548ERGO    R1 8422   1.754   5.382   9.341  0.0318 -0.0029  0.1405
  548ERGO    R2 8423   1.937   5.473   9.155  0.0358 -0.1182  0.0768
  548ERGO    R3 8424   1.829   5.278   9.000 -0.3622  0.1522  0.0037
  548ERGO    R4 8425   1.963   5.458   8.811  0.1599 -0.1444  0.0877
  548ERGO    R5 8426   1.755   5.394   8.803  0.0027  0.3527 -0.0187
  548ERGO    C1 8427   1.876   5.267   8.464 -0.1416  0.0941  0.0255
  548ERGO    C2 8428   2.030   5.400   8.235  0.1747  0.0694 -0.0482
  549ERGO   ROH 8429  12.371  17.079  10.438  0.1419  0.0448  0.1261
  549ERGO    R1 8430  12.418  16.903  10.221  0.1858  0.0773  0.1093
  549ERGO    R2 8431  12.225  16.732  10.123  0.2852 -0.0976  0.2163
  549ERGO    R3 8432  12.283  16.853   9.887  0.0574 -0.0552  0.1798
  549ERGO    R4 8433  12.115  16.624   9.814  0.3076 -0.2736  0.2689
  549ERGO    R5 8434  12.312  16.672   9.733  0.2251 -0.0436  0.1947
  549ERGO    C1 8435  12.106  16.674   9.412  0.1067 -0.3363  0.2651
  549ERGO    C2 8436  12.052  16.745   9.133 -0.0749 -0.4104  0.0704
  550ERGO   ROH 8437  16.128   0.880  10.160  0.2815 -0.0118 -0.0610
  550ERGO    R1 8438  16.019   1.037   9.951 -0.2355 -0.1923  0.0586
  550ERGO    R2 8439  16.156   1.090   9.717 -0.3823  0.4468  0.0982
  550ERGO    R3 8440  15.933   0.988   9.601 -0.0643 -0.2113  0.0180
  550ERGO    R4 8441  16.080   1.114   9.381 -0.4455  0.4448  0.1124
  550ERGO    R5 8442  15.872   1.150   9.436 -0.5906 -0.2709  0.1346
  550ERGO    C1 8443  15.825   1.033   9.076 -0.1838 -0.1741  0.0456
  550ERGO    C2 8444  15.702   0.990   8.767 -0.1626  0.1243 -0.0099
  551ERGO   ROH 8445   9.783   0.269  10.646 -0.1960  0.1477 -0.0678
  551ERGO    R1 8446   9.627   0.183  10.426 -0.0633 -0.0281 -0.0950
  551ERGO    R2 8447   9.503   0.360  10.252 -0.2827 -0.1631 -0.0789
  551ERGO    R3 8448   9.639   0.218  10.064 -0.0748  0.0416 -0.0888
  551ERGO    R4 8449   9.418   0.342   9.918 -0.0151  0.0583 -0.1636
  551ERGO    R5 8450   9.468   0.131   9.921  0.0731  0.0769 -0.2907
  551ERGO    C1 8451   9.495   0.198   9.547  0.3359  0.3795 -0.2223
  551ERGO    C2 8452   9.597   0.203   9.181 -0.0688 -0.3000 -0.3868
  552ERGO   ROH 8453  13.714  12.299  10.170 -0.2236  0.0893  0.0128
  552ERGO    R1 8454  13.803  12.325   9.903 -0.0630 -0.0657  0.0505
  552ERGO    R2 8455  13.747  12.138   9.708 -0.1841 -0.0397  0.0632
  552ERGO    R3 8456  13.650  12.354   9.574  0.1280  0.0478 -0.0304
  552ERGO    R4 8457  13.670  12.142   9.371 -0.2073 -0.0813  0.0669
  552ERGO    R5 8458  13.756  12.343   9.359  0.0952 -0.2128 -0.0360
  552ERGO    C1 8459  13.533  12.347   9.049  0.0722 -0.0235 -0.0187
  552ERGO    C2 8460  13.463  12.294   8.810 -0.0199 -0.1689 -0.2205
  553ERGO   ROH 8461  17.427  12.854   9.721  0.0413  0.0332  0.0988
  553ERGO    R1 8462  17.550  12.931   9.477 -0.0807  0.0775  0.0540
  553ERGO    R2 8463  17.678  12.751   9.311 -0.0077  0.1462  0.0594
  553ERGO    R3 8464  17.508  12.853   9.124 -0.1183 -0.0033  0.0715
  553ERGO    R4 8465  17.718  12.719   8.969  0.1328  0.3389  0.0540
  553ERGO    R5 8466  17.652  12.926   8.947 -0.1575  0.2776  0.1332
  553ERGO    C1 8467  17.582  12.796   8.595  0.1107  0.3108  0.0624
  553ERGO    C2 8468  17.643  12.786   8.293 -0.0273 -0.2404  0.1194
  554ERGO   ROH 8469  10.861  13.582  10.611 -0.2155 -0.0215 -0.0474
  554ERGO    R1 8470  10.987  13.649  10.367  0.0149 -0.2497  0.0033
  554ERGO    R2 8471  10.983  13.482  10.147 -0.1602 -0.2695  0.0138
  554ERGO    R3 8472  10.884  13.702  10.022  0.2582 -0.1064 -0.0482
  554ERGO    R4 8473  10.983  13.531   9.804 -0.0811 -0.3575  0.0012
  554ERGO    R5 8474  11.035  13.740   9.839  0.3245 -0.4459 -0.0639
  554ERGO    C1 8475  10.889  13.766   9.488  0.3576 -0.2556 -0.0644
  554ERGO    C2 8476  10.832  13.585   9.251 -0.0840 -0.0116  0.0673
  555ERGO   ROH 8477   5.543  11.068   9.868  0.4151 -0.0623  0.1033
  555ERGO    R1 8478   5.697  11.152   9.646  0.2606 -0.1000 -0.0200
  555ERGO    R2 8479   5.826  10.974   9.478  0.1716 -0.1275 -0.0594
  555ERGO    R3 8480   5.687  11.107   9.285  0.0291 -0.1924 -0.0037
  555ERGO    R4 8481   5.859  10.919   9.139 -0.0492 -0.2112 -0.0692
  555ERGO    R5 8482   5.846  11.134   9.108 -0.0921 -0.2213 -0.1171
  555ERGO    C1 8483   5.748  11.011   8.760 -0.3115 -0.3211 -0.0226
  555ERGO    C2 8484   5.656  11.131   8.383  0.0010 -0.0020  0.1834
  556ERGO   ROH 8485  12.281  14.054  10.581  0.0677 -0.0240  0.0218
  556ERGO    R1 8486  12.293  14.236  10.364 -0.0686  0.0026  0.0363
  556ERGO    R2 8487  12.454  14.194  10.144 -0.0780  0.1147  0.0107
  556ERGO    R3 8488  12.221  14.228  10.008 -0.1166 -0.0047  0.0452
  556ERGO    R4 8489  12.426  14.203   9.799 -0.0801  0.4228  0.0154
  556ERGO    R5 8490  12.281  14.364   9.820 -0.2599  0.2496  0.1765
  556ERGO    C1 8491  12.192  14.239   9.471 -0.1177  0.4901  0.0505
  556ERGO    C2 8492  12.140  14.244   9.097  0.2021  0.0117  0.1202
  557ERGO   ROH 8493   8.847   0.857  10.652  0.2916  0.3402 -0.0048
  557ERGO    R1 8494   8.874   0.955  10.388  0.2997  0.1387 -0.0809
  557ERGO    R2 8495   9.072   0.867  10.217  0.2213 -0.0956 -0.0587
  557ERGO    R3 8496   8.862   0.816  10.052  0.1606 -0.0947  0.0191
  557ERGO    R4 8497   9.090   0.853   9.872  0.0814 -0.0488 -0.0679
  557ERGO    R5 8498   8.899   0.958   9.863  0.0687 -0.0678  0.0227
  557ERGO    C1 8499   8.903   0.798   9.517 -0.0570 -0.0208 -0.0003
  557ERGO    C2 8500   8.939   0.837   9.193 -0.1916 -0.1218  0.3382
  558ERGO   ROH 8501   7.217   8.236  10.243  0.0445  0.1541 -0.0952
  558ERGO    R1 8502   7.386   8.192  10.020  0.0282  0.1425 -0.1051
  558ERGO    R2 8503   7.332   8.001   9.828  0.1076  0.0089  0.0044
  558ERGO    R3 8504   7.356   8.212   9.658 -0.0548 -0.0631 -0.1107
  558ERGO    R4 8505   7.375   7.975   9.486  0.2625 -0.1469  0.0339
  558ERGO    R5 8506   7.517   8.140   9.496  0.0838  0.0130 -0.0081
  558ERGO    C1 8507   7.422   8.158   9.127  0.2001 -0.3053 -0.0571
  558ERGO    C2 8508   7.386   8.179   8.670 -0.3202  0.2807  0.1019
  559ERGO   ROH 8509  10.635   2.335  10.575 -0.2281 -0.1419  0.0321
  559ERGO    R1 8510  10.699   2.314  10.300 -0.1529 -0.1040  0.0473
  559ERGO    R2 8511  10.566   2.141  10.129 -0.1250 -0.0551 -0.0163
  559ERGO    R3 8512  10.527   2.367   9.983 -0.0537 -0.0285  0.0040
  559ERGO    R4 8513  10.522   2.152   9.786 -0.1811 -0.0271 -0.0091
  559ERGO    R5 8514  10.647   2.330   9.780 -0.1016 -0.0754 -0.0208
  559ERGO    C1 8515  10.460   2.370   9.450 -0.1466  0.0142  0.0144
  559ERGO    C2 8516  10.418   2.325   9.155 -0.1409  0.0184  0.2891
  560ERGO   ROH 8517   2.076   2.937   9.573  0.3298  0.2046 -0.1181
  560ERGO    R1 8518   2.238   2.802   9.385  0.1327 -0.0344 -0.1223
  560ERGO    R2 8519   2.133   2.652   9.177 -0.0929  0.1374 -0.1399
  560ERGO    R3 8520   2.291   2.812   9.025  0.1612 -0.0868 -0.1188
  560ERGO    R4 8521   2.217   2.591   8.848 -0.2956  0.1175 -0.1883
  560ERGO    R5 8522   2.419   2.660   8.891 -0.1523 -0.2689 -0.2170
  560ERGO    C1 8523   2.413   2.706   8.512 -0.1751 -0.1046 -0.1967
  560ERGO    C2 8524   2.561   2.535   8.347  0.1850  0.0639 -0.0507
  561ERGO   ROH 8525   8.858  16.224  10.632  0.2456 -0.1849 -0.0650
  561ERGO    R1 8526   9.006  16.217  10.390  0.1496 -0.2851 -0.1239
  561ERGO    R2 8527   8.950  16.039  10.187 -0.0273 -0.2778 -0.0953
  561ERGO    R3 8528   8.936  16.264  10.036  0.0311 -0.2774 -0.0973
  561ERGO    R4 8529   8.968  16.047   9.842  0.1833 -0.2488 -0.0833
  561ERGO    R5 8530   9.091  16.227   9.858  0.1406 -0.2378 -0.0023
  561ERGO    C1 8531   8.966  16.264   9.500  0.3608 -0.2315 -0.0782
  561ERGO    C2 8532   9.001  16.216   9.173  0.0732 -0.3255  0.0613
  562ERGO   ROH 8533  16.177  11.611   9.682  0.1921  0.0057  0.1029
  562ERGO    R1 8534  16.252  11.589   9.410  0.1582  0.1377  0.0829
  562ERGO    R2 8535  16.120  11.424   9.232  0.2699  0.0633  0.0717
  562ERGO    R3 8536  16.097  11.652   9.087  0.0378  0.0783  0.1281
  562ERGO    R4 8537  16.071  11.436   8.890  0.1657  0.0981  0.0871
  562ERGO    R5 8538  16.210  11.604   8.881  0.0241  0.2185  0.0856
  562ERGO    C1 8539  16.020  11.658   8.555 -0.1126  0.1325  0.1490
  562ERGO    C2 8540  15.818  11.456   8.374  0.0994 -0.2856  0.1358
  563ERGO   ROH 8541  11.010  16.964  10.611 -0.0616 -0.0534  0.1101
  563ERGO    R1 8542  11.040  17.093  10.361  0.0433 -0.0521  0.1224
  563ERGO    R2 8543  11.259  17.051  10.196 -0.0181 -0.2632  0.0881
  563ERGO    R3 8544  11.067  16.991  10.013 -0.1083 -0.0400  0.1071
  563ERGO    R4 8545  11.313  17.015   9.857 -0.1338 -0.1491  0.0572
  563ERGO    R5 8546  11.126  17.120   9.820 -0.0656  0.0032  0.1514
  563ERGO    C1 8547  11.165  16.939   9.487 -0.2858  0.1267  0.0570
  563ERGO    C2 8548  11.071  16.957   9.153 -0.0260  0.0424  0.0111
  564ERGO   ROH 8549   2.039  15.674   9.880 -0.1568  0.1686  0.0267
  564ERGO    R1 8550   1.949  15.612   9.619 -0.0835  0.0705  0.0245
  564ERGO    R2 8551   1.888  15.806   9.432 -0.0218 -0.0006 -0.0680
  564ERGO    R3 8552   2.065  15.668   9.279  0.0166 -0.0672  0.0346
  564ERGO    R4 8553   1.931  15.851   9.093  0.0439 -0.1587 -0.0817
  564ERGO    R5 8554   1.949  15.635   9.071  0.0583 -0.1708  0.0255
  564ERGO    C1 8555   2.122  15.748   8.751  0.1183 -0.3133  0.0066
  564ERGO    C2 8556   2.049  15.753   8.433 -0.4458  0.0858 -0.4095
  565ERGO   ROH 8557   5.850   4.278  10.220 -0.0378  0.1673 -0.0805
  565ERGO    R1 8558   5.706   4.259   9.977 -0.0189  0.1563 -0.0901
  565ERGO    R2 8559   5.782   4.395   9.748  0.0928  0.0156 -0.1340
  565ERGO    R3 8560   5.774   4.147   9.637 -0.0471 -0.0250 -0.0380
  565ERGO    R4 8561   5.841   4.326   9.415  0.1612 -0.1530 -0.0890
  565ERGO    R5 8562   5.677   4.182   9.421  0.0512 -0.0358 -0.0873
  565ERGO    C1 8563   5.868   4.054   9.116  0.0696 -0.2892  0.0274
  565ERGO    C2 8564   5.964   3.965   8.973 -0.1587  0.1504 -0.2024
  566ERGO   ROH 8565   8.413  12.056  10.423 -0.0309  0.1478  0.2267
  566ERGO    R1 8566   8.290  12.181  10.201 -0.0466  0.0417  0.1744
  566ERGO    R2 8567   8.435  12.288   9.992 -0.0563  0.0397  0.1652
  566ERGO    R3 8568   8.275  12.127   9.841  0.0256 -0.0621  0.1871
  566ERGO    R4 8569   8.434  12.278   9.646  0.0367 -0.0987  0.1687
  566ERGO    R5 8570   8.217  12.262   9.652  0.0398 -0.1533  0.1176
  566ERGO    C1 8571   8.284  12.121   9.304  0.1676 -0.2748  0.1910
  566ERGO    C2 8572   8.468  12.111   8.982 -0.0129  0.1942 -0.3145
  567ERGO   ROH 8573  14.699   0.286  10.219 -0.0926  0.0930 -0.2203
  567ERGO    R1 8574  14.583   0.352   9.969 -0.0017  0.0199 -0.2819
  567ERGO    R2 8575  14.689   0.546   9.804 -0.0355  0.0852 -0.2241
  567ERGO    R3 8576  14.687   0.345   9.620  0.1879  0.0841 -0.2289
  567ERGO    R4 8577  14.657   0.591   9.462 -0.2455  0.0572 -0.2099
  567ERGO    R5 8578  14.527   0.417   9.456  0.0081 -0.1438 -0.1605
  567ERGO    C1 8579  14.637   0.429   9.091 -0.1580  0.0399 -0.2063
  567ERGO    C2 8580  14.650   0.462   8.615  0.1297  0.3197  0.1454
  568ERGO   ROH 8581   0.333   5.975   9.197  0.1070 -0.0108  0.0239
  568ERGO    R1 8582   0.332   5.850   8.944 -0.0232 -0.0107  0.0225
  568ERGO    R2 8583   0.187   5.948   8.729 -0.0375  0.0612  0.0578
  568ERGO    R3 8584   0.429   5.939   8.604 -0.0728 -0.0530 -0.0013
  568ERGO    R4 8585   0.237   6.008   8.393 -0.0759  0.0819  0.0565
  568ERGO    R5 8586   0.381   5.844   8.390 -0.1701  0.0073 -0.0023
  568ERGO    C1 8587   0.493   6.034   8.079 -0.1314 -0.0132  0.0004
  568ERGO    C2 8588   0.640   5.998   7.773  0.0509 -0.0287 -0.0939
  569ERGO   ROH 8589  14.417   6.796  10.335  0.2160  0.0043 -0.0056
  569ERGO    R1 8590  14.271   6.837  10.096  0.1503 -0.0759  0.0210
  569ERGO    R2 8591  14.368   6.989   9.887  0.0406 -0.0476 -0.0051
  569ERGO    R3 8592  14.317   6.764   9.743  0.1104 -0.0776  0.0150
  569ERGO    R4 8593  14.327   6.980   9.544 -0.0389 -0.0706  0.0044
  569ERGO    R5 8594  14.165   6.837   9.572  0.0319 -0.1491  0.0497
  569ERGO    C1 8595  14.255   6.764   9.209 -0.0196 -0.1122  0.0289
  569ERGO    C2 8596  14.133   6.664   8.891 -0.1962  0.0449  0.1829
  570ERGO   ROH 8597  11.418   0.125  10.292  0.0639  0.2092 -0.0259
  570ERGO    R1 8598  11.346   0.182  10.024  0.1361  0.1897 -0.0490
  570ERGO    R2 8599  11.534   0.238   9.829  0.2074 -0.1034 -0.0661
  570ERGO    R3 8600  11.409   0.036   9.697 -0.0264 -0.0110  0.0067
  570ERGO    R4 8601  11.483   0.227   9.488 -0.0511 -0.0376 -0.0325
  570ERGO    R5 8602  11.285   0.146   9.525 -0.0824  0.0905  0.1076
  570ERGO    C1 8603  11.337   0.031   9.165 -0.4210  0.0875  0.0556
  570ERGO    C2 8604  11.504   0.124   8.920 -0.0881 -0.0692 -0.0561
  571ERGO   ROH 8605  11.208   6.856  10.410 -0.2704 -0.0565 -0.0992
  571ERGO    R1 8606  11.379   6.859  10.184 -0.2045  0.2657 -0.0517
  571ERGO    R2 8607  11.362   6.670   9.982  0.2815  0.1521 -0.0041
  571ERGO    R3 8608  11.341   6.890   9.824 -0.1822  0.0678 -0.0713
  571ERGO    R4 8609  11.375   6.667   9.637  0.3466  0.0850 -0.0007
  571ERGO    R5 8610  11.494   6.849   9.645 -0.0571  0.3578 -0.0319
  571ERGO    C1 8611  11.363   6.871   9.287 -0.0508 -0.0332 -0.0617
  571ERGO    C2 8612  11.338   6.765   8.935 -0.0153 -0.1005  0.0066
  572ERGO   ROH 8613   1.149  15.110   9.872 -0.2400 -0.0009 -0.0603
  572ERGO    R1 8614   1.245  15.129   9.606 -0.3066  0.2130 -0.0717
  572ERGO    R2 8615   1.235  14.918   9.429  0.1273  0.1870 -0.0775
  572ERGO    R3 8616   1.104  15.097   9.271 -0.2820 -0.0801 -0.0568
  572ERGO    R4 8617   1.232  14.911   9.083  0.4046  0.3732 -0.0855
  572ERGO    R5 8618   1.251  15.128   9.084 -0.2173  0.4486  0.0638
  572ERGO    C1 8619   1.108  15.075   8.734  0.1818  0.2309 -0.0707
  572ERGO    C2 8620   1.249  15.118   8.408  0.1069 -0.0047  0.2626
  573ERGO   ROH 8621   9.403   3.797  10.610  0.3047 -0.1823  0.1026
  573ERGO    R1 8622   9.406   3.657  10.364  0.0340 -0.1686  0.0882
  573ERGO    R2 8623   9.197   3.669  10.182 -0.0276  0.1019  0.1730
  573ERGO    R3 8624   9.394   3.743  10.010 -0.0033 -0.1243  0.1001
  573ERGO    R4 8625   9.190   3.619   9.841 -0.2517  0.1850  0.1642
  573ERGO    R5 8626   9.401   3.567   9.848 -0.3142 -0.1020  0.0564
  573ERGO    C1 8627   9.370   3.660   9.480 -0.3592  0.0211  0.0907
  573ERGO    C2 8628   9.276   3.763   9.219 -0.1855 -0.4297 -0.1111
  574ERGO   ROH 8629  16.285  15.761  10.015  0.3328  0.0231 -0.0228
  574ERGO    R1 8630  16.199  15.699   9.752  0.2957 -0.1266  0.0225
  574ERGO    R2 8631  16.185  15.889   9.552 -0.0960 -0.1544  0.0132
  574ERGO    R3 8632  16.341  15.712   9.418  0.1154  0.0747 -0.0484
  574ERGO    R4 8633  16.183  15.845   9.210 -0.1663 -0.1516  0.0139
  574ERGO    R5 8634  16.201  15.630   9.242  0.1638 -0.1310  0.0063
  574ERGO    C1 8635  16.329  15.654   8.883 -0.0086  0.0652 -0.0435
  574ERGO    C2 8636  16.490  15.532   8.571  0.0310 -0.0753  0.1577
  575ERGO   ROH 8637   6.546  16.548  10.234  0.0685  0.0503 -0.0639
  575ERGO    R1 8638   6.561  16.434   9.976 -0.0463 -0.0332 -0.0345
  575ERGO    R2 8639   6.370  16.481   9.781  0.0410  0.1767 -0.0749
  575ERGO    R3 8640   6.586  16.556   9.634  0.1679 -0.1457 -0.0594
  575ERGO    R4 8641   6.371  16.520   9.438  0.1535  0.1024 -0.0835
  575ERGO    R5 8642   6.568  16.427   9.433  0.0293 -0.1647 -0.0329
  575ERGO    C1 8643   6.574  16.613   9.100  0.3382 -0.2435 -0.0740
  575ERGO    C2 8644   6.619  16.583   8.740 -0.1129  0.0326  0.3264
  576ERGO   ROH 8645   3.356  14.131  10.005 -0.0008 -0.4514  0.1178
  576ERGO    R1 8646   3.516  14.249   9.803 -0.2403 -0.1569  0.0932
  576ERGO    R2 8647   3.720  14.113   9.676  0.1001  0.2543  0.1743
  576ERGO    R3 8648   3.586  14.188   9.452 -0.0537 -0.1389  0.1268
  576ERGO    R4 8649   3.863  14.152   9.364 -0.0602 -0.0245  0.0628
  576ERGO    R5 8650   3.740  14.329   9.335 -0.2157 -0.1591 -0.1161
  576ERGO    C1 8651   3.821  14.245   8.971 -0.2978 -0.5558 -0.0469
  576ERGO    C2 8652   3.808  14.241   8.686 -0.3316  0.2136 -0.2496
  577ERGO   ROH 8653  15.989  16.824   9.854 -0.2830 -0.2876 -0.1635
  577ERGO    R1 8654  15.922  16.746   9.590 -0.1678 -0.1511 -0.2339
  577ERGO    R2 8655  15.856  16.929   9.393 -0.0797 -0.0507 -0.1661
  577ERGO    R3 8656  16.054  16.803   9.256 -0.0222  0.0202 -0.1503
  577ERGO    R4 8657  15.902  16.949   9.051  0.0310  0.0981 -0.1439
  577ERGO    R5 8658  15.950  16.736   9.050  0.0477  0.0973 -0.2150
  577ERGO    C1 8659  16.115  16.843   8.723  0.1496  0.2511 -0.1161
  577ERGO    C2 8660  16.155  16.900   8.360 -0.1939  0.0028  0.0559
  578ERGO   ROH 8661  11.696   6.941  10.498  0.1725 -0.0503 -0.0291
  578ERGO    R1 8662  11.761   7.106  10.277  0.0531 -0.0019 -0.0278
  578ERGO    R2 8663  11.914   7.017  10.065  0.1194  0.1111 -0.0251
  578ERGO    R3 8664  11.702   7.101   9.918  0.0587 -0.0430 -0.0287
  578ERGO    R4 8665  11.916   7.059   9.722  0.0579 -0.0045 -0.0407
  578ERGO    R5 8666  11.798   7.240   9.749 -0.0292 -0.0515 -0.0880
  578ERGO    C1 8667  11.717   7.162   9.384 -0.0349 -0.2165 -0.0531
  578ERGO    C2 8668  11.668   7.148   9.047 -0.1381  0.1799 -0.4238
  579ERGO   ROH 8669   4.806   8.012  10.260  0.1386  0.0430  0.1732
  579ERGO    R1 8670   4.994   7.984  10.050  0.0449  0.1118  0.0787
  579ERGO    R2 8671   4.979   7.781   9.863  0.0927  0.0347  0.1577
  579ERGO    R3 8672   4.987   7.988   9.686 -0.1596 -0.0193  0.0796
  579ERGO    R4 8673   5.045   7.749   9.525  0.5160  0.0168  0.2368
  579ERGO    R5 8674   5.165   7.931   9.537  0.1268  0.2848  0.2904
  579ERGO    C1 8675   5.091   7.925   9.162  0.5257 -0.0444  0.2096
  579ERGO    C2 8676   5.164   7.923   8.908 -0.0066 -0.2837  0.6455
  580ERGO   ROH 8677  16.804   5.975   9.770 -0.2344  0.0975  0.1217
  580ERGO    R1 8678  16.745   5.856   9.520  0.0370  0.0643  0.0720
  580ERGO    R2 8679  16.538   5.942   9.358 -0.0612 -0.2366  0.0404
  580ERGO    R3 8680  16.735   5.962   9.172 -0.0388  0.1404  0.0953
  580ERGO    R4 8681  16.486   5.985   9.020 -0.0651 -0.3724  0.0226
  580ERGO    R5 8682  16.649   5.846   8.982  0.2373 -0.0601  0.0810
  580ERGO    C1 8683  16.641   6.029   8.647 -0.0464 -0.0976  0.0636
  580ERGO    C2 8684  16.451   6.084   8.454  0.0121 -0.2006  0.0483
  581ERGO   ROH 8685   9.326   6.971  10.634 -0.0829  0.0464 -0.0865
  581ERGO    R1 8686   9.437   7.065  10.391 -0.0165 -0.0205 -0.0831
  581ERGO    R2 8687   9.584   6.903  10.222 -0.0021 -0.0788 -0.0198
  581ERGO    R3 8688   9.403   6.987  10.038  0.0474 -0.0910 -0.0732
  581ERGO    R4 8689   9.625   6.879   9.880  0.0456 -0.1824 -0.0066
  581ERGO    R5 8690   9.536   7.077   9.860  0.0934 -0.1706 -0.0770
  581ERGO    C1 8691   9.479   6.944   9.507  0.1200 -0.2541 -0.0492
  581ERGO    C2 8692   9.571   6.963   9.159  0.0502  0.2302  0.1640
  582ERGO   ROH 8693   8.988   7.282  10.448  0.1549 -0.1247 -0.0097
  582ERGO    R1 8694   9.054   7.170  10.196 -0.0406 -0.1755 -0.0396
  582ERGO    R2 8695   8.874   7.020  10.049 -0.2558  0.0444 -0.0093
  582ERGO    R3 8696   8.933   7.200   9.854 -0.0990 -0.0008 -0.0043
  582ERGO    R4 8697   8.909   6.945   9.713 -0.2738  0.0170 -0.0051
  582ERGO    R5 8698   9.078   7.082   9.705 -0.1706 -0.1094  0.0123
  582ERGO    C1 8699   8.986   7.071   9.335 -0.1372 -0.0413  0.0021
  582ERGO    C2 8700   9.095   7.154   9.055 -0.1762  0.0585 -0.1826
  583ERGO   ROH 8701   6.531   9.141  10.350 -0.1251 -0.0670  0.0397
  583ERGO    R1 8702   6.697   9.047  10.141 -0.1146 -0.0880  0.0588
  583ERGO    R2 8703   6.655   8.804  10.015 -0.2195 -0.0141 -0.0419
  583ERGO    R3 8704   6.656   8.958   9.791 -0.0545  0.0663  0.0108
  583ERGO    R4 8705   6.734   8.692   9.698 -0.1482  0.0559 -0.0505
  583ERGO    R5 8706   6.842   8.878   9.664 -0.0406  0.0176  0.0572
  583ERGO    C1 8707   6.780   8.771   9.303  0.0482  0.1721 -0.0059
  583ERGO    C2 8708   6.779   8.797   8.982  0.2491 -0.0979  0.1926
  584ERGO   ROH 8709   2.294  14.855  10.080 -0.4918 -0.0969  0.0777
  584ERGO    R1 8710   2.460  14.908   9.857 -0.3508  0.0886  0.2238
  584ERGO    R2 8711   2.501  14.724   9.656  0.0984  0.0988  0.2949
  584ERGO    R3 8712   2.420  14.929   9.496 -0.0406 -0.0444  0.1788
  584ERGO    R4 8713   2.614  14.780   9.333  0.2684  0.1510  0.3619
  584ERGO    R5 8714   2.618  14.994   9.377 -0.0312  0.1704  0.3086
  584ERGO    C1 8715   2.602  15.005   8.996  0.2369  0.0467  0.2920
  584ERGO    C2 8716   2.556  15.080   8.606 -0.2341  0.4206 -0.0217
  585ERGO   ROH 8717  15.257  11.873   9.785 -0.0057  0.4219  0.0005
  585ERGO    R1 8718  15.284  11.842   9.505  0.0534  0.2614  0.0219
  585ERGO    R2 8719  15.120  11.676   9.357  0.1066  0.1457  0.0847
  585ERGO    R3 8720  15.077  11.902   9.212  0.0991  0.0571 -0.0519
  585ERGO    R4 8721  15.044  11.684   9.020  0.1396 -0.0477  0.0722
  585ERGO    R5 8722  15.176  11.856   8.998  0.1217 -0.0510 -0.0143
  585ERGO    C1 8723  14.960  11.900   8.687  0.1519 -0.2435 -0.0634
  585ERGO    C2 8724  14.873  11.883   8.350  0.0377  0.2186 -0.0975
  586ERGO   ROH 8725   0.213   7.014   9.248 -0.0235  0.2222 -0.0208
  586ERGO    R1 8726   0.206   6.873   9.003  0.1436  0.0478  0.0736
  586ERGO    R2 8727   0.024   6.929   8.803  0.0039 -0.3716  0.0762
  586ERGO    R3 8728   0.248   6.953   8.651 -0.0646 -0.1168  0.0088
  586ERGO    R4 8729   0.027   7.014   8.468 -0.1784 -0.1549  0.1264
  586ERGO    R5 8730   0.183   6.866   8.437 -0.0820 -0.0280 -0.0248
  586ERGO    C1 8731   0.238   7.085   8.130 -0.3490  0.2106  0.0924
  586ERGO    C2 8732   0.224   7.350   7.820 -0.2850  0.1852 -0.3635
  587ERGO   ROH 8733  15.921   4.520  10.194  0.1029 -0.1923 -0.1463
  587ERGO    R1 8734  15.817   4.354   9.990  0.1011 -0.1582 -0.1740
  587ERGO    R2 8735  15.597   4.424   9.839  0.0159 -0.1923 -0.0723
  587ERGO    R3 8736  15.765   4.379   9.630 -0.0341 -0.0402 -0.1461
  587ERGO    R4 8737  15.514   4.464   9.506 -0.0770 -0.0128 -0.0284
  587ERGO    R5 8738  15.626   4.283   9.461 -0.0588  0.0357 -0.1655
  587ERGO    C1 8739  15.624   4.445   9.116 -0.1782  0.2346 -0.0721
  587ERGO    C2 8740  15.541   4.533   8.831 -0.0444 -0.0785 -0.1451
  588ERGO   ROH 8741   0.238   3.981   9.553 -0.0736  0.0555  0.0044
  588ERGO    R1 8742   0.238   4.063   9.282 -0.0622  0.0659  0.0079
  588ERGO    R2 8743   0.398   3.944   9.090 -0.0917  0.0406  0.0015
  588ERGO    R3 8744   0.161   3.912   8.960 -0.1006  0.0949  0.0026
  588ERGO    R4 8745   0.349   4.003   8.753 -0.0437 -0.0713 -0.0258
  588ERGO    R5 8746   0.156   4.092   8.802 -0.0085  0.0372 -0.0704
  588ERGO    C1 8747   0.099   4.008   8.434 -0.0241 -0.0854 -0.0407
  588ERGO    C2 8748   0.080   4.116   8.101  0.0218  0.1195  0.1035
  589ERGO   ROH 8749   1.658  11.662   9.520  0.1727 -0.0432  0.1896
  589ERGO    R1 8750   1.805  11.501   9.340  0.0572  0.0123  0.0429
  589ERGO    R2 8751   1.687  11.372   9.126 -0.0853  0.0668  0.0841
  589ERGO    R3 8752   1.878  11.502   8.984 -0.1870  0.1161 -0.0084
  589ERGO    R4 8753   1.772  11.303   8.798 -0.0957 -0.0313  0.1018
  589ERGO    R5 8754   1.981  11.332   8.851 -0.1060  0.1185  0.0536
  589ERGO    C1 8755   2.001  11.386   8.474 -0.1972 -0.0422  0.0251
  589ERGO    C2 8756   2.039  11.274   8.198  0.0833 -0.0101  0.0267
  590ERGO   ROH 8757  17.249  11.860   9.456 -0.1667 -0.0046 -0.0646
  590ERGO    R1 8758  17.176  11.788   9.192 -0.1031 -0.1659 -0.0403
  590ERGO    R2 8759  17.173  11.970   8.984 -0.3195 -0.2273 -0.0979
  590ERGO    R3 8760  17.336  11.788   8.865 -0.1187 -0.0832 -0.0472
  590ERGO    R4 8761  17.175  11.898   8.646 -0.1377 -0.2229 -0.0980
  590ERGO    R5 8762  17.199  11.687   8.696  0.0297 -0.2012 -0.0958
  590ERGO    C1 8763  17.328  11.684   8.337  0.1566 -0.0850 -0.0505
  590ERGO    C2 8764  17.246  11.662   8.022  0.0471  0.1336 -0.1759
  591ERGO   ROH 8765  14.706   1.766  10.082  0.2519 -0.1786  0.0587
  591ERGO    R1 8766  14.720   1.872   9.820  0.0464 -0.0429  0.0982
  591ERGO    R2 8767  14.921   1.802   9.642  0.0124  0.1813 -0.0401
  591ERGO    R3 8768  14.711   1.740   9.481 -0.0280  0.1071  0.0423
  591ERGO    R4 8769  14.912   1.853   9.301 -0.1392  0.1595 -0.0389
  591ERGO    R5 8770  14.705   1.916   9.320 -0.1484  0.0927  0.0357
  591ERGO    C1 8771  14.710   1.823   8.950 -0.2653  0.0773  0.0392
  591ERGO    C2 8772  14.670   1.886   8.592  0.0550 -0.2612 -0.0549
  592ERGO   ROH 8773   1.653   6.303   9.748  0.2883 -0.2238  0.1375
  592ERGO    R1 8774   1.736   6.433   9.511 -0.0041  0.0653  0.1870
  592ERGO    R2 8775   1.792   6.297   9.277  0.3859  0.2645  0.1562
  592ERGO    R3 8776   1.611   6.470   9.171 -0.0528 -0.1569  0.1791
  592ERGO    R4 8777   1.755   6.362   8.940  0.2788  0.2749  0.1693
  592ERGO    R5 8778   1.727   6.573   8.989 -0.2741  0.2035  0.2300
  592ERGO    C1 8779   1.564   6.563   8.644 -0.1954 -0.1146  0.1984
  592ERGO    C2 8780   1.507   6.322   8.311  0.3989 -0.1393  0.0512
  593ERGO   ROH 8781   1.992  10.619   9.500 -0.0476  0.1351  0.0643
  593ERGO    R1 8782   2.146  10.601   9.264 -0.0865  0.0675  0.0445
  593ERGO    R2 8783   2.231  10.360   9.160 -0.2068  0.0332  0.0347
  593ERGO    R3 8784   2.109  10.452   8.934 -0.1930  0.0846  0.0472
  593ERGO    R4 8785   2.324  10.277   8.837 -0.0955  0.2070  0.0204
  593ERGO    R5 8786   2.289  10.484   8.779 -0.1649  0.2233  0.1027
  593ERGO    C1 8787   2.264  10.315   8.438 -0.0178  0.3565  0.0238
  593ERGO    C2 8788   2.230  10.312   8.119 -0.3052 -0.1739  0.0580
  594ERGO   ROH 8789   9.246   2.353  10.742  0.1292  0.0250  0.0655
  594ERGO    R1 8790   9.436   2.341  10.533  0.0381  0.0600 -0.0194
  594ERGO    R2 8791   9.478   2.113  10.382  0.1004  0.0293  0.0454
  594ERGO    R3 8792   9.430   2.280  10.174 -0.0954 -0.0741  0.0044
  594ERGO    R4 8793   9.574   2.054  10.055 -0.0219 -0.0354  0.0203
  594ERGO    R5 8794   9.627   2.264  10.038 -0.1502 -0.0104 -0.0835
  594ERGO    C1 8795   9.584   2.177   9.669 -0.2769 -0.1701 -0.0327
  594ERGO    C2 8796   9.666   2.198   9.290 -0.0014 -0.1468 -0.2973
  595ERGO   ROH 8797   4.061  11.715   9.973  0.0780 -0.1379 -0.0933
  595ERGO    R1 8798   4.186  11.609   9.742  0.0456 -0.2034 -0.0805
  595ERGO    R2 8799   4.047  11.558   9.508  0.0507 -0.0866 -0.1072
  595ERGO    R3 8800   4.239  11.716   9.398  0.1802 -0.2095 -0.0632
  595ERGO    R4 8801   4.127  11.566   9.172 -0.0977  0.0938 -0.1399
  595ERGO    R5 8802   4.337  11.580   9.227 -0.0509 -0.1883 -0.2210
  595ERGO    C1 8803   4.353  11.720   8.873 -0.0625  0.0835 -0.1176
  595ERGO    C2 8804   4.317  11.691   8.600  0.3061 -0.1477  0.3032
  596ERGO   ROH 8805   1.474  17.023   9.900  0.1716 -0.1029 -0.0375
  596ERGO    R1 8806   1.425  16.905   9.647  0.0884 -0.1483 -0.0026
  596ERGO    R2 8807   1.285  17.034   9.447 -0.0736 -0.2225  0.0504
  596ERGO    R3 8808   1.507  16.979   9.300 -0.1216 -0.1422 -0.0496
  596ERGO    R4 8809   1.301  17.045   9.102 -0.1302  0.1067  0.0571
  596ERGO    R5 8810   1.423  16.865   9.107 -0.1842  0.0723 -0.1447
  596ERGO    C1 8811   1.518  17.001   8.763 -0.2082  0.3736 -0.0328
  596ERGO    C2 8812   1.488  17.054   8.469 -0.0393 -0.0963  0.2551
  597ERGO   ROH 8813  15.907   8.225  10.070  0.2259  0.1332  0.0198
  597ERGO    R1 8814  15.821   8.124   9.820  0.1839  0.0450  0.0709
  597ERGO    R2 8815  15.664   8.269   9.646  0.0519 -0.0666  0.1045
  597ERGO    R3 8816  15.863   8.214   9.470  0.0106 -0.0032  0.0351
  597ERGO    R4 8817  15.616   8.195   9.312 -0.0351  0.1108  0.0754
  597ERGO    R5 8818  15.772   8.043   9.329 -0.0471  0.0768 -0.0331
  597ERGO    C1 8819  15.776   8.100   8.952 -0.1246  0.2735 -0.0069
  597ERGO    C2 8820  15.715   8.230   8.670 -0.3161  0.1271  0.0147
  598ERGO   ROH 8821  15.976  14.391   9.811 -0.0865  0.0727  0.1023
  598ERGO    R1 8822  15.978  14.231   9.578  0.2038 -0.0134  0.1631
  598ERGO    R2 8823  15.907  14.328   9.330 -0.0026 -0.2402  0.1404
  598ERGO    R3 8824  16.151  14.232   9.258  0.1818  0.1936  0.1475
  598ERGO    R4 8825  16.001  14.254   9.006  0.0433 -0.2824  0.1615
  598ERGO    R5 8826  16.103  14.076   9.081  0.4301 -0.0390  0.2685
  598ERGO    C1 8827  16.285  14.121   8.749  0.2430  0.1005  0.1805
  598ERGO    C2 8828  16.208  14.129   8.418  0.2892  0.1254 -0.0819
  599ERGO   ROH 8829  12.427   1.641  10.534 -0.1432  0.0240 -0.2349
  599ERGO    R1 8830  12.254   1.667  10.312 -0.0849  0.3208 -0.2476
  599ERGO    R2 8831  12.255   1.889  10.147  0.4945  0.2119 -0.4014
  599ERGO    R3 8832  12.289   1.703   9.951  0.0091 -0.0244 -0.2788
  599ERGO    R4 8833  12.099   1.896   9.839  0.4158  0.3598 -0.3602
  599ERGO    R5 8834  12.072   1.681   9.853 -0.0901  0.4146 -0.1951
  599ERGO    C1 8835  12.040   1.726   9.476 -0.0857  0.2241 -0.2211
  599ERGO    C2 8836  11.944   1.771   9.087  0.3175  0.0626 -0.2682
  600ERGO   ROH 8837  16.885  13.789   9.677 -0.1428 -0.2320  0.0017
  600ERGO    R1 8838  16.992  13.708   9.428 -0.0144 -0.1728  0.0360
  600ERGO    R2 8839  16.852  13.549   9.250  0.0705 -0.1235 -0.0819
  600ERGO    R3 8840  16.907  13.752   9.077  0.1704 -0.0782  0.0030
  600ERGO    R4 8841  16.954  13.508   8.922  0.2801 -0.0280 -0.0299
  600ERGO    R5 8842  17.094  13.673   8.950  0.2524 -0.0312  0.0991
  600ERGO    C1 8843  17.065  13.673   8.569  0.4959  0.0702  0.0801
  600ERGO    C2 8844  17.040  13.582   8.218 -0.1918 -0.0808  0.1036
  601ERGO   ROH 8845   0.833   4.778   9.332 -0.1466 -0.1675  0.0902
  601ERGO    R1 8846   0.991   4.778   9.097 -0.1476 -0.0601  0.0888
  601ERGO    R2 8847   1.080   4.546   8.977  0.1070  0.0002  0.1530
  601ERGO    R3 8848   0.960   4.651   8.757 -0.0132 -0.1911  0.1246
  601ERGO    R4 8849   1.100   4.412   8.659  0.3228 -0.0209  0.1743
  601ERGO    R5 8850   1.118   4.615   8.581  0.0577 -0.0036  0.1480
  601ERGO    C1 8851   0.999   4.434   8.267  0.3355 -0.2129  0.1600
  601ERGO    C2 8852   0.916   4.306   8.054 -0.0157 -0.0064 -0.3100
  602ERGO   ROH 8853   3.523   9.468   9.735 -0.2682 -0.0385  0.0094
  602ERGO    R1 8854   3.638   9.293   9.543 -0.0978  0.1035 -0.0198
  602ERGO    R2 8855   3.490   9.102   9.409  0.1142 -0.1147  0.0563
  602ERGO    R3 8856   3.593   9.224   9.189 -0.1396  0.0113  0.0022
  602ERGO    R4 8857   3.468   8.980   9.086  0.0114 -0.0950  0.0547
  602ERGO    R5 8858   3.674   9.044   9.053 -0.0633  0.0981 -0.0729
  602ERGO    C1 8859   3.553   9.023   8.692 -0.2866  0.0349  0.0030
  602ERGO    C2 8860   3.595   8.860   8.349  0.0218 -0.2730  0.1594
  603ERGO   ROH 8861   0.531  14.379   9.817  0.2209  0.0587  0.1933
  603ERGO    R1 8862   0.462  14.248   9.576  0.1216  0.0409  0.2311
  603ERGO    R2 8863   0.352  14.381   9.361  0.1476  0.0481  0.2229
  603ERGO    R3 8864   0.560  14.269   9.226  0.0750 -0.0750  0.2105
  603ERGO    R4 8865   0.394  14.394   9.018  0.0785 -0.0757  0.2089
  603ERGO    R5 8866   0.461  14.186   9.023 -0.0012 -0.1004  0.2580
  603ERGO    C1 8867   0.613  14.297   8.691 -0.0299 -0.2634  0.1891
  603ERGO    C2 8868   0.541  14.134   8.393  0.0159 -0.0390 -0.1515
  604ERGO   ROH 8869  15.813   9.848   9.918 -0.0856  0.1441 -0.0452
  604ERGO    R1 8870  15.627   9.856   9.705 -0.1229 -0.0074 -0.0206
  604ERGO    R2 8871  15.512  10.091   9.616 -0.2138 -0.0775 -0.1078
  604ERGO    R3 8872  15.608  10.008   9.376 -0.2203 -0.1553 -0.0828
  604ERGO    R4 8873  15.377  10.177   9.310 -0.0757  0.0062 -0.1452
  604ERGO    R5 8874  15.412   9.973   9.243 -0.2106 -0.0169 -0.1283
  604ERGO    C1 8875  15.388  10.151   8.906 -0.0014 -0.0180 -0.1434
  604ERGO    C2 8876  15.255  10.252   8.646 -0.0490  0.3182  0.1356
  605ERGO   ROH 8877  10.380   1.390  10.543 -0.0208 -0.0091 -0.0742
  605ERGO    R1 8878  10.230   1.472  10.317 -0.0550 -0.1749 -0.1122
  605ERGO    R2 8879  10.336   1.633  10.119 -0.1887 -0.0389 -0.0680
  605ERGO    R3 8880  10.252   1.431   9.956  0.0952 -0.1282 -0.1112
  605ERGO    R4 8881  10.331   1.646   9.773 -0.3533  0.1087 -0.0616
  605ERGO    R5 8882  10.139   1.543   9.777 -0.1823 -0.2382 -0.0182
  605ERGO    C1 8883  10.249   1.465   9.420 -0.1827  0.1109 -0.0982
  605ERGO    C2 8884  10.292   1.587   9.147 -0.1776  0.0218  0.1400
  606ERGO   ROH 8885   6.321   9.604  10.291 -0.1457  0.1323 -0.1554
  606ERGO    R1 8886   6.283   9.422  10.077 -0.1104  0.0302 -0.0762
  606ERGO    R2 8887   6.087   9.458   9.886 -0.0291 -0.0193 -0.1691
  606ERGO    R3 8888   6.296   9.436   9.714  0.0303 -0.1626 -0.0803
  606ERGO    R4 8889   6.061   9.468   9.541  0.1514  0.3030 -0.1762
  606ERGO    R5 8890   6.209   9.309   9.530 -0.0583  0.1050 -0.2303
  606ERGO    C1 8891   6.242   9.454   9.179  0.3122  0.3561 -0.0971
  606ERGO    C2 8892   6.238   9.434   8.804 -0.0754 -0.0132 -0.0895
  607ERGO   ROH 8893   7.629   3.502  10.367  0.1870  0.0533  0.1193
  607ERGO    R1 8894   7.636   3.676  10.143  0.3037  0.0399  0.1118
  607ERGO    R2 8895   7.866   3.719   9.995  0.2797 -0.3058 -0.0372
  607ERGO    R3 8896   7.706   3.647   9.787  0.0338 -0.0767  0.0661
  607ERGO    R4 8897   7.953   3.740   9.661  0.0474 -0.3342 -0.1013
  607ERGO    R5 8898   7.752   3.809   9.617  0.0903 -0.0909  0.0686
  607ERGO    C1 8899   7.854   3.683   9.272 -0.3188 -0.1357 -0.0416
  607ERGO    C2 8900   7.792   3.551   8.892  0.3396  0.3667 -0.0341
  608ERGO   ROH 8901   4.211  17.507  10.366 -0.0641 -0.1160  0.0355
  608ERGO    R1 8902   4.181  17.686  10.148 -0.1167 -0.1181  0.0422
  608ERGO    R2 8903   4.395  17.773   9.996 -0.1343  0.0167  0.1028
  608ERGO    R3 8904   4.246  17.679   9.790 -0.0285 -0.0517  0.0550
  608ERGO    R4 8905   4.470  17.819   9.662 -0.1056  0.1590  0.1271
  608ERGO    R5 8906   4.258  17.852   9.624 -0.1315  0.0042  0.0992
  608ERGO    C1 8907   4.374  17.756   9.274  0.0105  0.1775  0.0963
  608ERGO    C2 8908   4.602  17.621   9.107 -0.3249 -0.2114 -0.0516
  609ERGO   ROH 8909   8.478  14.778  10.772  0.1209 -0.0556  0.1409
  609ERGO    R1 8910   8.624  14.914  10.571 -0.1050  0.0743  0.0615
  609ERGO    R2 8911   8.821  14.791  10.423  0.0119  0.2826  0.0470
  609ERGO    R3 8912   8.674  14.880  10.212 -0.1581  0.0353  0.0566
  609ERGO    R4 8913   8.931  14.800  10.095 -0.1103  0.2387  0.0037
  609ERGO    R5 8914   8.833  14.993  10.073 -0.3178  0.1335 -0.0534
  609ERGO    C1 8915   8.857  14.888   9.707 -0.3412 -0.0191 -0.0124
  609ERGO    C2 8916   8.874  14.848   9.375 -0.1700 -0.0174 -0.1709
  610ERGO   ROH 8917   4.234   0.978  10.314 -0.2365  0.1245 -0.0536
  610ERGO    R1 8918   4.122   1.026  10.059 -0.2029  0.1457 -0.0681
  610ERGO    R2 8919   4.241   1.192   9.873 -0.0955  0.0522 -0.1062
  610ERGO    R3 8920   4.221   0.974   9.713 -0.2147  0.0255 -0.0501
  610ERGO    R4 8921   4.272   1.196   9.529 -0.0021 -0.0817 -0.0968
  610ERGO    R5 8922   4.108   1.053   9.517 -0.0970  0.0440 -0.1002
  610ERGO    C1 8923   4.272   0.993   9.178 -0.0596 -0.1848 -0.0389
  610ERGO    C2 8924   4.294   0.984   8.787 -0.0832 -0.0115  0.0174
  611ERGO   ROH 8925  15.226  13.683   9.875  0.1509  0.1373 -0.0567
  611ERGO    R1 8926  15.215  13.795   9.615  0.0641  0.1530 -0.0463
  611ERGO    R2 8927  15.306  13.661   9.392  0.0614  0.1996 -0.0726
  611ERGO    R3 8928  15.056  13.712   9.298  0.0278  0.1277 -0.0227
  611ERGO    R4 8929  15.223  13.688   9.057 -0.0494 -0.0562 -0.0672
  611ERGO    R5 8930  15.092  13.855   9.109 -0.0336 -0.0138 -0.1463
  611ERGO    C1 8931  14.940  13.751   8.775 -0.1456 -0.2726 -0.0174
  611ERGO    C2 8932  14.843  13.741   8.377 -0.1103  0.0068  0.0699
  612ERGO   ROH 8933   4.917   3.618  10.046  0.1697  0.1063 -0.0413
  612ERGO    R1 8934   4.913   3.519   9.780 -0.0453  0.2779 -0.1002
  612ERGO    R2 8935   4.948   3.683   9.561  0.3988  0.3270  0.0218
  612ERGO    R3 8936   5.144   3.504   9.499 -0.0363 -0.1446 -0.0842
  612ERGO    R4 8937   5.060   3.616   9.241  0.6603  0.7936  0.0053
  612ERGO    R5 8938   5.070   3.405   9.294 -0.0740  0.5767 -0.4720
  612ERGO    C1 8939   5.309   3.410   8.997  0.4041  0.6226 -0.1038
  612ERGO    C2 8940   5.498   3.358   8.629 -0.2795 -0.0875 -0.4191
  613ERGO   ROH 8941  12.427  12.240  10.537  0.1170  0.1473  0.0934
  613ERGO    R1 8942  12.411  12.150  10.269  0.0982  0.0570  0.1254
  613ERGO    R2 8943  12.184  12.182  10.115  0.1393  0.1321  0.0885
  613ERGO    R3 8944  12.357  12.301   9.942  0.2282 -0.0349  0.0593
  613ERGO    R4 8945  12.137  12.206   9.773  0.0296  0.2903  0.1132
  613ERGO    R5 8946  12.349  12.163   9.746 -0.0264  0.0258  0.0193
  613ERGO    C1 8947  12.272  12.332   9.412  0.0490  0.2255  0.1003
  613ERGO    C2 8948  12.101  12.370   9.117 -0.0377  0.1187  0.2058
  614ERGO   ROH 8949  13.208   6.045  10.468  0.1078 -0.0395 -0.1606
  614ERGO    R1 8950  13.236   5.875  10.243  0.0144 -0.0720 -0.1465
  614ERGO    R2 8951  13.018   5.771  10.107 -0.0401  0.0774 -0.1644
  614ERGO    R3 8952  13.140   5.884   9.892  0.0657 -0.0267 -0.1612
  614ERGO    R4 8953  12.936   5.708   9.777 -0.1501  0.2037 -0.1631
  614ERGO    R5 8954  13.149   5.708   9.729 -0.1455 -0.0243 -0.1839
  614ERGO    C1 8955  13.003   5.776   9.383 -0.1148  0.1794 -0.1594
  614ERGO    C2 8956  12.925   5.819   9.065  0.0985  0.0737 -0.1121
  615ERGO   ROH 8957  11.064  12.592  10.443  0.0026 -0.0137  0.0451
  615ERGO    R1 8958  11.090  12.681  10.175 -0.0024 -0.0537  0.0317
  615ERGO    R2 8959  11.287  12.588  10.006 -0.0572 -0.1401  0.0178
  615ERGO    R3 8960  11.076  12.531   9.844 -0.0972 -0.0873  0.0497
  615ERGO    R4 8961  11.278  12.650   9.666 -0.1246 -0.0571  0.0340
  615ERGO    R5 8962  11.070  12.714   9.689 -0.1173 -0.0476  0.0948
  615ERGO    C1 8963  11.075  12.633   9.316 -0.2013  0.0408  0.0735
  615ERGO    C2 8964  11.175  12.613   8.931  0.0034 -0.0687 -0.2450
  616ERGO   ROH 8965   9.724  10.841  10.401  0.0226  0.1278  0.0225
  616ERGO    R1 8966   9.589  10.877  10.155  0.0120  0.2430  0.0436
  616ERGO    R2 8967   9.698  11.019   9.945  0.1229  0.1095  0.0052
  616ERGO    R3 8968   9.647  10.791   9.807 -0.1412  0.1436  0.0428
  616ERGO    R4 8969   9.667  10.998   9.601  0.0866  0.0868  0.0105
  616ERGO    R5 8970   9.502  10.859   9.629 -0.0698  0.2782  0.0381
  616ERGO    C1 8971   9.602  10.772   9.271 -0.1823  0.1057  0.0489
  616ERGO    C2 8972   9.625  10.765   8.955 -0.1372 -0.0165  0.1743
  617ERGO   ROH 8973   1.932  14.654   9.909 -0.1353 -0.0811 -0.0154
  617ERGO    R1 8974   2.082  14.569   9.685 -0.1082  0.0386 -0.0425
  617ERGO    R2 8975   1.964  14.486   9.449 -0.0862 -0.0778 -0.0109
  617ERGO    R3 8976   2.124  14.676   9.339 -0.2747  0.0578 -0.0581
  617ERGO    R4 8977   2.016  14.529   9.110 -0.0831 -0.1517 -0.0205
  617ERGO    R5 8978   2.226  14.567   9.152 -0.1267  0.0940 -0.0015
  617ERGO    C1 8979   2.197  14.732   8.810 -0.2583 -0.0675 -0.0701
  617ERGO    C2 8980   2.135  14.787   8.482 -0.1672  0.0378  0.0004
  618ERGO   ROH 8981  15.617  12.917   9.810 -0.3060  0.1131  0.0769
  618ERGO    R1 8982  15.597  12.761   9.575 -0.1976  0.0706  0.0961
  618ERGO    R2 8983  15.366  12.748   9.424 -0.0904  0.1333 -0.0687
  618ERGO    R3 8984  15.533  12.821   9.222  0.0860  0.0185  0.0322
  618ERGO    R4 8985  15.286  12.739   9.088  0.0664  0.2852 -0.1123
  618ERGO    R5 8986  15.486  12.664   9.047  0.0207  0.0984 -0.0258
  618ERGO    C1 8987  15.396  12.802   8.703  0.3234  0.2659 -0.0431
  618ERGO    C2 8988  15.096  12.717   8.468  0.0750  0.1483 -0.1116
  619ERGO   ROH 8989  13.709  14.277  10.116 -0.0146 -0.0513  0.0781
  619ERGO    R1 8990  13.653  14.162   9.863 -0.1288 -0.0405  0.0988
  619ERGO    R2 8991  13.426  14.225   9.718 -0.0038  0.2563  0.0340
  619ERGO    R3 8992  13.607  14.282   9.523  0.1251 -0.0664  0.0516
  619ERGO    R4 8993  13.384  14.155   9.382 -0.1918  0.4891  0.0060
  619ERGO    R5 8994  13.593  14.096   9.373 -0.3096  0.0132 -0.0269
  619ERGO    C1 8995  13.528  14.167   9.004 -0.1804  0.3218  0.0061
  619ERGO    C2 8996  13.444  14.416   8.736  0.0563  0.1580  0.1222
  620ERGO   ROH 8997   7.156  12.428  10.276 -0.0524 -0.1535 -0.0400
  620ERGO    R1 8998   7.162  12.542  10.017 -0.0599 -0.0953 -0.0154
  620ERGO    R2 8999   7.397  12.580   9.876 -0.0577 -0.0222  0.0024
  620ERGO    R3 9000   7.266  12.437   9.685 -0.0245 -0.0049 -0.0322
  620ERGO    R4 9001   7.437  12.622   9.535 -0.1282  0.1220  0.0116
  620ERGO    R5 9002   7.222  12.596   9.511 -0.1185  0.0396  0.0340
  620ERGO    C1 9003   7.338  12.512   9.158 -0.1381  0.2221 -0.0156
  620ERGO    C2 9004   7.451  12.406   8.868  0.0717 -0.1444  0.1842
  621ERGO   ROH 9005  15.543   2.225  10.229 -0.2728 -0.0833 -0.0673
  621ERGO    R1 9006  15.534   2.439  10.044 -0.2423 -0.1041 -0.0925
  621ERGO    R2 9007  15.721   2.471   9.843 -0.1787 -0.0965 -0.0295
  621ERGO    R3 9008  15.501   2.477   9.684 -0.1236 -0.1449 -0.1086
  621ERGO    R4 9009  15.727   2.500   9.499 -0.0557 -0.1592 -0.0335
  621ERGO    R5 9010  15.556   2.634   9.512 -0.0741 -0.1701 -0.1184
  621ERGO    C1 9011  15.524   2.522   9.149  0.0676 -0.2412 -0.1100
  621ERGO    C2 9012  15.405   2.581   8.791 -0.1164 -0.1036 -0.0280
  622ERGO   ROH 9013   7.571   3.943  10.517 -0.0398 -0.2945 -0.0681
  622ERGO    R1 9014   7.576   4.132  10.307  0.2299 -0.1386  0.0720
  622ERGO    R2 9015   7.802   4.181  10.156  0.2680 -0.4565  0.0173
  622ERGO    R3 9016   7.636   4.127   9.948  0.0676  0.0128  0.0414
  622ERGO    R4 9017   7.871   4.251   9.825  0.3166 -0.4516  0.0284
  622ERGO    R5 9018   7.664   4.313   9.799  0.4362  0.0301  0.1233
  622ERGO    C1 9019   7.756   4.241   9.436  0.1567 -0.0082  0.0575
  622ERGO    C2 9020   7.828   4.285   9.103  0.0210 -0.1387  0.1616
  623ERGO   ROH 9021  17.538   3.178   9.843 -0.0841  0.0657 -0.0556
  623ERGO    R1 9022  17.402   3.123   9.601 -0.1339  0.0607 -0.0262
  623ERGO    R2 9023  17.273   3.318   9.454 -0.1306  0.0636 -0.0231
  623ERGO    R3 9024  17.430   3.224   9.252 -0.1799  0.0207 -0.0419
  623ERGO    R4 9025  17.216   3.372   9.117 -0.1801  0.0462 -0.0177
  623ERGO    R5 9026  17.275   3.165   9.079 -0.2205  0.0321 -0.0109
  623ERGO    C1 9027  17.329   3.314   8.732 -0.2551 -0.0042 -0.0322
  623ERGO    C2 9028  17.342   3.083   8.381 -0.3753 -0.0003  0.0134
  624ERGO   ROH 9029  17.276   6.714   9.848  0.2201  0.1968 -0.0357
  624ERGO    R1 9030  17.131   6.628   9.620  0.3386 -0.0315 -0.0270
  624ERGO    R2 9031  16.950   6.791   9.488 -0.0204 -0.3463  0.0573
  624ERGO    R3 9032  17.102   6.727   9.272  0.0658  0.0137  0.0058
  624ERGO    R4 9033  16.848   6.819   9.159 -0.0746 -0.2783  0.0794
  624ERGO    R5 9034  16.948   6.630   9.117  0.1981 -0.1101 -0.0501
  624ERGO    C1 9035  16.931   6.776   8.765 -0.0253  0.0992  0.0440
  624ERGO    C2 9036  16.927   6.908   8.474  0.0857  0.0162  0.0836
  625ERGO   ROH 9037   1.571   1.909   9.736  0.1724 -0.0097  0.2063
  625ERGO    R1 9038   1.715   1.899   9.492  0.1162  0.2070  0.1644
  625ERGO    R2 9039   1.713   1.678   9.327  0.4159  0.1972  0.1835
  625ERGO    R3 9040   1.635   1.858   9.139  0.0763  0.0647  0.1863
  625ERGO    R4 9041   1.647   1.602   8.996  0.5379  0.0572  0.1885
  625ERGO    R5 9042   1.747   1.788   8.939  0.2078  0.2536  0.1808
  625ERGO    C1 9043   1.535   1.728   8.628  0.2900 -0.1488  0.1940
  625ERGO    C2 9044   1.424   1.559   8.350  0.1426 -0.0456 -0.2333
  626ERGO   ROH 9045  13.091   8.426  10.416 -0.2868 -0.0490  0.0157
  626ERGO    R1 9046  13.163   8.344  10.155 -0.1820 -0.1649  0.0784
  626ERGO    R2 9047  13.044   8.130  10.028 -0.3214 -0.0653  0.0227
  626ERGO    R3 9048  12.997   8.313   9.833  0.0120 -0.0355 -0.0336
  626ERGO    R4 9049  13.030   8.060   9.690 -0.0196 -0.0443  0.0041
  626ERGO    R5 9050  13.138   8.245   9.652  0.1480 -0.1279  0.1129
  626ERGO    C1 9051  12.978   8.191   9.310  0.4689 -0.0041 -0.0597
  626ERGO    C2 9052  12.962   8.120   8.960 -0.1167  0.0998 -0.1875
  627ERGO   ROH 9053  11.986   3.619  10.818  0.1457  0.0560  0.0086
  627ERGO    R1 9054  12.023   3.774  10.583  0.1275  0.0063 -0.0272
  627ERGO    R2 9055  12.228   3.727  10.404  0.0729 -0.0744 -0.0675
  627ERGO    R3 9056  12.024   3.713  10.224  0.0279 -0.0562 -0.0179
  627ERGO    R4 9057  12.262   3.767  10.062 -0.0525  0.2636 -0.0437
  627ERGO    R5 9058  12.077   3.881  10.062 -0.1379  0.1340  0.1175
  627ERGO    C1 9059  12.091   3.778   9.695 -0.1676  0.4775  0.0165
  627ERGO    C2 9060  12.007   3.717   9.378 -0.0980  0.1478  0.0553
  628ERGO   ROH 9061   0.831  11.083   9.489 -0.1243  0.0139  0.0261
  628ERGO    R1 9062   0.794  10.912   9.266 -0.1705 -0.0063  0.0489
  628ERGO    R2 9063   0.585  10.944   9.088 -0.0942  0.1021 -0.0249
  628ERGO    R3 9064   0.785  10.949   8.904 -0.0299 -0.0719  0.0384
  628ERGO    R4 9065   0.547  10.870   8.752 -0.0617  0.1893 -0.0479
  628ERGO    R5 9066   0.737  10.764   8.759 -0.1692 -0.0034 -0.0030
  628ERGO    C1 9067   0.712  10.832   8.384  0.0177  0.0767 -0.0018
  628ERGO    C2 9068   0.543  10.950   8.029 -0.1796  0.0398 -0.1772
  629ERGO   ROH 9069  17.040   7.850   9.789 -0.1151 -0.0655 -0.0911
  629ERGO    R1 9070  16.896   7.764   9.561 -0.0223 -0.0490 -0.1561
  629ERGO    R2 9071  16.745   7.937   9.407  0.0514 -0.0373 -0.2104
  629ERGO    R3 9072  16.896   7.837   9.205  0.1301 -0.0343 -0.1542
  629ERGO    R4 9073  16.687   7.992   9.071  0.0947 -0.1440 -0.2362
  629ERGO    R5 9074  16.739   7.784   9.033  0.1804 -0.1378 -0.1720
  629ERGO    C1 9075  16.795   7.930   8.685  0.1937 -0.2033 -0.1983
  629ERGO    C2 9076  16.761   8.042   8.310  0.0223  0.0854 -0.1335
  630ERGO   ROH 9077   3.692  14.995   9.985 -0.0643 -0.0807 -0.0636
  630ERGO    R1 9078   3.876  15.085   9.790 -0.0127  0.0113  0.0259
  630ERGO    R2 9079   3.994  14.915   9.607  0.1551  0.0709  0.0743
  630ERGO    R3 9080   3.893  15.091   9.426  0.1557  0.0294  0.0342
  630ERGO    R4 9081   4.088  14.934   9.275 -0.0224 -0.1640  0.0089
  630ERGO    R5 9082   4.080  15.151   9.290  0.1117 -0.1523 -0.1061
  630ERGO    C1 9083   4.047  15.110   8.912 -0.1253 -0.3397 -0.0670
  630ERGO    C2 9084   4.054  15.115   8.616 -0.2449 -0.1666 -0.1479
  631ERGO   ROH 9085  10.056  12.932  10.550  0.1491 -0.0552 -0.2101
  631ERGO    R1 9086  10.113  13.062  10.305  0.0876  0.0857 -0.1523
  631ERGO    R2 9087  10.264  12.944  10.105  0.1011  0.2256 -0.2343
  631ERGO    R3 9088  10.046  13.002   9.953  0.0645  0.2433 -0.1737
  631ERGO    R4 9089  10.254  12.927   9.760 -0.0619  0.0466 -0.2219
  631ERGO    R5 9090  10.137  13.110   9.759  0.0261  0.0957 -0.2702
  631ERGO    C1 9091  10.044  12.972   9.416 -0.1911 -0.0409 -0.1576
  631ERGO    C2 9092  10.004  13.002   9.111 -0.1377  0.0365  0.2460
  632ERGO   ROH 9093  11.881  11.177  10.636 -0.1915  0.0076 -0.1063
  632ERGO    R1 9094  11.708  11.140  10.415 -0.1577  0.0802 -0.1458
  632ERGO    R2 9095  11.677  11.330  10.217  0.0010  0.0752 -0.1781
  632ERGO    R3 9096  11.742  11.123  10.053 -0.0754  0.0177 -0.1354
  632ERGO    R4 9097  11.563  11.292   9.893 -0.1111 -0.0122 -0.1284
  632ERGO    R5 9098  11.540  11.078   9.931 -0.1210  0.0018 -0.0546
  632ERGO    C1 9099  11.557  11.075   9.550 -0.2481 -0.1169 -0.0593
  632ERGO    C2 9100  11.440  11.088   9.211  0.1036  0.4446  0.1845
  633ERGO   ROH 9101   3.634   4.719  10.137 -0.0232  0.2077 -0.1179
  633ERGO    R1 9102   3.811   4.695   9.917 -0.0849  0.4504 -0.1952
  633ERGO    R2 9103   3.850   4.456   9.783  0.4029  0.4280 -0.0178
  633ERGO    R3 9104   3.783   4.604   9.565 -0.0741  0.1031 -0.1119
  633ERGO    R4 9105   3.924   4.372   9.456  0.6559  0.4398  0.0332
  633ERGO    R5 9106   3.971   4.581   9.418  0.0133  0.5847 -0.0995
  633ERGO    C1 9107   3.905   4.462   9.062  0.3554  0.1418 -0.0254
  633ERGO    C2 9108   3.956   4.471   8.717  0.2272  0.1999 -0.1976
  634ERGO   ROH 9109  10.328   3.287  10.426 -0.0917 -0.1348  0.0035
  634ERGO    R1 9110  10.356   3.223  10.151 -0.2339 -0.1784 -0.0012
  634ERGO    R2 9111  10.140   3.200   9.981 -0.3047  0.0801  0.0522
  634ERGO    R3 9112  10.277   3.382   9.834 -0.1157 -0.0901  0.0121
  634ERGO    R4 9113  10.129   3.223   9.636 -0.2159 -0.0380  0.0404
  634ERGO    R5 9114  10.344   3.262   9.638 -0.1790 -0.2224  0.0686
  634ERGO    C1 9115  10.252   3.408   9.297  0.0133 -0.2666 -0.0040
  634ERGO    C2 9116  10.177   3.342   9.006 -0.0652 -0.1254  0.0753
  635ERGO   ROH 9117   6.044   1.955  10.434  0.0197 -0.1070 -0.1021
  635ERGO    R1 9118   6.223   1.977  10.216  0.0945 -0.2136 -0.0532
  635ERGO    R2 9119   6.319   1.758  10.078 -0.1199 -0.2666 -0.1268
  635ERGO    R3 9120   6.222   1.891   9.862  0.0721 -0.0625 -0.0899
  635ERGO    R4 9121   6.392   1.679   9.750 -0.0634 -0.1367 -0.1454
  635ERGO    R5 9122   6.405   1.893   9.707  0.1302 -0.1240 -0.0196
  635ERGO    C1 9123   6.343   1.759   9.355  0.1496  0.1306 -0.1217
  635ERGO    C2 9124   6.455   1.695   9.103  0.1894  0.0581 -0.2810
  636ERGO   ROH 9125   7.993   4.941  10.430 -0.1258  0.2115 -0.0267
  636ERGO    R1 9126   7.946   4.888  10.156  0.0443  0.0278 -0.0235
  636ERGO    R2 9127   7.881   5.086   9.976 -0.2037 -0.1381 -0.1274
  636ERGO    R3 9128   8.094   4.988   9.839  0.0003  0.1305 -0.0108
  636ERGO    R4 9129   7.915   5.094   9.632 -0.0811 -0.2182 -0.1170
  636ERGO    R5 9130   7.998   4.893   9.641  0.2207 -0.0900 -0.0124
  636ERGO    C1 9131   8.135   5.006   9.303  0.1818 -0.0127 -0.0014
  636ERGO    C2 9132   8.058   5.172   8.966 -0.1218  0.0374 -0.0043
  637ERGO   ROH 9133   5.667   0.191   6.479  0.1684 -0.0044  0.1071
  637ERGO    R1 9134   5.628   0.207   6.759  0.1213  0.2052  0.0883
  637ERGO    R2 9135   5.646   0.445   6.898 -0.2463  0.3678 -0.1418
  637ERGO    R3 9136   5.397   0.376   6.983 -0.1551  0.0791 -0.0910
  637ERGO    R4 9137   5.506   0.539   7.200 -0.2368  0.1013 -0.0496
  637ERGO    R5 9138   5.422   0.340   7.218 -0.0346 -0.0014 -0.1091
  637ERGO    C1 9139   5.191   0.530   7.455 -0.1456 -0.3249  0.0517
  637ERGO    C2 9140   5.013   0.595   7.791  0.0684  0.1098 -0.2039
  638ERGO   ROH 9141  10.051   4.532  10.597  0.0473  0.0753 -0.0548
  638ERGO    R1 9142   9.952   4.561  10.334  0.0187  0.0535 -0.0463
  638ERGO    R2 9143   9.857   4.802  10.236  0.0444  0.0540 -0.0680
  638ERGO    R3 9144  10.038   4.755  10.038  0.0118 -0.0021 -0.0852
  638ERGO    R4 9145   9.819   4.901   9.907 -0.0224 -0.0609 -0.0958
  638ERGO    R5 9146   9.904   4.710   9.845 -0.0210 -0.0775 -0.0456
  638ERGO    C1 9147   9.967   4.916   9.530 -0.0919 -0.1806 -0.1282
  638ERGO    C2 9148   9.947   5.006   9.144  0.0702  0.0672  0.3230
  639ERGO   ROH 9149   2.727   4.960   9.706 -0.0207  0.2755 -0.0460
  639ERGO    R1 9150   2.722   5.108   9.465  0.1662  0.2505 -0.0673
  639ERGO    R2 9151   2.936   5.115   9.291  0.1514 -0.1137 -0.1144
  639ERGO    R3 9152   2.750   5.036   9.110 -0.0169  0.1486 -0.0609
  639ERGO    R4 9153   2.984   5.111   8.949  0.0431 -0.1864 -0.1283
  639ERGO    R5 9154   2.780   5.185   8.925  0.1410  0.1037 -0.0694
  639ERGO    C1 9155   2.837   5.035   8.579 -0.1779  0.0174 -0.0862
  639ERGO    C2 9156   2.835   4.997   8.169  0.1176  0.1683  0.0997
  640ERGO   ROH 9157  16.666  17.459   9.909  0.0566  0.2120 -0.0693
  640ERGO    R1 9158  16.740  17.544   9.650  0.0534  0.1466 -0.0919
  640ERGO    R2 9159  16.721  17.380   9.428  0.0193  0.1015 -0.0556
  640ERGO    R3 9160  16.574  17.585   9.328  0.0409  0.0993 -0.0917
  640ERGO    R4 9161  16.709  17.469   9.095  0.0157  0.0332 -0.0738
  640ERGO    R5 9162  16.712  17.679   9.156  0.0453  0.0458 -0.1175
  640ERGO    C1 9163  16.563  17.714   8.807  0.0339 -0.0083 -0.1184
  640ERGO    C2 9164  16.633  17.778   8.543 -0.0721  0.1310  0.1655
  641ERGO   ROH 9165  14.150   8.852  10.379  0.1253  0.2949 -0.0965
  641ERGO    R1 9166  14.002   8.802  10.143  0.1546  0.2063 -0.0970
  641ERGO    R2 9167  13.835   8.991  10.030  0.0053  0.0930 -0.0731
  641ERGO    R3 9168  13.984   8.942   9.808  0.0381  0.2292 -0.0810
  641ERGO    R4 9169  13.710   8.969   9.708  0.0473  0.2150 -0.0977
  641ERGO    R5 9170  13.846   8.802   9.672  0.0857  0.2633 -0.1616
  641ERGO    C1 9171  13.778   8.911   9.312  0.1025  0.4138 -0.1195
  641ERGO    C2 9172  13.684   8.939   8.956  0.0998  0.1379  0.1405
  642ERGO   ROH 9173  14.418   4.594  10.410  0.1765  0.0855  0.0251
  642ERGO    R1 9174  14.406   4.423  10.184  0.0176  0.0176  0.0831
  642ERGO    R2 9175  14.183   4.409  10.020  0.0076  0.1833  0.0752
  642ERGO    R3 9176  14.365   4.463   9.825  0.0762 -0.0627  0.0681
  642ERGO    R4 9177  14.121   4.391   9.681  0.0092  0.1619  0.0765
  642ERGO    R5 9178  14.318   4.303   9.654 -0.0847 -0.0565  0.1082
  642ERGO    C1 9179  14.255   4.432   9.300  0.0745 -0.0813  0.0705
  642ERGO    C2 9180  14.246   4.406   9.024  0.0155  0.3088  0.1435
  643ERGO   ROH 9181  13.767  17.544  10.186 -0.0342  0.0450 -0.0057
  643ERGO    R1 9182  13.616  17.530   9.947 -0.1052  0.0612  0.0383
  643ERGO    R2 9183  13.443  17.731   9.868  0.0848  0.1964 -0.0371
  643ERGO    R3 9184  13.590  17.722   9.639  0.0239 -0.0902 -0.0695
  643ERGO    R4 9185  13.312  17.739   9.548  0.0174  0.2218 -0.0093
  643ERGO    R5 9186  13.459  17.590   9.489 -0.1825  0.0063  0.0198
  643ERGO    C1 9187  13.373  17.736   9.148 -0.0790 -0.0325 -0.0234
  643ERGO    C2 9188  13.344  17.777   8.799 -0.2657  0.1081  0.3657
  644ERGO   ROH 9189   7.644   8.152  10.432  0.3182 -0.0963 -0.0054
  644ERGO    R1 9190   7.812   8.091  10.213  0.1987  0.0100 -0.1271
  644ERGO    R2 9191   7.754   7.889  10.032  0.1481  0.0399 -0.1345
  644ERGO    R3 9192   7.783   8.089   9.850 -0.0261  0.0885 -0.1127
  644ERGO    R4 9193   7.832   7.845   9.698  0.1478  0.1317 -0.1483
  644ERGO    R5 9194   7.963   8.018   9.710  0.0202  0.2379 -0.1401
  644ERGO    C1 9195   7.905   8.006   9.334 -0.0160  0.2306 -0.1359
  644ERGO    C2 9196   7.935   7.907   9.070  0.2503 -0.1501 -0.1104
  645ERGO   ROH 9197   3.872   8.158   9.729  0.1171  0.1002  0.0571
  645ERGO    R1 9198   3.963   8.095   9.468  0.1339  0.1282  0.0562
  645ERGO    R2 9199   3.800   8.114   9.246  0.1088  0.0233  0.0660
  645ERGO    R3 9200   4.001   8.271   9.152  0.0186  0.1242  0.0397
  645ERGO    R4 9201   3.945   8.083   8.934  0.1327  0.0492  0.0743
  645ERGO    R5 9202   4.139   8.122   9.026  0.1091  0.1809  0.0707
  645ERGO    C1 9203   4.219   8.213   8.664  0.0619  0.1591  0.0545
  645ERGO    C2 9204   4.291   8.378   8.376  0.1425 -0.0638 -0.0823
  646ERGO   ROH 9205   5.219   7.892  10.421 -0.2318  0.0401 -0.0563
  646ERGO    R1 9206   5.407   7.786  10.237 -0.1663  0.1320 -0.0433
  646ERGO    R2 9207   5.341   7.592  10.052 -0.0174 -0.0302  0.0671
  646ERGO    R3 9208   5.443   7.771   9.876 -0.2337 -0.0129 -0.0443
  646ERGO    R4 9209   5.393   7.532   9.716  0.0530 -0.1705  0.1027
  646ERGO    R5 9210   5.581   7.640   9.730 -0.0772  0.0641  0.0354
  646ERGO    C1 9211   5.520   7.665   9.355 -0.1089 -0.2360  0.0188
  646ERGO    C2 9212   5.619   7.808   9.079 -0.2832  0.3179 -0.3063
  647ERGO   ROH 9213  11.820   8.190  10.294  0.2880  0.1009 -0.0770
  647ERGO    R1 9214  11.657   8.143  10.068  0.3249 -0.2378 -0.0372
  647ERGO    R2 9215  11.597   8.340   9.884 -0.2314 -0.3185  0.0456
  647ERGO    R3 9216  11.695   8.160   9.706  0.1696 -0.0248 -0.0467
  647ERGO    R4 9217  11.538   8.345   9.543 -0.4091 -0.3787  0.0741
  647ERGO    R5 9218  11.518   8.128   9.549  0.1627 -0.4497  0.0308
  647ERGO    C1 9219  11.596   8.178   9.178 -0.1363 -0.1380  0.0040
  647ERGO    C2 9220  11.600   8.091   8.747  0.0308  0.0376  0.0368
  648ERGO   ROH 9221  10.750   7.047  10.366 -0.2761 -0.1944 -0.1816
  648ERGO    R1 9222  10.896   7.032  10.124 -0.1914 -0.2986 -0.1265
  648ERGO    R2 9223  10.854   6.832   9.937 -0.2962 -0.2479 -0.1690
  648ERGO    R3 9224  10.819   7.042   9.768 -0.0462 -0.1928 -0.1533
  648ERGO    R4 9225  10.881   6.816   9.593 -0.1188 -0.1941 -0.1572
  648ERGO    R5 9226  10.983   7.009   9.597  0.0188 -0.2757 -0.0680
  648ERGO    C1 9227  10.865   7.004   9.234  0.2190 -0.1112 -0.1357
  648ERGO    C2 9228  10.761   7.005   8.862 -0.1358 -0.0699  0.0522
  649ERGO   ROH 9229  13.347   1.542  10.419  0.0858 -0.0643  0.0629
  649ERGO    R1 9230  13.273   1.689  10.189  0.1073  0.0299  0.1151
  649ERGO    R2 9231  13.455   1.834  10.040  0.1434 -0.0037  0.1224
  649ERGO    R3 9232  13.356   1.686   9.835  0.0463  0.0910  0.1005
  649ERGO    R4 9233  13.446   1.935   9.710  0.1699  0.0656  0.1433
  649ERGO    R5 9234  13.248   1.846   9.693  0.1212  0.1765  0.1410
  649ERGO    C1 9235  13.349   1.855   9.325  0.0944  0.1949  0.1348
  649ERGO    C2 9236  13.432   1.827   8.974 -0.0972  0.4368 -0.0672
  650ERGO   ROH 9237   1.920   7.364   9.567 -0.1975  0.1134  0.0638
  650ERGO    R1 9238   2.027   7.417   9.310 -0.1612  0.2359  0.1040
  650ERGO    R2 9239   2.002   7.241   9.099  0.1972  0.1630  0.1186
  650ERGO    R3 9240   1.897   7.457   8.973 -0.0741 -0.0094  0.0380
  650ERGO    R4 9241   2.030   7.306   8.761  0.4843  0.2748  0.1613
  650ERGO    R5 9242   2.061   7.516   8.809  0.0230  0.3358  0.2456
  650ERGO    C1 9243   1.948   7.548   8.446  0.3968  0.1780  0.1106
  650ERGO    C2 9244   2.010   7.651   8.172 -0.0496  0.0312 -0.1624
  651ERGO   ROH 9245  12.783   9.543  10.508  0.0153 -0.3969  0.1743
  651ERGO    R1 9246  12.854   9.405  10.272 -0.0979 -0.3510  0.1137
  651ERGO    R2 9247  12.683   9.229  10.144 -0.2832 -0.0635 -0.0280
  651ERGO    R3 9248  12.734   9.388   9.929 -0.0339 -0.0068  0.0683
  651ERGO    R4 9249  12.659   9.130   9.814 -0.1431  0.0789 -0.0835
  651ERGO    R5 9250  12.840   9.242   9.771 -0.0298 -0.0238  0.0785
  651ERGO    C1 9251  12.693   9.221   9.420  0.1726  0.2151 -0.0254
  651ERGO    C2 9252  12.751   9.183   9.044  0.1563  0.1348  0.2111
  652ERGO   ROH 9253   6.392  16.983  10.203 -0.0080 -0.1867  0.0763
  652ERGO    R1 9254   6.457  16.911   9.937  0.0077 -0.1301  0.0658
  652ERGO    R2 9255   6.275  16.932   9.729  0.0027 -0.1458  0.0752
  652ERGO    R3 9256   6.473  17.079   9.615 -0.0373 -0.0794  0.0882
  652ERGO    R4 9257   6.315  16.979   9.389  0.0693 -0.2296  0.0700
  652ERGO    R5 9258   6.530  16.958   9.416  0.0776 -0.1146  0.1379
  652ERGO    C1 9259   6.524  17.145   9.084  0.0706 -0.2159  0.0792
  652ERGO    C2 9260   6.420  17.093   8.764  0.3443  0.0309 -0.2195
  653ERGO   ROH 9261  10.626   6.038  10.625 -0.2214 -0.4739  0.0618
  653ERGO    R1 9262  10.618   5.932  10.362 -0.0618 -0.2920 -0.0196
  653ERGO    R2 9263  10.445   6.027  10.169  0.0198 -0.1928 -0.0434
  653ERGO    R3 9264  10.674   6.056  10.025  0.0892 -0.0426  0.0942
  653ERGO    R4 9265  10.460   6.072   9.826  0.1916 -0.0750 -0.0221
  653ERGO    R5 9266  10.632   5.939   9.821  0.2560  0.0035  0.0309
  653ERGO    C1 9267  10.683   6.125   9.492  0.3569  0.1345  0.1195
  653ERGO    C2 9268  10.611   6.178   9.088 -0.2567 -0.0784  0.1690
  654ERGO   ROH 9269   4.963   9.583  10.108  0.3364 -0.0815 -0.0384
  654ERGO    R1 9270   4.917   9.650   9.836  0.2439 -0.2304 -0.0609
  654ERGO    R2 9271   5.013   9.882   9.722 -0.1025 -0.1121 -0.1271
  654ERGO    R3 9272   5.122   9.710   9.541  0.1676 -0.0076 -0.0691
  654ERGO    R4 9273   5.044   9.945   9.384 -0.2163 -0.1871 -0.1518
  654ERGO    R5 9274   4.987   9.738   9.345  0.1132 -0.2954 -0.0749
  654ERGO    C1 9275   5.163   9.820   9.017 -0.0292 -0.1328 -0.1116
  654ERGO    C2 9276   5.263   9.677   8.682  0.4153  0.1669  0.1374
  655ERGO   ROH 9277  17.577   9.266   9.502  0.0098 -0.1721  0.0238
  655ERGO    R1 9278  17.576   9.453   9.290 -0.0320 -0.1242  0.0648
  655ERGO    R2 9279  17.708   9.409   9.051  0.0867  0.0124  0.0962
  655ERGO    R3 9280  17.463   9.460   8.945  0.0889 -0.1238  0.0270
  655ERGO    R4 9281  17.653   9.561   8.746  0.0793  0.0145  0.0994
  655ERGO    R5 9282  17.488   9.672   8.836 -0.0123 -0.0988  0.0599
  655ERGO    C1 9283  17.391   9.697   8.468  0.0769 -0.1121  0.0364
  655ERGO    C2 9284  17.308   9.611   8.135  0.0374 -0.1896 -0.0195
  656ERGO   ROH 9285   4.071   5.598  10.250 -0.1183 -0.1174 -0.1614
  656ERGO    R1 9286   4.038   5.546   9.974  0.0098 -0.0331 -0.1939
  656ERGO    R2 9287   4.171   5.689   9.778  0.1780 -0.0369 -0.0881
  656ERGO    R3 9288   4.250   5.442   9.697  0.1188 -0.0505 -0.1032
  656ERGO    R4 9289   4.240   5.601   9.451  0.2704 -0.0080 -0.0764
  656ERGO    R5 9290   4.140   5.410   9.487  0.1892  0.0243 -0.1489
  656ERGO    C1 9291   4.354   5.318   9.185  0.2687 -0.0040 -0.0838
  656ERGO    C2 9292   4.349   5.293   8.992 -0.0828  0.0563  0.1324
  657ERGO   ROH 9293   0.097  17.177   8.305  0.0829  0.0991  0.0149
  657ERGO    R1 9294  -0.030  17.091   8.066  0.1613  0.0232  0.0008
  657ERGO    R2 9295   0.022  17.207   7.820  0.1016  0.0704  0.0120
  657ERGO    R3 9296   0.076  16.950   7.747  0.2839  0.1097  0.0020
  657ERGO    R4 9297  -0.000  17.084   7.498  0.0506  0.0352  0.0285
  657ERGO    R5 9298  -0.087  16.901   7.579  0.2422 -0.0360  0.0816
  657ERGO    C1 9299   0.037  16.772   7.242  0.1922  0.0515  0.0287
  657ERGO    C2 9300  -0.073  16.696   6.848  0.1332  0.2972 -0.0513
  658ERGO   ROH 9301  17.201   2.189   9.673  0.2051  0.1933 -0.1084
  658ERGO    R1 9302  17.070   2.185   9.422  0.0240  0.3521 -0.0185
  658ERGO    R2 9303  16.986   2.416   9.294  0.2876  0.4633  0.0080
  658ERGO    R3 9304  17.134   2.317   9.089 -0.0021  0.2031 -0.0840
  658ERGO    R4 9305  16.923   2.474   8.960  0.0799  0.4250  0.0385
  658ERGO    R5 9306  16.973   2.266   8.919 -0.2129  0.3419  0.0664
  658ERGO    C1 9307  17.025   2.416   8.572 -0.3128  0.1585 -0.0301
  658ERGO    C2 9308  17.146   2.352   8.192 -0.2295 -0.2451  0.0266
  659ERGO   ROH 9309   3.474   3.299   6.379  0.0856  0.2581 -0.0865
  659ERGO    R1 9310   3.294   3.337   6.594  0.1244  0.2636 -0.0552
  659ERGO    R2 9311   3.287   3.168   6.813  0.0234  0.1473 -0.1476
  659ERGO    R3 9312   3.319   3.400   6.952  0.1904  0.0511 -0.0207
  659ERGO    R4 9313   3.210   3.212   7.147 -0.2532  0.1059 -0.2033
  659ERGO    R5 9314   3.130   3.409   7.099  0.0503  0.2338 -0.2046
  659ERGO    C1 9315   3.195   3.455   7.472 -0.2574 -0.0085 -0.1166
  659ERGO    C2 9316   3.252   3.599   7.838  0.3071 -0.1843 -0.0971
  660ERGO   ROH 9317  11.418   1.132  10.508  0.0155  0.0695  0.0274
  660ERGO    R1 9318  11.257   1.103  10.276  0.0326  0.0427  0.0185
  660ERGO    R2 9319  11.199   1.314  10.108  0.0991  0.0096 -0.0469
  660ERGO    R3 9320  11.299   1.148   9.918  0.0801 -0.0667  0.0100
  660ERGO    R4 9321  11.108   1.316   9.774  0.4216  0.2097 -0.1386
  660ERGO    R5 9322  11.113   1.098   9.777  0.1511  0.1994 -0.1853
  660ERGO    C1 9323  11.149   1.160   9.402  0.5915  0.2546 -0.1385
  660ERGO    C2 9324  11.266   1.073   9.153  0.1453  0.2593  0.1959
  661ERGO   ROH 9325   8.364   9.052  10.621  0.0219 -0.1885  0.0851
  661ERGO    R1 9326   8.373   9.213  10.388 -0.2209 -0.1634  0.0916
  661ERGO    R2 9327   8.596   9.227  10.225 -0.1855  0.2896  0.1711
  661ERGO    R3 9328   8.419   9.158  10.031  0.0161 -0.0690  0.1050
  661ERGO    R4 9329   8.640   9.284   9.887 -0.2083  0.4660  0.1966
  661ERGO    R5 9330   8.429   9.338   9.873 -0.3371  0.0013  0.1497
  661ERGO    C1 9331   8.499   9.252   9.508 -0.0323  0.2322  0.1493
  661ERGO    C2 9332   8.621   9.152   9.211 -0.0807  0.0797 -0.2272
  662ERGO   ROH 9333   7.882   1.781  10.700  0.0719 -0.1327 -0.0461
  662ERGO    R1 9334   7.816   1.668  10.449  0.2420 -0.1767 -0.0714
  662ERGO    R2 9335   7.673   1.806  10.257 -0.0031 -0.3587 -0.0185
  662ERGO    R3 9336   7.885   1.741  10.099  0.0973  0.0359 -0.0589
  662ERGO    R4 9337   7.665   1.794   9.912 -0.0408 -0.3391 -0.0193
  662ERGO    R5 9338   7.788   1.614   9.920  0.2911 -0.1266 -0.0556
  662ERGO    C1 9339   7.858   1.725   9.562  0.0314  0.0428 -0.0577
  662ERGO    C2 9340   7.852   1.670   9.233  0.2193 -0.0457 -0.0354
  663ERGO   ROH 9341  17.009   0.800   9.937  0.2396  0.0085  0.0879
  663ERGO    R1 9342  17.092   0.783   9.667  0.1040 -0.0062  0.0465
  663ERGO    R2 9343  16.951   0.640   9.477 -0.0259  0.0344  0.1105
  663ERGO    R3 9344  16.956   0.876   9.343 -0.0304  0.0371  0.1148
  663ERGO    R4 9345  16.879   0.678   9.141 -0.2025  0.0690  0.1511
  663ERGO    R5 9346  17.043   0.820   9.127 -0.1681  0.0193  0.0638
  663ERGO    C1 9347  16.841   0.922   8.820 -0.3096  0.0917  0.1789
  663ERGO    C2 9348  16.659   0.872   8.554  0.0942  0.1346 -0.2226
  664ERGO   ROH 9349  15.128  15.153  10.274 -0.0582 -0.1444 -0.1007
  664ERGO    R1 9350  15.059  15.088  10.007  0.0136 -0.1859 -0.1132
  664ERGO    R2 9351  14.802  15.114   9.909  0.0095 -0.2708 -0.1744
  664ERGO    R3 9352  14.924  15.265   9.718  0.0152 -0.2406 -0.1414
  664ERGO    R4 9353  14.690  15.151   9.584 -0.0298 -0.0863 -0.1373
  664ERGO    R5 9354  14.896  15.139   9.516 -0.0662 -0.1303 -0.1842
  664ERGO    C1 9355  14.739  15.315   9.216 -0.0474  0.0495 -0.0848
  664ERGO    C2 9356  14.838  15.367   8.836 -0.2094  0.0281 -0.0289
  665ERGO   ROH 9357   7.961  15.920  10.527 -0.0348 -0.2014 -0.0332
  665ERGO    R1 9358   8.074  15.901  10.268 -0.1635 -0.1803 -0.0925
  665ERGO    R2 9359   7.928  15.825  10.047 -0.3656  0.1813 -0.0941
  665ERGO    R3 9360   8.022  16.059   9.945 -0.0749  0.1275  0.0403
  665ERGO    R4 9361   7.996  15.882   9.712 -0.1449  0.2491 -0.0393
  665ERGO    R5 9362   8.174  15.992   9.772 -0.0605  0.0424  0.0888
  665ERGO    C1 9363   8.123  16.135   9.422  0.2564  0.2383  0.1188
  665ERGO    C2 9364   8.078  16.105   9.102 -0.0183 -0.0478 -0.0091
  666ERGO   ROH 9365   9.213   8.519  10.756  0.2569 -0.0740  0.0513
  666ERGO    R1 9366   9.228   8.429  10.489  0.1858  0.1087 -0.0173
  666ERGO    R2 9367   9.013   8.443  10.316  0.0428 -0.0398  0.1324
  666ERGO    R3 9368   9.190   8.575  10.157 -0.2172  0.2780  0.0997
  666ERGO    R4 9369   9.021   8.425   9.970  0.2826 -0.3633  0.1510
  666ERGO    R5 9370   9.239   8.421   9.981  0.2946  0.2262  0.2790
  666ERGO    C1 9371   9.192   8.539   9.621  0.1780 -0.2533  0.1311
  666ERGO    C2 9372   9.117   8.591   9.258  0.0026 -0.1186  0.0720
  667ERGO   ROH 9373  10.179  11.016  10.373 -0.0058 -0.0670 -0.1353
  667ERGO    R1 9374  10.243  10.887  10.130 -0.1108 -0.0832 -0.1545
  667ERGO    R2 9375  10.086  10.687  10.021 -0.2108 -0.0181 -0.1246
  667ERGO    R3 9376  10.090  10.849   9.802 -0.1998 -0.0142 -0.1221
  667ERGO    R4 9377  10.049  10.578   9.695  0.0298 -0.0459 -0.1446
  667ERGO    R5 9378  10.204  10.720   9.636 -0.0272  0.0563 -0.0630
  667ERGO    C1 9379  10.031  10.666   9.300  0.1802 -0.0586 -0.1540
  667ERGO    C2 9380  10.079  10.601   8.958 -0.3196 -0.0717  0.1517
  668ERGO   ROH 9381  15.087  17.231   9.884 -0.0517 -0.1363 -0.0190
  668ERGO    R1 9382  14.901  17.106   9.711 -0.2645  0.0267  0.0861
  668ERGO    R2 9383  14.641  17.196   9.682 -0.1577  0.3654  0.1051
  668ERGO    R3 9384  14.707  17.201   9.418 -0.2058  0.1479  0.0872
  668ERGO    R4 9385  14.433  17.305   9.429 -0.1832  0.1993  0.0539
  668ERGO    R5 9386  14.505  17.140   9.305 -0.2336  0.0921  0.1704
  668ERGO    C1 9387  14.374  17.374   9.033 -0.2431 -0.1015  0.0073
  668ERGO    C2 9388  14.294  17.439   8.687  0.0427  0.1147  0.1212
  669ERGO   ROH 9389   0.745   2.549   9.683 -0.0768 -0.0563  0.0135
  669ERGO    R1 9390   0.844   2.639   9.433  0.0292 -0.1242  0.0305
  669ERGO    R2 9391   0.886   2.469   9.220 -0.0650 -0.1522  0.0325
  669ERGO    R3 9392   0.727   2.646   9.089  0.0858 -0.0287  0.0130
  669ERGO    R4 9393   0.841   2.478   8.877 -0.1286 -0.2090  0.0391
  669ERGO    R5 9394   0.846   2.696   8.888  0.0944 -0.2100 -0.0275
  669ERGO    C1 9395   0.665   2.650   8.555 -0.0240 -0.1262  0.0247
  669ERGO    C2 9396   0.446   2.720   8.264  0.1690  0.0649 -0.0758
  670ERGO   ROH 9397   6.467  14.096  10.112 -0.1357 -0.1704 -0.1021
  670ERGO    R1 9398   6.569  14.198   9.869 -0.1027 -0.0564 -0.0412
  670ERGO    R2 9399   6.697  14.040   9.682 -0.1209  0.0216 -0.1206
  670ERGO    R3 9400   6.511  14.144   9.514 -0.0916  0.1472 -0.0757
  670ERGO    R4 9401   6.728  14.056   9.338 -0.1767  0.0224 -0.1254
  670ERGO    R5 9402   6.639  14.255   9.345 -0.0545  0.0793 -0.0940
  670ERGO    C1 9403   6.572  14.164   8.980 -0.1817  0.1407 -0.0860
  670ERGO    C2 9404   6.665  14.093   8.608 -0.1262  0.2462  0.1078
  671ERGO   ROH 9405   7.156  17.572  10.212 -0.1223 -0.0350  0.0495
  671ERGO    R1 9406   7.128  17.738   9.984 -0.0515  0.0191  0.0791
  671ERGO    R2 9407   7.344  17.819   9.831 -0.0140 -0.0363  0.0975
  671ERGO    R3 9408   7.198  17.712   9.628 -0.0524  0.0564  0.0770
  671ERGO    R4 9409   7.432  17.830   9.497  0.0156 -0.0568  0.1051
  671ERGO    R5 9410   7.223  17.868   9.448  0.0417  0.0552  0.0915
  671ERGO    C1 9411   7.346  17.737   9.112 -0.0031  0.0183  0.0902
  671ERGO    C2 9412   7.362  17.932   8.796 -0.1938 -0.0178 -0.0159
  672ERGO   ROH 9413   2.655   2.009  10.034 -0.0509 -0.0291 -0.0879
  672ERGO    R1 9414   2.567   1.882   9.797  0.0170 -0.1188 -0.0642
  672ERGO    R2 9415   2.562   2.011   9.552 -0.1326 -0.1392 -0.0664
  672ERGO    R3 9416   2.711   1.797   9.474  0.0334 -0.0201 -0.0850
  672ERGO    R4 9417   2.603   1.908   9.225 -0.1854 -0.1619 -0.0670
  672ERGO    R5 9418   2.587   1.702   9.292  0.0345 -0.1705 -0.0138
  672ERGO    C1 9419   2.767   1.648   8.960 -0.0604 -0.0633 -0.0849
  672ERGO    C2 9420   2.906   1.492   8.647  0.2050  0.4144  0.0672
  673ERGO   ROH 9421  10.392  12.127  10.337  0.0797 -0.0232  0.0235
  673ERGO    R1 9422  10.401  12.000  10.084  0.0287 -0.0630  0.0420
  673ERGO    R2 9423  10.187  12.001   9.909  0.0746  0.1159 -0.0121
  673ERGO    R3 9424  10.370  12.103   9.736  0.2157 -0.0759  0.0194
  673ERGO    R4 9425  10.218  11.910   9.577 -0.1013  0.2220 -0.0597
  673ERGO    R5 9426  10.434  11.917   9.601 -0.0803 -0.1167 -0.0761
  673ERGO    C1 9427  10.408  11.953   9.222 -0.0713  0.1037 -0.0578
  673ERGO    C2 9428  10.309  11.966   8.885  0.1470 -0.0515 -0.4876
  674ERGO   ROH 9429   0.505  12.007   9.372  0.0919  0.2151  0.0826
  674ERGO    R1 9430   0.536  11.872   9.125 -0.0228  0.2328  0.0586
  674ERGO    R2 9431   0.443  11.975   8.887  0.1644  0.4119  0.0628
  674ERGO    R3 9432   0.700  11.938   8.807  0.1392  0.0996  0.1121
  674ERGO    R4 9433   0.540  11.900   8.564  0.1412  0.4152  0.0544
  674ERGO    R5 9434   0.687  11.761   8.646 -0.0612  0.1797  0.0350
  674ERGO    C1 9435   0.838  11.822   8.301  0.1040  0.1239  0.0958
  674ERGO    C2 9436   1.030  11.730   7.943 -0.0498  0.3539 -0.1818
  675PSPI    C1 9437  13.244  12.759   6.241  0.0512 -0.1329  0.1373
  675PSPI    C2 9438  12.880  12.816   6.086  0.1721  0.2306 -0.0251
  675PSPI    C3 9439  13.131  12.555   5.916  0.0241  0.0479  0.0322
  675PSPI   PO4 9440  13.089  12.763   6.525  0.0092 -0.1695  0.4223
  675PSPI   GL1 9441  13.289  13.109   6.746 -0.1522  0.1250 -0.1402
  675PSPI   GL2 9442  13.460  12.831   6.852  0.1157  0.2575 -0.1337
  675PSPI   C1A 9443  13.282  13.395   7.031  0.1605 -0.0363 -0.0676
  675PSPI   C2A 9444  13.438  13.654   7.276  0.0895  0.2830  0.0599
  675PSPI   C3A 9445  13.602  13.640   7.756  0.3352 -0.0229 -0.0425
  675PSPI   C4A 9446  13.603  13.578   8.286  0.1990 -0.1890 -0.2121
  675PSPI   C1B 9447  13.562  12.823   7.246  0.0688  0.0407 -0.1119
  675PSPI   C2B 9448  13.637  12.674   7.649  0.0668  0.0641 -0.1443
  675PSPI   C3B 9449  13.955  12.680   8.002  0.1009  0.0389  0.2657
  675PSPI   C4B 9450  14.192  12.428   8.348 -0.0839 -0.1303 -0.0150
  676PSPI    C1 9451   5.933  13.302   6.062 -0.0483  0.0038 -0.0727
  676PSPI    C2 9452   6.102  13.497   5.757 -0.0215 -0.1553 -0.1605
  676PSPI    C3 9453   5.966  13.124   5.705 -0.0999 -0.1494 -0.0022
  676PSPI   PO4 9454   6.087  13.485   6.257  0.2794  0.4421 -0.0171
  676PSPI   GL1 9455   6.116  13.772   6.448 -0.0098 -0.2342 -0.0465
  676PSPI   GL2 9456   5.939  13.894   6.681 -0.2013  0.2994  0.0763
  676PSPI   C1A 9457   6.410  13.832   6.807  0.0532 -0.0586 -0.1267
  676PSPI   C2A 9458   6.514  14.030   7.161  0.0676  0.0867  0.0386
  676PSPI   C3A 9459   6.803  14.213   7.404 -0.1983  0.0049  0.1980
  676PSPI   C4A 9460   7.009  14.538   7.657 -0.0079 -0.0986 -0.2155
  676PSPI   C1B 9461   6.012  14.152   7.080 -0.0960  0.0549  0.1086
  676PSPI   C2B 9462   6.030  14.516   7.401  0.4087 -0.0799  0.2345
  676PSPI   C3B 9463   6.434  14.607   7.454 -0.2004 -0.2540  0.2325
  676PSPI   C4B 9464   6.672  14.946   7.485 -0.0680 -0.3805  0.1386
  677PSPI    C1 9465  14.311  10.366   5.561 -0.0733  0.0104 -0.3005
  677PSPI    C2 9466  14.547  10.047   5.507  0.0457  0.0731 -0.1571
  677PSPI    C3 9467  14.297  10.162   5.217 -0.0618 -0.2022 -0.1769
  677PSPI   PO4 9468  14.524  10.559   5.758 -0.0224 -0.0518 -0.2301
  677PSPI   GL1 9469  14.778  10.516   6.158 -0.1129 -0.0230  0.0431
  677PSPI   GL2 9470  14.667  10.792   6.165 -0.0917  0.0118  0.1807
  677PSPI   C1A 9471  14.708  10.630   6.609  0.0432 -0.0836  0.0092
  677PSPI   C2A 9472  14.633  10.790   7.093 -0.2632 -0.2717 -0.0588
  677PSPI   C3A 9473  14.683  10.803   7.582 -0.1583  0.2087 -0.2184
  677PSPI   C4A 9474  14.822  11.124   7.891 -0.0271  0.1118 -0.1666
  677PSPI   C1B 9475  14.521  11.080   6.461  0.0336  0.2177 -0.0038
  677PSPI   C2B 9476  14.296  10.974   6.850  0.2716  0.2435  0.0322
  677PSPI   C3B 9477  14.316  11.124   7.226  0.0668 -0.2609  0.3620
  677PSPI   C4B 9478  14.403  11.200   7.720 -0.2033 -0.2468 -0.0413
  678PSPI    C1 9479  16.342  11.434   5.586  0.1839 -0.0507 -0.0428
  678PSPI    C2 9480  16.444  11.414   5.200  0.1102 -0.0208 -0.0640
  678PSPI    C3 9481  16.137  11.643   5.315  0.2559  0.1269  0.0379
  678PSPI   PO4 9482  16.281  11.141   5.719 -0.0109 -0.1840 -0.0631
  678PSPI   GL1 9483  16.563  11.080   6.052  0.1462 -0.1026 -0.3169
  678PSPI   GL2 9484  16.561  10.748   6.027  0.3699 -0.1208 -0.1037
  678PSPI   C1A 9485  16.694  11.206   6.446  0.2665  0.1645 -0.0504
  678PSPI   C2A 9486  16.687  11.453   6.828  0.1586  0.1247 -0.0570
  678PSPI   C3A 9487  16.990  11.764   6.991 -0.0218  0.4820 -0.0465
  678PSPI   C4A 9488  17.132  11.978   7.322  0.5653 -0.0664  0.1363
  678PSPI   C1B 9489  16.823  10.536   6.249 -0.0940  0.0020 -0.0742
  678PSPI   C2B 9490  16.944  10.265   6.626 -0.0530 -0.3515  0.0081
  678PSPI   C3B 9491  17.073  10.045   6.907  0.0865  0.0571  0.1285
  678PSPI   C4B 9492  16.962   9.983   7.355 -0.2183  0.1096 -0.3231
  679PSPI    C1 9493   8.288  12.409   6.165  0.1076 -0.1945 -0.0452
  679PSPI    C2 9494   8.134  12.545   5.822 -0.1343 -0.1049  0.0966
  679PSPI    C3 9495   8.522  12.453   5.844 -0.0470  0.1998 -0.1099
  679PSPI   PO4 9496   8.116  12.507   6.363 -0.0774 -0.0365 -0.0804
  679PSPI   GL1 9497   8.033  12.547   6.818  0.0490  0.2520 -0.0282
  679PSPI   GL2 9498   7.957  12.816   6.730 -0.0721 -0.1128  0.1432
  679PSPI   C1A 9499   8.010  12.518   7.336  0.3062  0.1496  0.1162
  679PSPI   C2A 9500   8.081  12.471   7.767  0.3255  0.2857 -0.0362
  679PSPI   C3A 9501   7.972  12.611   8.163  0.1531  0.1025 -0.1095
  679PSPI   C4A 9502   7.869  12.542   8.607 -0.2040  0.1252  0.2134
  679PSPI   C1B 9503   7.657  13.086   6.968  0.2692  0.0470  0.1939
  679PSPI   C2B 9504   7.640  13.430   7.306  0.1895  0.0936  0.0185
  679PSPI   C3B 9505   7.403  13.703   7.512 -0.1230  0.2396  0.0441
  679PSPI   C4B 9506   7.286  14.123   7.574  0.2828  0.0488 -0.2762
  680PSPI    C1 9507   0.848   4.353   5.623 -0.0519 -0.0669 -0.0941
  680PSPI    C2 9508   0.633   4.045   5.485  0.1405 -0.2126 -0.0744
  680PSPI    C3 9509   0.666   4.380   5.268 -0.2230 -0.1321 -0.0127
  680PSPI   PO4 9510   0.942   4.226   5.801 -0.0827  0.3228 -0.1318
  680PSPI   GL1 9511   1.010   3.799   5.974  0.0281 -0.0919  0.0481
  680PSPI   GL2 9512   1.299   3.757   6.173  0.0800  0.0947  0.2089
  680PSPI   C1A 9513   0.728   3.744   6.315  0.2450  0.1207  0.0625
  680PSPI   C2A 9514   0.438   3.791   6.648 -0.0496  0.0769  0.0354
  680PSPI   C3A 9515   0.233   3.577   6.883  0.1100  0.3556  0.0374
  680PSPI   C4A 9516   0.372   3.271   7.241 -0.0208  0.0256  0.0464
  680PSPI   C1B 9517   1.149   3.476   6.553  0.1047  0.0512 -0.1899
  680PSPI   C2B 9518   1.325   3.144   6.812  0.2585 -0.0920  0.1575
  680PSPI   C3B 9519   1.596   2.756   6.916 -0.1809  0.3189 -0.0855
  680PSPI   C4B 9520   1.439   2.380   7.131  0.2353 -0.1491  0.0154
  681PSPI    C1 9521   3.144   9.866   5.466 -0.0125 -0.1996 -0.0205
  681PSPI    C2 9522   3.060   9.948   5.083 -0.2047  0.0831  0.0785
  681PSPI    C3 9523   3.369   9.710   5.174 -0.0491  0.1557 -0.2452
  681PSPI   PO4 9524   2.872   9.848   5.622 -0.2909 -0.3552  0.0222
  681PSPI   GL1 9525   2.709   9.979   6.040  0.1738 -0.1622  0.1550
  681PSPI   GL2 9526   2.668   9.703   6.260 -0.0933  0.0596 -0.1577
  681PSPI   C1A 9527   2.677  10.258   6.439 -0.0400  0.1322  0.0377
  681PSPI   C2A 9528   2.593  10.264   6.829  0.1821  0.2369 -0.4549
  681PSPI   C3A 9529   2.375  10.182   7.336 -0.1757  0.1499 -0.1655
  681PSPI   C4A 9530   2.498  10.169   7.665  0.0882 -0.3523  0.2546
  681PSPI   C1B 9531   2.650   9.776   6.706  0.1212 -0.0876 -0.0106
  681PSPI   C2B 9532   2.665   9.783   7.159  0.0463 -0.2782 -0.2690
  681PSPI   C3B 9533   2.212   9.696   7.446  0.0426  0.0744 -0.3154
  681PSPI   C4B 9534   1.832   9.524   7.554  0.3414  0.0904 -0.0314
  682PSPI    C1 9535  16.017   0.964   5.790  0.2703  0.0657  0.0251
  682PSPI    C2 9536  15.789   0.729   6.020  0.1552  0.3728  0.2315
  682PSPI    C3 9537  15.620   0.962   5.742  0.2457  0.3906  0.1911
  682PSPI   PO4 9538  16.225   1.015   5.927  0.2534  0.0385 -0.1327
  682PSPI   GL1 9539  16.366   0.878   6.355 -0.1595 -0.1380  0.0624
  682PSPI   GL2 9540  16.056   0.929   6.425 -0.1062  0.1316  0.2395
  682PSPI   C1A 9541  16.439   0.878   6.814  0.3054  0.3556 -0.1054
  682PSPI   C2A 9542  16.387   0.859   7.234  0.0796 -0.0177  0.2893
  682PSPI   C3A 9543  16.472   0.791   7.675 -0.0065  0.3752 -0.0710
  682PSPI   C4A 9544  16.324   0.845   8.096  0.0095  0.0135 -0.0139
  682PSPI   C1B 9545  16.043   1.143   6.894 -0.0337  0.3046  0.0383
  682PSPI   C2B 9546  15.863   1.073   7.320  0.1230 -0.0113 -0.0109
  682PSPI   C3B 9547  15.945   1.171   7.805  0.0051  0.1255 -0.0327
  682PSPI   C4B 9548  16.186   1.328   8.036 -0.0127 -0.0324 -0.0190
  683PSPI    C1 9549  14.640   7.117   6.027  0.1399 -0.0290  0.0077
  683PSPI    C2 9550  14.704   7.422   6.278  0.0968 -0.1475  0.1642
  683PSPI    C3 9551  14.784   7.464   5.888 -0.2129  0.1711  0.1292
  683PSPI   PO4 9552  14.349   7.051   6.212  0.1570  0.2493 -0.0723
  683PSPI   GL1 9553  14.315   6.761   6.553  0.2037  0.1995  0.2905
  683PSPI   GL2 9554  14.581   6.860   6.557  0.0609  0.3655 -0.0217
  683PSPI   C1A 9555  14.427   6.786   6.993  0.2250  0.2328  0.2002
  683PSPI   C2A 9556  14.623   6.979   7.282  0.4105 -0.2222  0.0583
  683PSPI   C3A 9557  14.950   7.223   7.558 -0.0064 -0.0132 -0.0652
  683PSPI   C4A 9558  15.106   7.059   7.949  0.1169 -0.2595  0.0558
  683PSPI   C1B 9559  14.882   6.973   6.853  0.0555  0.0186 -0.0852
  683PSPI   C2B 9560  15.278   7.047   7.168  0.1324  0.2396  0.0644
  683PSPI   C3B 9561  15.410   7.117   7.561 -0.0725  0.0289 -0.2299
  683PSPI   C4B 9562  15.684   6.930   7.963 -0.4149  0.2056 -0.1514
  684PSPI    C1 9563  11.170   9.926   6.339 -0.0538 -0.2488  0.0490
  684PSPI    C2 9564  11.357   9.573   6.307 -0.1944 -0.3259  0.0694
  684PSPI    C3 9565  10.959   9.593   6.272 -0.1559 -0.1162 -0.3150
  684PSPI   PO4 9566  11.224   9.984   6.603 -0.0803  0.3070 -0.0173
  684PSPI   GL1 9567  11.167  10.054   6.944 -0.1743  0.1090 -0.1608
  684PSPI   GL2 9568  11.098  10.485   6.950  0.2143  0.0266  0.0107
  684PSPI   C1A 9569  11.288  10.126   7.352  0.1988  0.1281 -0.0999
  684PSPI   C2A 9570  11.681  10.285   7.565 -0.1586 -0.1467 -0.0913
  684PSPI   C3A 9571  11.991  10.682   7.494 -0.1523  0.1872  0.0131
  684PSPI   C4A 9572  12.329  10.875   7.173  0.0876 -0.2628 -0.2176
  684PSPI   C1B 9573  10.974  10.626   7.351  0.1302  0.3111  0.0657
  684PSPI   C2B 9574  10.603  10.606   7.671 -0.1225 -0.0595  0.0316
  684PSPI   C3B 9575  10.505  10.577   8.019 -0.0587 -0.0414  0.0702
  684PSPI   C4B 9576  10.205  10.543   8.363 -0.1239 -0.1535 -0.2055
  685PSPI    C1 9577  11.784   7.047   6.180  0.2375 -0.0795 -0.0567
  685PSPI    C2 9578  11.684   7.184   5.817  0.2403  0.1158  0.0147
  685PSPI    C3 9579  11.945   6.882   5.853  0.2221  0.0800 -0.1460
  685PSPI   PO4 9580  11.557   7.088   6.347 -0.1913 -0.2282 -0.1518
  685PSPI   GL1 9581  11.538   7.022   6.806  0.3834 -0.2599 -0.1968
  685PSPI   GL2 9582  11.450   6.744   6.890  0.0396 -0.2018 -0.1252
  685PSPI   C1A 9583  11.311   7.173   7.104 -0.0217  0.0426  0.0886
  685PSPI   C2A 9584  11.308   7.179   7.602 -0.0888  0.0065  0.0218
  685PSPI   C3A 9585  11.103   7.221   7.964 -0.1300  0.0612  0.0058
  685PSPI   C4A 9586  11.294   7.440   8.282  0.2398  0.0401 -0.0654
  685PSPI   C1B 9587  11.387   6.691   7.298  0.1000 -0.0828 -0.0006
  685PSPI   C2B 9588  11.395   6.680   7.687  0.1146  0.0664 -0.1273
  685PSPI   C3B 9589  11.226   6.608   8.049 -0.2856 -0.0438 -0.0630
  685PSPI   C4B 9590  11.025   6.411   8.343 -0.0794 -0.3675  0.0588
  686PSPI    C1 9591   3.760  13.385   5.881  0.3050 -0.1346 -0.0339
  686PSPI    C2 9592   3.520  13.141   5.675 -0.0254  0.1496  0.0054
  686PSPI    C3 9593   3.878  13.242   5.527  0.0441 -0.2192 -0.0883
  686PSPI   PO4 9594   3.645  13.313   6.138  0.3510 -0.3568 -0.1576
  686PSPI   GL1 9595   3.600  13.309   6.491 -0.0315 -0.2269  0.3078
  686PSPI   GL2 9596   3.568  13.010   6.532  0.2244 -0.2939  0.0840
  686PSPI   C1A 9597   3.457  13.565   6.851  0.0226 -0.1297 -0.0780
  686PSPI   C2A 9598   3.448  13.742   7.254 -0.0704  0.0219 -0.1036
  686PSPI   C3A 9599   3.746  13.941   7.450  0.1830  0.2845 -0.2505
  686PSPI   C4A 9600   3.808  14.223   7.784 -0.1055 -0.1944 -0.0600
  686PSPI   C1B 9601   3.802  13.102   6.888  0.0422  0.0812  0.0293
  686PSPI   C2B 9602   3.795  13.337   7.213 -0.0732 -0.1062 -0.0833
  686PSPI   C3B 9603   3.474  13.386   7.638  0.2010  0.0712  0.1473
  686PSPI   C4B 9604   3.415  13.502   8.064  0.0063 -0.1152 -0.0635
  687PSPI    C1 9605  10.673  15.726   6.327  0.0802  0.0348  0.0826
  687PSPI    C2 9606  10.472  15.820   5.994  0.0666 -0.0649  0.0621
  687PSPI    C3 9607  10.726  15.512   5.993  0.1361 -0.0083  0.1189
  687PSPI   PO4 9608  10.554  15.762   6.563 -0.0880 -0.1599  0.1575
  687PSPI   GL1 9609  10.298  15.656   6.868  0.0255  0.0796 -0.0650
  687PSPI   GL2 9610  10.556  15.468   6.937 -0.1505  0.0271  0.2460
  687PSPI   C1A 9611  10.389  15.828   7.258  0.2020 -0.1186  0.1312
  687PSPI   C2A 9612  10.436  16.179   7.591  0.0824  0.0926 -0.2181
  687PSPI   C3A 9613  10.652  16.219   7.977 -0.1823 -0.0293  0.4391
  687PSPI   C4A 9614  10.763  16.267   8.430  0.1540  0.1462 -0.0859
  687PSPI   C1B 9615  10.675  15.478   7.430  0.1046 -0.0687 -0.0689
  687PSPI   C2B 9616  10.572  15.145   7.837  0.1739 -0.0885  0.1113
  687PSPI   C3B 9617  10.742  15.154   8.288 -0.2113  0.2660  0.0367
  687PSPI   C4B 9618  11.162  14.969   8.419 -0.2345  0.0642  0.2356
  688PSPI    C1 9619  10.973   4.410   6.161 -0.0094 -0.1041  0.0765
  688PSPI    C2 9620  10.618   4.311   6.006  0.0186  0.0569 -0.0935
  688PSPI    C3 9621  10.938   4.345   5.768  0.0583  0.3245 -0.0051
  688PSPI   PO4 9622  10.935   4.699   6.257 -0.1305 -0.0381  0.1763
  688PSPI   GL1 9623  10.652   4.956   6.461 -0.1651  0.1375  0.1115
  688PSPI   GL2 9624  10.513   4.696   6.664 -0.3641  0.1169  0.1574
  688PSPI   C1A 9625  10.746   5.033   6.907 -0.0071  0.0513  0.3492
  688PSPI   C2A 9626  10.784   5.177   7.249  0.2669 -0.0635 -0.2929
  688PSPI   C3A 9627  11.119   5.231   7.604 -0.0493 -0.1525 -0.0200
  688PSPI   C4A 9628  11.595   5.277   7.593  0.0953 -0.2632  0.1955
  688PSPI   C1B 9629  10.080   4.678   6.695  0.1350 -0.2409 -0.1496
  688PSPI   C2B 9630   9.675   4.605   6.789 -0.0344  0.3850  0.0409
  688PSPI   C3B 9631   9.616   4.276   7.070 -0.3256 -0.0601 -0.1286
  688PSPI   C4B 9632   9.813   4.230   7.509 -0.0663 -0.1024  0.1528
  689PSPI    C1 9633   3.567  11.545   5.538  0.0623 -0.2755 -0.0926
  689PSPI    C2 9634   3.929  11.378   5.571  0.2278  0.0668 -0.1314
  689PSPI    C3 9635   3.884  11.720   5.368 -0.1106  0.0532 -0.0853
  689PSPI   PO4 9636   3.438  11.561   5.821  0.3048 -0.0170 -0.2254
  689PSPI   GL1 9637   3.103  11.465   6.144 -0.2339 -0.1261  0.1112
  689PSPI   GL2 9638   2.918  11.708   6.365 -0.0875 -0.1658 -0.0158
  689PSPI   C1A 9639   3.115  11.249   6.539  0.0011 -0.3326  0.0257
  689PSPI   C2A 9640   3.268  11.209   6.948  0.1368  0.2957  0.2208
  689PSPI   C3A 9641   3.338  11.207   7.376  0.1573 -0.0959  0.4201
  689PSPI   C4A 9642   3.571  10.911   7.654  0.2191 -0.2607 -0.0004
  689PSPI   C1B 9643   2.787  11.558   6.813  0.2953  0.2320 -0.1887
  689PSPI   C2B 9644   2.718  11.143   7.055  0.1555 -0.3477 -0.3209
  689PSPI   C3B 9645   2.975  10.914   7.308 -0.0025  0.2681 -0.1236
  689PSPI   C4B 9646   3.205  10.617   7.451 -0.1224  0.0152 -0.0185
  690PSPI    C1 9647  13.289  16.017   6.399 -0.0016 -0.0731 -0.0286
  690PSPI    C2 9648  13.274  16.098   6.008 -0.0348  0.2624  0.0394
  690PSPI    C3 9649  13.625  16.020   6.182 -0.0124  0.1733 -0.0445
  690PSPI   PO4 9650  13.112  15.867   6.467 -0.0374 -0.1350  0.1275
  690PSPI   GL1 9651  12.889  15.895   6.848 -0.1907 -0.0816  0.0075
  690PSPI   GL2 9652  13.022  16.200   6.843 -0.0025 -0.0252 -0.2015
  690PSPI   C1A 9653  13.033  15.897   7.259 -0.0427 -0.0770  0.1332
  690PSPI   C2A 9654  13.157  15.850   7.754 -0.1287  0.2073  0.0380
  690PSPI   C3A 9655  13.149  16.163   8.034  0.1433 -0.1404 -0.1763
  690PSPI   C4A 9656  13.196  16.538   8.032 -0.1167 -0.2663 -0.2506
  690PSPI   C1B 9657  13.363  16.315   7.139  0.2417  0.2523  0.0979
  690PSPI   C2B 9658  13.448  16.619   7.460 -0.0800  0.1001  0.0819
  690PSPI   C3B 9659  13.542  16.863   7.777 -0.0515 -0.1337 -0.0365
  690PSPI   C4B 9660  13.545  16.982   8.157 -0.1172 -0.1661  0.0566
  691PSPI    C1 9661   7.147   1.026   6.050  0.0383 -0.1404  0.0292
  691PSPI    C2 9662   6.824   1.259   6.011 -0.0183 -0.2376 -0.0898
  691PSPI    C3 9663   7.123   1.285   5.746  0.0386 -0.2007 -0.0224
  691PSPI   PO4 9664   7.209   0.994   6.306 -0.0783 -0.0067  0.0121
  691PSPI   GL1 9665   7.056   0.907   6.689  0.0132  0.1896  0.0413
  691PSPI   GL2 9666   7.184   0.743   6.910  0.0550  0.1239 -0.3102
  691PSPI   C1A 9667   6.722   1.129   6.926 -0.1284 -0.0513 -0.1163
  691PSPI   C2A 9668   6.604   1.390   7.130 -0.1303 -0.1042  0.0078
  691PSPI   C3A 9669   6.587   1.278   7.555 -0.1125 -0.0081  0.0166
  691PSPI   C4A 9670   6.786   1.281   7.968  0.1461 -0.1768 -0.1798
  691PSPI   C1B 9671   6.957   0.879   7.283 -0.2012 -0.0099 -0.2606
  691PSPI   C2B 9672   7.147   0.929   7.778  0.0893 -0.1384 -0.1746
  691PSPI   C3B 9673   7.257   1.073   8.146  0.1625 -0.1149 -0.1265
  691PSPI   C4B 9674   7.402   1.111   8.639 -0.0122 -0.0042  0.2278
  692PSPI    C1 9675   4.789   1.734   6.002  0.0946 -0.2295 -0.0484
  692PSPI    C2 9676   4.580   1.651   5.672 -0.1471 -0.1202  0.0741
  692PSPI    C3 9677   4.510   1.990   5.872  0.1161 -0.1054  0.1449
  692PSPI   PO4 9678   4.760   1.489   6.209  0.2020 -0.1769 -0.0889
  692PSPI   GL1 9679   4.584   1.583   6.697  0.2175 -0.1331 -0.0558
  692PSPI   GL2 9680   4.769   1.808   6.702 -0.1968  0.0298  0.2540
  692PSPI   C1A 9681   4.419   1.407   6.998 -0.1206  0.0989 -0.2579
  692PSPI   C2A 9682   4.346   1.282   7.389  0.0549 -0.0788 -0.1147
  692PSPI   C3A 9683   4.152   1.351   7.757 -0.0570  0.1308 -0.2814
  692PSPI   C4A 9684   4.181   1.061   8.197 -0.2427 -0.3620  0.0946
  692PSPI   C1B 9685   4.604   1.928   7.147 -0.4116  0.2902  0.3636
  692PSPI   C2B 9686   4.492   1.766   7.452 -0.0274 -0.0860  0.1791
  692PSPI   C3B 9687   4.391   1.918   7.862  0.0902 -0.0755  0.1282
  692PSPI   C4B 9688   4.498   1.976   8.287 -0.0767 -0.0194  0.1098
  693PSPI    C1 9689   9.499   3.597   6.064  0.0184 -0.0408  0.0408
  693PSPI    C2 9690   9.813   3.349   6.065  0.0353 -0.0191  0.1559
  693PSPI    C3 9691   9.446   3.205   6.002  0.0488 -0.0693  0.1925
  693PSPI   PO4 9692   9.566   3.806   6.263 -0.1687  0.0203 -0.0463
  693PSPI   GL1 9693   9.429   4.240   6.492  0.2787 -0.2107  0.3211
  693PSPI   GL2 9694   9.239   4.641   6.491 -0.2612 -0.1544 -0.1141
  693PSPI   C1A 9695   9.087   4.176   6.835  0.1931  0.0550  0.0596
  693PSPI   C2A 9696   9.056   4.231   7.282  0.0334  0.0719  0.0742
  693PSPI   C3A 9697   9.232   4.357   7.639  0.3284  0.1133  0.1359
  693PSPI   C4A 9698   9.646   4.462   7.930  0.0079 -0.2729  0.1168
  693PSPI   C1B 9699   9.197   4.658   6.936  0.1246 -0.2357  0.2322
  693PSPI   C2B 9700   9.472   4.758   7.251  0.2399  0.3963 -0.5169
  693PSPI   C3B 9701   9.576   4.831   7.555  0.0493  0.1949 -0.0892
  693PSPI   C4B 9702   9.457   5.040   7.911 -0.1056  0.0065 -0.0434
  694PSPI    C1 9703   4.088  14.764   5.737 -0.2287 -0.0514 -0.0383
  694PSPI    C2 9704   4.057  15.163   5.757 -0.0731 -0.0496  0.2113
  694PSPI    C3 9705   4.170  14.988   5.415 -0.0582  0.1259  0.1251
  694PSPI   PO4 9706   3.831  14.695   5.830  0.0417  0.1558  0.1133
  694PSPI   GL1 9707   3.754  14.999   6.192  0.0060 -0.1689 -0.0745
  694PSPI   GL2 9708   3.995  15.097   6.257  0.1076  0.1139 -0.0630
  694PSPI   C1A 9709   3.735  14.808   6.655  0.1835  0.0180  0.3415
  694PSPI   C2A 9710   3.743  14.587   7.082 -0.0814 -0.0471 -0.0649
  694PSPI   C3A 9711   3.706  14.600   7.448 -0.1824 -0.0809  0.1348
  694PSPI   C4A 9712   3.650  14.772   7.859  0.1025  0.2043  0.1270
  694PSPI   C1B 9713   3.858  15.272   6.632  0.0681 -0.2106  0.0942
  694PSPI   C2B 9714   3.671  15.100   7.091  0.1516 -0.0592  0.2782
  694PSPI   C3B 9715   3.562  15.071   7.498 -0.0500  0.0739 -0.1210
  694PSPI   C4B 9716   3.673  15.237   7.909  0.3135 -0.0290  0.0913
  695POPI    C1 9717   6.217   1.905   6.257 -0.1033 -0.0244 -0.1334
  695POPI    C2 9718   6.537   1.674   6.189 -0.1352 -0.0889 -0.0655
  695POPI    C3 9719   6.175   1.556   6.065 -0.1238  0.0128 -0.1968
  695POPI   PO4 9720   6.244   1.983   6.436 -0.0133  0.0795 -0.0633
  695POPI   GL1 9721   5.934   1.835   6.769  0.3640 -0.0593 -0.1298
  695POPI   GL2 9722   5.876   2.104   6.910 -0.0485 -0.2073 -0.4863
  695POPI   C1A 9723   5.927   1.583   7.116  0.1083 -0.2964 -0.2477
  695POPI   D2A 9724   6.106   1.236   7.314 -0.0810 -0.0563 -0.0914
  695POPI   C3A 9725   6.130   1.207   7.715  0.1061  0.2882  0.2113
  695POPI   C4A 9726   6.277   1.569   8.018 -0.3316 -0.3857 -0.3364
  695POPI   C1B 9727   6.020   2.172   7.305  0.0836  0.1831 -0.0643
  695POPI   C2B 9728   6.439   2.127   7.616  0.0067  0.0075  0.0671
  695POPI   C3B 9729   6.791   2.310   7.965  0.2066  0.0056 -0.1176
  695POPI   C4B 9730   6.918   2.179   8.336 -0.1687  0.0545 -0.0621
  696POPI    C1 9731   2.157   6.011   5.384  0.0980  0.0012  0.0380
  696POPI    C2 9732   2.391   6.299   5.533  0.0638  0.0116  0.0721
  696POPI    C3 9733   2.432   6.184   5.151  0.0720  0.0671  0.0561
  696POPI   PO4 9734   2.214   5.778   5.669  0.1352  0.0147  0.0928
  696POPI   GL1 9735   1.930   5.670   6.072 -0.0892  0.0055  0.2744
  696POPI   GL2 9736   1.673   5.581   6.003 -0.0821  0.2460 -0.0101
  696POPI   C1A 9737   1.891   5.547   6.536  0.1813  0.3484 -0.1682
  696POPI   D2A 9738   2.155   5.502   6.919 -0.1521 -0.0883 -0.4451
  696POPI   C3A 9739   2.175   5.094   7.155  0.1721 -0.0969  0.2445
  696POPI   C4A 9740   1.972   4.903   7.383 -0.5375 -0.1437  0.0384
  696POPI   C1B 9741   1.456   5.457   6.366  0.2542 -0.1501 -0.2931
  696POPI   C2B 9742   1.359   5.537   6.772 -0.0069 -0.0753  0.0776
  696POPI   C3B 9743   1.378   5.603   7.146  0.0314  0.0386  0.3738
  696POPI   C4B 9744   1.446   5.686   7.566 -0.0097  0.1762  0.0891
  697POPI    C1 9745   0.928   1.237   5.857 -0.0577 -0.0358  0.1917
  697POPI    C2 9746   0.607   1.192   5.623  0.0614 -0.1325  0.0453
  697POPI    C3 9747   0.966   1.072   5.495  0.1555 -0.0306  0.2108
  697POPI   PO4 9748   0.816   1.180   6.065  0.0922  0.3132 -0.1223
  697POPI   GL1 9749   0.965   1.000   6.394 -0.1003  0.0834 -0.0091
  697POPI   GL2 9750   0.722   0.775   6.365  0.0153 -0.5053  0.2917
  697POPI   C1A 9751   1.235   0.837   6.772  0.2676  0.2071  0.0787
  697POPI   D2A 9752   1.265   0.580   7.169 -0.2383  0.0571 -0.0515
  697POPI   C3A 9753   1.089   0.605   7.529 -0.0360  0.0389 -0.2654
  697POPI   C4A 9754   0.919   0.482   7.902  0.3990  0.1555 -0.0724
  697POPI   C1B 9755   0.736   0.904   6.782 -0.2713  0.0977 -0.2203
  697POPI   C2B 9756   0.807   0.849   7.192  0.1473 -0.0667 -0.0845
  697POPI   C3B 9757   0.559   0.730   7.462 -0.1175  0.1132 -0.0583
  697POPI   C4B 9758   0.435   0.700   7.831 -0.1164  0.1786  0.2018
  698POPI    C1 9759   9.102   3.037   6.397 -0.0819  0.3583  0.1679
  698POPI    C2 9760   8.908   2.986   6.052  0.0125 -0.1746  0.1852
  698POPI    C3 9761   8.827   2.749   6.364  0.3505 -0.0895  0.3416
  698POPI   PO4 9762   9.085   3.254   6.427  0.0275 -0.0999  0.2740
  698POPI   GL1 9763   8.900   3.403   6.814  0.1899  0.0415  0.0673
  698POPI   GL2 9764   9.142   3.421   6.948  0.1087 -0.0438  0.4402
  698POPI   C1A 9765   8.725   3.244   7.185  0.1236  0.1518  0.0302
  698POPI   D2A 9766   8.554   3.348   7.584  0.0340  0.1570  0.3579
  698POPI   C3A 9767   8.604   3.641   7.841 -0.2523 -0.0078  0.0116
  698POPI   C4A 9768   8.818   3.719   8.184  0.1706  0.1498 -0.0846
  698POPI   C1B 9769   9.197   3.269   7.338 -0.1255 -0.1961  0.4761
  698POPI   C2B 9770   9.188   3.462   7.732 -0.2597 -0.0112  0.1832
  698POPI   C3B 9771   9.310   3.596   8.076  0.1845 -0.2333  0.0353
  698POPI   C4B 9772   9.259   3.775   8.507  0.1760  0.3375  0.3149
  699POPI    C1 9773  16.955   4.316   5.706  0.1031 -0.1366 -0.0981
  699POPI    C2 9774  16.616   4.269   5.499  0.0848 -0.1129 -0.0734
  699POPI    C3 9775  16.737   4.635   5.605  0.1449 -0.1170 -0.1270
  699POPI   PO4 9776  16.966   4.092   5.856 -0.0647  0.0363  0.1846
  699POPI   GL1 9777  16.945   4.149   6.283  0.0201  0.0865 -0.1852
  699POPI   GL2 9778  17.132   4.375   6.247 -0.0397 -0.1892 -0.2975
  699POPI   C1A 9779  16.764   4.213   6.691  0.1467 -0.4742 -0.3109
  699POPI   D2A 9780  16.760   4.068   7.122  0.1018  0.0105  0.0087
  699POPI   C3A 9781  16.882   4.289   7.420 -0.0112  0.0609  0.0283
  699POPI   C4A 9782  16.966   4.104   7.880  0.1439  0.0668 -0.0506
  699POPI   C1B 9783  17.162   4.527   6.582 -0.1712  0.0736 -0.0581
  699POPI   C2B 9784  17.206   4.411   6.903  0.0597  0.1702 -0.3497
  699POPI   C3B 9785  17.320   4.292   7.250  0.0880  0.0529 -0.0770
  699POPI   C4B 9786  17.398   4.036   7.530 -0.3468 -0.2977  0.2987
  700POPI    C1 9787   0.048   3.914   5.846  0.1863  0.2048  0.0084
  700POPI    C2 9788   0.189   3.788   5.493  0.0258 -0.0287  0.0247
  700POPI    C3 9789  -0.196   3.889   5.530  0.0296 -0.0573  0.1466
  700POPI   PO4 9790   0.079   3.738   5.984 -0.0093 -0.1718  0.1126
  700POPI   GL1 9791   0.288   3.449   6.230  0.0247  0.1939 -0.0548
  700POPI   GL2 9792   0.046   3.152   6.100 -0.2001  0.0220 -0.1776
  700POPI   C1A 9793   0.504   3.253   6.558  0.0650 -0.1097  0.1932
  700POPI   D2A 9794   0.752   3.347   6.884  0.3360  0.0402  0.0245
  700POPI   C3A 9795   0.838   3.075   7.043 -0.2165  0.0074 -0.0548
  700POPI   C4A 9796   0.689   2.736   7.170  0.1608  0.2744 -0.0855
  700POPI   C1B 9797  -0.044   3.246   6.582 -0.1682  0.2356  0.0913
  700POPI   C2B 9798  -0.121   3.102   6.986 -0.1772 -0.0696  0.2753
  700POPI   C3B 9799  -0.195   3.267   7.512 -0.4451 -0.0089  0.3352
  700POPI   C4B 9800  -0.331   3.236   7.899  0.0271 -0.2824  0.2025
  701POPI    C1 9801   7.873   0.777   6.367 -0.1492  0.2196 -0.0362
  701POPI    C2 9802   7.771   0.988   6.691 -0.1926  0.3030 -0.1039
  701POPI    C3 9803   7.663   1.115   6.327 -0.0723  0.2540 -0.1572
  701POPI   PO4 9804   8.029   0.578   6.526 -0.2671 -0.0034 -0.1183
  701POPI   GL1 9805   8.161   0.488   6.877  0.0779  0.2268 -0.0231
  701POPI   GL2 9806   7.986   0.238   6.883 -0.0257 -0.1559 -0.2444
  701POPI   C1A 9807   8.015   0.674   7.221  0.0656  0.1033  0.0599
  701POPI   D2A 9808   7.904   0.676   7.598  0.1084 -0.1735 -0.0407
  701POPI   C3A 9809   7.588   0.750   7.762  0.3600  0.1646  0.1034
  701POPI   C4A 9810   7.420   0.636   8.236 -0.0970 -0.1381 -0.1341
  701POPI   C1B 9811   7.637   0.427   7.038 -0.1306  0.0904 -0.1865
  701POPI   C2B 9812   7.574   0.829   7.282  0.0232  0.1025  0.0612
  701POPI   C3B 9813   7.748   1.164   7.312 -0.3895  0.2868  0.0985
  701POPI   C4B 9814   7.625   1.562   7.489 -0.2000  0.0584 -0.0981
  702POPI    C1 9815   4.797  13.733   6.070 -0.0683 -0.0479  0.1873
  702POPI    C2 9816   4.986  13.896   5.757 -0.2389 -0.0922  0.0591
  702POPI    C3 9817   5.125  13.558   5.921 -0.0826 -0.0064  0.1061
  702POPI   PO4 9818   4.500  13.842   6.070 -0.1810  0.1950  0.1429
  702POPI   GL1 9819   4.446  14.201   6.309 -0.0266  0.3163  0.0287
  702POPI   GL2 9820   4.110  14.161   6.426 -0.0075  0.2597 -0.1190
  702POPI   C1A 9821   4.675  14.311   6.715  0.0072 -0.1254  0.1114
  702POPI   D2A 9822   4.610  14.455   7.146 -0.1700 -0.1278 -0.1185
  702POPI   C3A 9823   4.615  14.327   7.590  0.0707  0.0854  0.3857
  702POPI   C4A 9824   4.906  14.014   7.823  0.0124 -0.1276  0.1574
  702POPI   C1B 9825   3.732  14.277   6.653  0.0981  0.0707 -0.1295
  702POPI   C2B 9826   3.491  14.176   7.045  0.0368  0.1249  0.0560
  702POPI   C3B 9827   3.346  14.267   7.476  0.1615  0.0695  0.4015
  702POPI   C4B 9828   3.404  13.918   7.770 -0.1114 -0.3419  0.0128
  703POPI    C1 9829  15.072  14.081   6.239 -0.0049  0.0947 -0.2016
  703POPI    C2 9830  14.878  14.042   5.892  0.0189  0.0759 -0.2127
  703POPI    C3 9831  14.800  13.791   6.193 -0.1112  0.1856 -0.1536
  703POPI   PO4 9832  15.015  14.320   6.314 -0.1300 -0.0131  0.1424
  703POPI   GL1 9833  15.224  14.631   6.528  0.1944  0.2518  0.0350
  703POPI   GL2 9834  15.475  14.483   6.497 -0.2059 -0.0165  0.0790
  703POPI   C1A 9835  15.144  14.514   6.947 -0.2172 -0.0306  0.0767
  703POPI   D2A 9836  15.014  14.485   7.350 -0.0855  0.2839 -0.0604
  703POPI   C3A 9837  14.707  14.366   7.624 -0.1112 -0.0192 -0.1314
  703POPI   C4A 9838  14.814  14.079   7.978 -0.1242  0.0220 -0.0309
  703POPI   C1B 9839  15.539  14.239   6.890  0.1121  0.0343  0.0637
  703POPI   C2B 9840  15.480  14.275   7.408 -0.0426  0.0999  0.0368
  703POPI   C3B 9841  15.680  14.628   7.706 -0.0510  0.3257  0.0546
  703POPI   C4B 9842  16.160  14.671   7.747  0.1422 -0.1085 -0.0130
  704POPI    C1 9843  10.856   7.338   5.993  0.0474 -0.2969  0.1905
  704POPI    C2 9844  11.241   7.429   5.936 -0.1048  0.0792 -0.3110
  704POPI    C3 9845  11.132   7.049   5.999  0.3712  0.0044  0.1261
  704POPI   PO4 9846  10.789   7.559   6.146 -0.1782  0.3281 -0.2643
  704POPI   GL1 9847  10.580   7.612   6.581  0.1997  0.0853  0.0751
  704POPI   GL2 9848  10.689   7.946   6.506 -0.0659  0.1037 -0.1426
  704POPI   C1A 9849  10.298   7.429   6.943 -0.0353 -0.0187  0.2634
  704POPI   D2A 9850  10.307   7.321   7.399 -0.2636  0.2294  0.2706
  704POPI   C3A 9851   9.897   7.468   7.592  0.0907 -0.0770 -0.1782
  704POPI   C4A 9852   9.676   7.654   7.906 -0.1717 -0.0611  0.0808
  704POPI   C1B 9853  10.347   8.009   6.771  0.0259  0.0475  0.3354
  704POPI   C2B 9854  10.368   7.927   7.155  0.0678  0.0490 -0.3381
  704POPI   C3B 9855  10.124   7.895   7.510 -0.2662 -0.1808  0.2467
  704POPI   C4B 9856  10.280   7.780   7.914 -0.1896  0.0419  0.0004
  705POPI    C1 9857   3.311  12.398   5.957  0.0095  0.0244 -0.0530
  705POPI    C2 9858   3.436  12.649   5.672 -0.0275 -0.0650 -0.1484
  705POPI    C3 9859   3.093  12.448   5.626 -0.2392  0.2203  0.1360
  705POPI   PO4 9860   3.258  12.561   6.124 -0.0309  0.0523 -0.0045
  705POPI   GL1 9861   3.085  12.597   6.548  0.0052 -0.0383  0.1958
  705POPI   GL2 9862   3.048  12.913   6.539  0.2132  0.0441 -0.3270
  705POPI   C1A 9863   3.002  12.466   6.871 -0.1671 -0.1296 -0.1083
  705POPI   D2A 9864   3.145  12.420   7.236 -0.0519 -0.0743  0.2070
  705POPI   C3A 9865   2.728  12.571   7.393  0.0200  0.0331 -0.1133
  705POPI   C4A 9866   2.327  12.625   7.457  0.0026  0.0795 -0.2266
  705POPI   C1B 9867   2.746  12.877   6.826 -0.0376 -0.1903 -0.3941
  705POPI   C2B 9868   2.512  12.581   6.959  0.0242 -0.4066 -0.1289
  705POPI   C3B 9869   2.388  12.213   7.151 -0.2224  0.2162 -0.4296
  705POPI   C4B 9870   2.378  12.092   7.506  0.0124  0.2502 -0.1853
  706POPI    C1 9871  14.885   6.021   5.800 -0.3345 -0.0235 -0.2605
  706POPI    C2 9872  14.958   6.407   5.722  0.0392 -0.0636 -0.1322
  706POPI    C3 9873  14.946   6.141   5.423 -0.2099  0.0430 -0.2200
  706POPI   PO4 9874  14.707   6.049   5.996 -0.1399 -0.1451  0.1720
  706POPI   GL1 9875  14.617   6.084   6.427 -0.4639  0.1660 -0.0939
  706POPI   GL2 9876  14.266   6.262   6.383 -0.2193 -0.1774  0.0896
  706POPI   C1A 9877  14.806   5.933   6.704 -0.0935 -0.0439  0.0112
  706POPI   D2A 9878  14.886   6.066   7.137 -0.0064 -0.2276 -0.0934
  706POPI   C3A 9879  15.022   5.899   7.505 -0.1949  0.1069  0.0681
  706POPI   C4A 9880  15.135   6.173   7.917 -0.0183  0.0892 -0.0384
  706POPI   C1B 9881  14.406   6.291   6.808 -0.1208 -0.1332  0.0669
  706POPI   C2B 9882  14.488   6.372   7.248 -0.1062  0.2126 -0.1616
  706POPI   C3B 9883  14.790   6.305   7.596  0.0499  0.0469  0.2680
  706POPI   C4B 9884  14.806   6.533   7.960 -0.1312  0.0887 -0.0043
  707POPI    C1 9885  13.159  10.916   5.823  0.2672  0.4964  0.1701
  707POPI    C2 9886  13.425  10.785   5.554 -0.2504 -0.1576 -0.0485
  707POPI    C3 9887  13.234  11.131   5.493  0.3009  0.1588 -0.0475
  707POPI   PO4 9888  13.324  10.916   6.030  0.1917  0.1074  0.0008
  707POPI   GL1 9889  13.551  11.173   6.305 -0.4025 -0.1625 -0.1648
  707POPI   GL2 9890  13.895  10.994   6.335  0.0835 -0.1316 -0.1538
  707POPI   C1A 9891  13.636  11.316   6.713 -0.0554  0.5301  0.1474
  707POPI   D2A 9892  13.858  11.401   6.986 -0.0294 -0.0346 -0.3731
  707POPI   C3A 9893  14.291  11.472   6.877 -0.1480  0.1473  0.2187
  707POPI   C4A 9894  14.734  11.276   6.841 -0.2785  0.1921  0.3491
  707POPI   C1B 9895  14.057  11.355   6.439  0.0767  0.1607  0.1561
  707POPI   C2B 9896  14.348  11.696   6.472  0.0908  0.3033  0.2825
  707POPI   C3B 9897  14.423  12.161   6.496 -0.1200 -0.2769 -0.1548
  707POPI   C4B 9898  14.438  12.663   6.565  0.1902 -0.1051 -0.0643
  708POPI    C1 9899   2.037  15.795   5.553  0.1411 -0.0294 -0.0281
  708POPI    C2 9900   2.413  15.784   5.416  0.2666  0.0453  0.2992
  708POPI    C3 9901   2.242  15.451   5.558  0.0940 -0.0592 -0.1376
  708POPI   PO4 9902   2.042  16.090   5.613  0.0080 -0.2889 -0.1171
  708POPI   GL1 9903   2.132  16.259   6.017  0.1744 -0.4613 -0.2221
  708POPI   GL2 9904   1.992  16.472   5.958 -0.2092  0.3195  0.0397
  708POPI   C1A 9905   2.330  16.132   6.331 -0.3788 -0.0540  0.0470
  708POPI   D2A 9906   2.690  16.021   6.545 -0.0598 -0.1609  0.1646
  708POPI   C3A 9907   2.596  16.008   6.962 -0.3850 -0.0256 -0.0568
  708POPI   C4A 9908   2.621  15.918   7.359  0.2294  0.0384 -0.0376
  708POPI   C1B 9909   1.969  16.609   6.405 -0.0450  0.0693 -0.2267
  708POPI   C2B 9910   2.014  16.787   6.823  0.0101 -0.0933  0.0930
  708POPI   C3B 9911   2.210  16.686   7.163  0.2924 -0.3319 -0.3635
  708POPI   C4B 9912   2.527  16.477   7.399 -0.1664 -0.1632 -0.0245
  709POPI    C1 9913  16.823   2.254   5.810 -0.1022 -0.0185  0.0983
  709POPI    C2 9914  16.794   2.255   5.411  0.1509  0.0341  0.0785
  709POPI    C3 9915  16.726   1.918   5.615 -0.2497  0.0710  0.0153
  709POPI   PO4 9916  16.660   2.450   5.942  0.0510  0.2059  0.0424
  709POPI   GL1 9917  16.688   2.554   6.362  0.3767  0.1179 -0.2802
  709POPI   GL2 9918  16.988   2.408   6.298 -0.1042 -0.0183  0.3057
  709POPI   C1A 9919  16.798   2.882   6.724 -0.2650  0.0806  0.0695
  709POPI   D2A 9920  16.815   2.890   7.096 -0.2040 -0.0362  0.3903
  709POPI   C3A 9921  16.495   2.999   7.415 -0.1245  0.2136  0.0449
  709POPI   C4A 9922  16.224   2.749   7.483  0.0201 -0.1119  0.0833
  709POPI   C1B 9923  16.922   2.364   6.773 -0.0795 -0.1970 -0.1345
  709POPI   C2B 9924  17.142   2.355   7.130  0.1433  0.0862 -0.0820
  709POPI   C3B 9925  17.238   2.359   7.569 -0.2231  0.0962  0.0361
  709POPI   C4B 9926  17.486   2.677   7.777 -0.2479  0.3791  0.2821
  710POPI    C1 9927  16.144   9.152   5.462 -0.3029 -0.2847  0.3683
  710POPI    C2 9928  15.779   9.193   5.302 -0.1067  0.0759 -0.0047
  710POPI    C3 9929  16.070   9.014   5.094  0.0308  0.1323  0.1369
  710POPI   PO4 9930  16.146   9.414   5.572 -0.1160  0.2739  0.1870
  710POPI   GL1 9931  16.295   9.681   5.946  0.0567  0.0926  0.1009
  710POPI   GL2 9932  16.250  10.000   5.891  0.1153  0.1701 -0.1465
  710POPI   C1A 9933  16.316   9.249   6.188 -0.3377  0.0084 -0.0307
  710POPI   D2A 9934  16.524   8.897   6.357  0.0313  0.1250  0.2770
  710POPI   C3A 9935  16.629   8.813   6.687 -0.4086 -0.3135 -0.1655
  710POPI   C4A 9936  16.686   8.538   6.999 -0.2309  0.0665  0.0041
  710POPI   C1B 9937  16.274   9.965   6.337 -0.2512  0.1402 -0.0444
  710POPI   C2B 9938  16.541   9.901   6.675  0.0106 -0.1260  0.1740
  710POPI   C3B 9939  16.679   9.679   6.999 -0.1272 -0.0951 -0.2298
  710POPI   C4B 9940  16.517   9.767   7.478  0.0534  0.2938  0.1087
  711POPI    C1 9941   9.719   5.992   5.936  0.1382 -0.0216  0.0594
  711POPI    C2 9942  10.102   5.972   5.824  0.0501 -0.0848 -0.2419
  711POPI    C3 9943   9.841   6.183   5.606 -0.0803 -0.0105 -0.0173
  711POPI   PO4 9944   9.741   5.954   6.278  0.2849  0.3090 -0.3391
  711POPI   GL1 9945   9.842   5.930   6.714 -0.0536  0.0129  0.3301
  711POPI   GL2 9946   9.541   5.712   6.782  0.0245  0.2389  0.2692
  711POPI   C1A 9947   9.933   5.917   7.109 -0.0094  0.3172  0.1640
  711POPI   D2A 9948   9.912   5.782   7.508 -0.0613 -0.0145 -0.0421
  711POPI   C3A 9949  10.008   5.814   7.962 -0.0701 -0.2033  0.0218
  711POPI   C4A 9950   9.985   5.712   8.353 -0.1484 -0.2301 -0.1726
  711POPI   C1B 9951   9.517   5.659   7.245  0.4560  0.1137  0.0329
  711POPI   C2B 9952   9.493   5.623   7.746  0.0866  0.0967  0.2296
  711POPI   C3B 9953   9.435   5.560   8.110  0.0648 -0.0418  0.2702
  711POPI   C4B 9954   9.561   5.570   8.582 -0.1886 -0.1072  0.2578
  712POPI    C1 9955  13.556   4.680   6.168 -0.2349  0.1010  0.0633
  712POPI    C2 9956  13.358   4.954   5.955 -0.0238  0.0264 -0.2365
  712POPI    C3 9957  13.715   4.824   5.830  0.0456 -0.1158  0.0986
  712POPI   PO4 9958  13.664   4.837   6.417 -0.0984  0.0438 -0.1840
  712POPI   GL1 9959  13.558   4.651   6.810 -0.1809  0.0304 -0.1436
  712POPI   GL2 9960  13.356   4.731   6.955 -0.0893 -0.0622 -0.1536
  712POPI   C1A 9961  13.900   4.937   7.003  0.0435 -0.2089 -0.1971
  712POPI   D2A 9962  14.078   5.062   7.439 -0.0632  0.0969 -0.0234
  712POPI   C3A 9963  14.326   4.887   7.771  0.0685 -0.2711  0.1122
  712POPI   C4A 9964  14.546   5.141   8.103  0.2682 -0.1176  0.0478
  712POPI   C1B 9965  13.685   4.703   7.383  0.0154  0.0545  0.2002
  712POPI   C2B 9966  13.779   4.849   7.715  0.1421  0.1273 -0.1408
  712POPI   C3B 9967  13.911   4.827   8.164 -0.0567  0.2817  0.2923
  712POPI   C4B 9968  14.329   4.805   8.324  0.1987 -0.2134 -0.1494
  713POPI    C1 9969  12.393  15.594   6.123 -0.0256 -0.1794 -0.0867
  713POPI    C2 9970  12.102  15.321   6.089 -0.0311 -0.1892  0.0334
  713POPI    C3 9971  12.135  15.613   5.818 -0.2474 -0.0991  0.1029
  713POPI   PO4 9972  12.504  15.617   6.336  0.2116 -0.0856  0.0288
  713POPI   GL1 9973  12.673  15.480   6.778  0.0642  0.4688  0.3270
  713POPI   GL2 9974  12.812  15.139   6.725  0.1720  0.0611 -0.0696
  713POPI   C1A 9975  12.805  15.437   7.164 -0.0441  0.0271 -0.0666
  713POPI   D2A 9976  12.935  15.428   7.543 -0.1477 -0.1064  0.0360
  713POPI   C3A 9977  12.770  15.599   7.934  0.0489 -0.0289 -0.0202
  713POPI   C4A 9978  12.866  15.830   8.249 -0.1652 -0.0578  0.2152
  713POPI   C1B 9979  13.118  15.021   6.914  0.1638 -0.0988 -0.0013
  713POPI   C2B 9980  13.442  14.799   7.125 -0.0419  0.0545  0.3485
  713POPI   C3B 9981  13.439  14.609   7.513  0.0369 -0.1316 -0.0139
  713POPI   C4B 9982  13.120  14.545   7.774  0.0363 -0.0140 -0.0821
  714POPI    C1 9983  13.685  12.723   5.780  0.0459 -0.3069  0.0373
  714POPI    C2 9984  13.806  12.495   5.474  0.2459 -0.1893  0.0271
  714POPI    C3 9985  13.925  12.876   5.499 -0.1306 -0.0666  0.0141
  714POPI   PO4 9986  13.682  12.578   5.997  0.2673  0.3647 -0.2603
  714POPI   GL1 9987  13.679  12.589   6.479  0.1457 -0.2122 -0.0083
  714POPI   GL2 9988  14.008  12.751   6.376  0.0812  0.1585  0.4453
  714POPI   C1A 9989  13.994  12.419   6.786 -0.0917  0.0222  0.0268
  714POPI   D2A 9990  14.320  12.352   6.976  0.1796 -0.1574  0.2187
  714POPI   C3A 9991  14.432  12.227   7.338  0.1621  0.2211 -0.2862
  714POPI   C4A 9992  14.231  11.928   7.723 -0.1491 -0.0333  0.1405
  714POPI   C1B 9993  14.074  13.001   6.741 -0.1041 -0.1484 -0.0747
  714POPI   C2B 9994  14.191  12.876   7.045 -0.1815 -0.1593 -0.2026
  714POPI   C3B 9995  13.934  12.586   7.263 -0.3064  0.1183 -0.3403
  714POPI   C4B 9996  13.897  12.257   7.546 -0.2244  0.4489 -0.1748
  715POPI    C1 9997   4.490   5.088   5.981  0.0843 -0.0965 -0.0237
  715POPI    C2 9998   4.235   5.056   5.675 -0.1402  0.1193  0.1358
  715POPI    C3 9999   4.586   5.243   5.625 -0.1231  0.0478 -0.0187
  715POPI   PO410000   4.344   5.229   6.159 -0.0034  0.2463  0.2018
  715POPI   GL110001   4.238   5.403   6.552  0.1672 -0.0618 -0.0320
  715POPI   GL210002   3.990   5.591   6.488 -0.0609  0.0419  0.0932
  715POPI   C1A10003   4.437   5.465   6.880 -0.1108 -0.0429  0.1061
  715POPI   D2A10004   4.275   5.448   7.205  0.0182  0.2302  0.0437
  715POPI   C3A10005   4.327   5.590   7.640  0.0435 -0.2644  0.0885
  715POPI   C4A10006   4.280   5.741   8.122 -0.2837  0.2659 -0.1452
  715POPI   C1B10007   4.022   5.741   6.899  0.0248  0.2543 -0.1479
  715POPI   C2B10008   3.967   5.869   7.384 -0.2348  0.1026  0.1013
  715POPI   C3B10009   3.914   5.796   7.839  0.1742  0.1650  0.1391
  715POPI   C4B10010   3.595   5.850   8.205 -0.1657 -0.1390  0.0155
  716POPI    C110011   4.123  15.637   5.751 -0.0165 -0.0187 -0.1055
  716POPI    C210012   4.341  15.801   5.459 -0.0616  0.0406 -0.1060
  716POPI    C310013   4.065  15.524   5.372  0.0529 -0.0768 -0.0991
  716POPI   PO410014   4.323  15.541   5.955  0.2984  0.0701  0.2793
  716POPI   GL110015   4.370  15.393   6.407  0.0155  0.1298  0.2074
  716POPI   GL210016   4.629  15.154   6.416  0.1886  0.1959  0.0369
  716POPI   C1A10017   4.517  15.365   6.881 -0.1209 -0.2492  0.0433
  716POPI   D2A10018   4.392  15.373   7.328  0.3634  0.0412  0.0294
  716POPI   C3A10019   4.169  15.721   7.519  0.1626  0.2236  0.1236
  716POPI   C4A10020   4.249  16.069   7.887 -0.0040 -0.2657  0.1489
  716POPI   C1B10021   4.811  15.619   6.492  0.2853 -0.1397  0.1956
  716POPI   C2B10022   4.906  15.960   6.731 -0.0485  0.1934 -0.0879
  716POPI   C3B10023   4.977  16.028   7.166  0.1363 -0.0189  0.0943
  716POPI   C4B10024   4.649  15.860   7.512 -0.3953  0.0431  0.3216
  717POPI    C110025   2.055  12.579   5.806  0.1872 -0.0456  0.0557
  717POPI    C210026   2.329  12.682   5.534  0.2105  0.0503  0.1150
  717POPI    C310027   1.941  12.741   5.458  0.2011 -0.1458  0.0043
  717POPI   PO410028   2.256  12.358   5.930 -0.1179  0.1060 -0.3177
  717POPI   GL110029   2.107  12.044   6.256 -0.1154  0.0223  0.1338
  717POPI   GL210030   2.322  11.739   6.422  0.0170 -0.1393 -0.0934
  717POPI   C1A10031   1.812  11.868   6.481 -0.0826 -0.0390 -0.2656
  717POPI   D2A10032   1.888  11.599   6.832 -0.3725  0.1436  0.0110
  717POPI   C3A10033   2.109  11.816   7.098  0.0929  0.2998  0.0412
  717POPI   C4A10034   2.463  11.671   7.282  0.0522 -0.1087  0.1141
  717POPI   C1B10035   2.034  11.413   6.382  0.4247 -0.1155 -0.0692
  717POPI   C2B10036   1.756  11.141   6.567  0.0899  0.1131 -0.1746
  717POPI   C3B10037   1.639  11.221   6.961 -0.2561  0.1936  0.0656
  717POPI   C4B10038   1.396  11.245   7.310  0.0138 -0.1843 -0.0024
  718POPI    C110039   6.768   5.456   6.078 -0.0260 -0.1099 -0.0252
  718POPI    C210040   7.024   5.319   5.803  0.0417 -0.2623  0.1118
  718POPI    C310041   6.823   5.658   5.738  0.1556 -0.2280 -0.0678
  718POPI   PO410042   6.864   5.520   6.334 -0.1375  0.1078  0.0157
  718POPI   GL110043   7.134   5.350   6.693 -0.0003  0.1066 -0.1009
  718POPI   GL210044   6.806   5.310   6.767  0.3163  0.1663 -0.1537
  718POPI   C1A10045   7.316   5.621   7.011  0.5353 -0.2779  0.0333
  718POPI   D2A10046   7.647   5.684   7.310 -0.0768  0.1115 -0.3910
  718POPI   C3A10047   7.417   5.737   7.774 -0.2678 -0.0076 -0.0567
  718POPI   C4A10048   7.179   5.977   8.162  0.0122 -0.0879 -0.0194
  718POPI   C1B10049   7.030   5.111   7.160 -0.2402  0.0307  0.3075
  718POPI   C2B10050   7.034   4.873   7.478 -0.0505 -0.2283  0.2724
  718POPI   C3B10051   7.153   4.585   7.724  0.3256  0.3280  0.1424
  718POPI   C4B10052   7.275   4.471   8.117 -0.2389  0.0534  0.0073
  719POPI    C110053   6.077   7.012   6.259  0.0286 -0.1167  0.0561
  719POPI    C210054   6.190   7.366   6.406 -0.3628 -0.0611  0.2369
  719POPI    C310055   5.984   7.348   6.064  0.1170 -0.1571 -0.0566
  719POPI   PO410056   5.995   6.859   6.480 -0.5731 -0.2342  0.0829
  719POPI   GL110057   6.155   6.984   6.789  0.0501  0.1690 -0.0097
  719POPI   GL210058   6.433   7.005   6.689 -0.0848 -0.0939  0.2424
  719POPI   C1A10059   5.952   6.883   7.217 -0.1307  0.2645 -0.1097
  719POPI   D2A10060   5.910   6.765   7.648 -0.2433 -0.1837 -0.0995
  719POPI   C3A10061   6.140   6.692   7.988 -0.0165  0.0016  0.4565
  719POPI   C4A10062   6.179   6.655   8.431 -0.2992  0.0888  0.1786
  719POPI   C1B10063   6.582   7.136   7.016  0.1441 -0.0452 -0.0710
  719POPI   C2B10064   6.804   7.129   7.330  0.0144 -0.0706  0.0010
  719POPI   C3B10065   6.839   7.142   7.725  0.2178  0.0358 -0.1281
  719POPI   C4B10066   7.010   7.107   8.143 -0.1153  0.0206 -0.2786
  720POPI    C110067   4.344   1.813   6.356 -0.0017 -0.1126  0.0129
  720POPI    C210068   4.279   1.541   6.070 -0.1677 -0.0137 -0.0450
  720POPI    C310069   4.192   1.455   6.450 -0.0381 -0.1102 -0.0365
  720POPI   PO410070   4.201   2.056   6.270 -0.0941 -0.2692 -0.1625
  720POPI   GL110071   3.972   2.199   6.599  0.0368 -0.0110  0.1506
  720POPI   GL210072   4.078   1.893   6.794  0.0894 -0.2497  0.2450
  720POPI   C1A10073   3.710   2.220   7.054 -0.0837  0.1828  0.1591
  720POPI   D2A10074   3.651   2.402   7.401  0.0193 -0.1354 -0.0383
  720POPI   C3A10075   3.895   2.222   7.774  0.3067  0.0861 -0.1127
  720POPI   C4A10076   3.770   2.178   8.142 -0.0906  0.1100  0.2167
  720POPI   C1B10077   4.076   1.752   7.182  0.3096 -0.1881  0.0772
  720POPI   C2B10078   3.910   1.793   7.528 -0.0363  0.2328  0.0626
  720POPI   C3B10079   3.878   1.713   7.932 -0.1444 -0.1645 -0.0483
  720POPI   C4B10080   3.982   1.824   8.386  0.0160  0.1532  0.1532
  721POPI    C110081   4.242   3.339   5.880 -0.0864 -0.0864  0.1260
  721POPI    C210082   4.195   3.526   5.530 -0.1446 -0.0239  0.1670
  721POPI    C310083   4.476   3.244   5.569  0.0632  0.1778  0.1545
  721POPI   PO410084   4.208   3.556   6.068 -0.0746 -0.2662  0.1078
  721POPI   GL110085   4.371   3.639   6.495  0.2409 -0.0650  0.3240
  721POPI   GL210086   4.218   3.428   6.589 -0.0589 -0.1012  0.0022
  721POPI   C1A10087   4.197   3.956   6.745 -0.0165 -0.1293 -0.2197
  721POPI   D2A10088   3.999   3.987   7.156 -0.0183 -0.2189  0.1362
  721POPI   C3A10089   4.187   3.768   7.606 -0.0241  0.0234 -0.2202
  721POPI   C4A10090   4.189   3.622   7.954  0.1914  0.0125 -0.1241
  721POPI   C1B10091   4.201   3.544   7.059 -0.2113  0.1797 -0.0280
  721POPI   C2B10092   4.150   3.290   7.398 -0.0472 -0.2051  0.1118
  721POPI   C3B10093   4.155   3.166   7.813  0.0891 -0.1400  0.0243
  721POPI   C4B10094   3.923   3.178   8.179  0.4884  0.0507 -0.1389
  722POPI    C110095  12.050   1.127   6.341 -0.2072 -0.0924 -0.0749
  722POPI    C210096  12.179   1.366   6.047 -0.0494  0.1766  0.2067
  722POPI    C310097  11.789   1.282   6.080 -0.0590  0.0761 -0.1252
  722POPI   PO410098  12.310   1.108   6.429  0.0324 -0.0201  0.0220
  722POPI   GL110099  12.536   1.276   6.767  0.1692 -0.0578  0.0694
  722POPI   GL210100  12.802   1.059   6.762  0.1381  0.2500  0.0057
  722POPI   C1A10101  12.640   1.416   7.182 -0.1562  0.0290  0.1852
  722POPI   D2A10102  12.707   1.677   7.611 -0.0550  0.4531  0.1276
  722POPI   C3A10103  12.751   1.340   7.972 -0.0451  0.1092  0.0926
  722POPI   C4A10104  13.049   1.103   8.312 -0.3368  0.1824 -0.0157
  722POPI   C1B10105  12.619   0.935   7.141 -0.1532  0.3270 -0.0771
  722POPI   C2B10106  12.572   0.924   7.600  0.0283  0.0685 -0.1398
  722POPI   C3B10107  12.659   0.846   8.067  0.0334 -0.1589  0.0709
  722POPI   C4B10108  12.483   1.142   8.366  0.4071  0.4025  0.4454
  723POPI    C110109   3.344  15.445   5.872  0.1989  0.1457  0.2154
  723POPI    C210110   3.682  15.484   5.663  0.0068  0.3086 -0.0713
  723POPI    C310111   3.551  15.120   5.764  0.1396  0.2318 -0.1716
  723POPI   PO410112   3.277  15.691   5.986 -0.0886  0.0323 -0.0212
  723POPI   GL110113   3.266  15.790   6.434 -0.3037 -0.2682  0.0359
  723POPI   GL210114   3.542  15.883   6.376 -0.1848 -0.0422 -0.1134
  723POPI   C1A10115   3.178  15.879   6.892 -0.2988  0.1229 -0.0170
  723POPI   D2A10116   3.107  15.875   7.295 -0.3087 -0.3101 -0.1156
  723POPI   C3A10117   2.967  16.260   7.585  0.0248  0.0319  0.1252
  723POPI   C4A10118   2.551  16.209   7.842 -0.2419 -0.2248 -0.4154
  723POPI   C1B10119   3.694  15.800   6.772 -0.2095  0.2690  0.2748
  723POPI   C2B10120   3.581  15.851   7.168  0.0197  0.2591 -0.0742
  723POPI   C3B10121   3.510  16.010   7.587  0.3427  0.0398  0.1818
  723POPI   C4B10122   3.368  16.110   7.996  0.0009 -0.2051  0.0320
  724POPI    C110123   4.965   8.418   5.788 -0.0717 -0.0016 -0.2417
  724POPI    C210124   4.727   8.264   6.071  0.1058 -0.0752 -0.1309
  724POPI    C310125   4.603   8.278   5.691 -0.1608  0.0846 -0.0403
  724POPI   PO410126   5.100   8.701   5.897 -0.0057  0.3952 -0.0519
  724POPI   GL110127   5.222   8.698   6.372  0.3569 -0.1319  0.1833
  724POPI   GL210128   5.397   9.049   6.353 -0.1960  0.2587 -0.1517
  724POPI   C1A10129   5.311   8.527   6.752  0.1163 -0.1770 -0.0683
  724POPI   D2A10130   5.245   8.538   7.246  0.1160  0.0395  0.0933
  724POPI   C3A10131   4.974   8.695   7.456  0.1279  0.4469 -0.0746
  724POPI   C4A10132   4.507   8.593   7.266  0.3356  0.1653 -0.0204
  724POPI   C1B10133   5.390   9.105   6.721 -0.1702  0.1530 -0.1611
  724POPI   C2B10134   5.388   9.103   7.119  0.0155 -0.0731  0.0776
  724POPI   C3B10135   5.260   9.055   7.600  0.1226 -0.1811  0.0570
  724POPI   C4B10136   4.922   8.983   7.900 -0.2296  0.1918 -0.0272
  725POPI    C110137   4.140   8.108   5.463  0.1178  0.1664 -0.2721
  725POPI    C210138   3.938   8.350   5.217  0.0474 -0.0254 -0.4050
  725POPI    C310139   3.902   7.953   5.182 -0.0536 -0.0555 -0.0089
  725POPI   PO410140   4.110   8.251   5.700 -0.0084  0.0207 -0.1412
  725POPI   GL110141   3.915   8.169   6.091 -0.1661  0.1413 -0.1767
  725POPI   GL210142   3.647   8.354   6.018 -0.3132  0.0138 -0.1705
  725POPI   C1A10143   4.228   8.374   6.436 -0.3120  0.0066  0.3151
  725POPI   D2A10144   4.353   8.570   6.829 -0.0153  0.1392  0.1096
  725POPI   C3A10145   4.477   8.929   6.721  0.0164  0.1048  0.2828
  725POPI   C4A10146   4.537   9.216   6.332  0.0495  0.0208 -0.0729
  725POPI   C1B10147   3.696   8.734   6.260 -0.2689 -0.1957  0.2406
  725POPI   C2B10148   3.507   9.008   6.482  0.2292 -0.3266 -0.0058
  725POPI   C3B10149   3.450   9.045   6.962 -0.1966 -0.0307  0.1163
  725POPI   C4B10150   3.691   9.261   7.353 -0.0167  0.0615 -0.0497
  726POPI    C110151   5.377   3.805   6.083 -0.0300  0.1224  0.1696
  726POPI    C210152   5.339   4.143   5.872 -0.1553  0.1088  0.1696
  726POPI    C310153   5.121   3.822   5.776  0.1062 -0.0356  0.0449
  726POPI   PO410154   5.310   3.880   6.276  0.1652  0.1153 -0.2039
  726POPI   GL110155   5.259   3.830   6.686 -0.1517  0.2153  0.1876
  726POPI   GL210156   5.537   3.968   6.781 -0.0296 -0.1317 -0.1623
  726POPI   C1A10157   5.107   3.931   7.070 -0.2126  0.2706  0.0108
  726POPI   D2A10158   5.062   3.735   7.497  0.2523 -0.1113  0.0599
  726POPI   C3A10159   5.109   4.000   7.914  0.3052  0.1123 -0.5316
  726POPI   C4A10160   4.814   4.328   8.095 -0.1795  0.2841 -0.0307
  726POPI   C1B10161   5.960   3.992   6.871 -0.1157  0.1236 -0.2528
  726POPI   C2B10162   6.438   3.870   6.913  0.0560 -0.0310 -0.0136
  726POPI   C3B10163   6.783   3.845   7.191  0.1176 -0.3473 -0.0535
  726POPI   C4B10164   7.099   3.612   7.374 -0.1936 -0.1102 -0.1011
  727POPI    C110165   7.251   9.041   6.299 -0.1399  0.0151  0.0569
  727POPI    C210166   7.253   8.874   5.935  0.3133  0.1772 -0.0217
  727POPI    C310167   7.092   8.678   6.245 -0.1743  0.0826 -0.3238
  727POPI   PO410168   7.539   9.153   6.348 -0.0456  0.0745 -0.2079
  727POPI   GL110169   7.800   9.292   6.742  0.0338  0.0361  0.2061
  727POPI   GL210170   7.408   9.175   6.820  0.0003 -0.2682 -0.1118
  727POPI   C1A10171   7.979   9.405   7.132  0.0696 -0.0607  0.2648
  727POPI   D2A10172   7.944   9.422   7.664  0.0415  0.0259 -0.1632
  727POPI   C3A10173   7.581   9.361   7.894 -0.2120 -0.1995 -0.1118
  727POPI   C4A10174   7.114   9.438   8.177  0.0931  0.2794  0.3885
  727POPI   C1B10175   7.528   9.306   7.194  0.1489  0.2297  0.0042
  727POPI   C2B10176   7.291   9.136   7.500  0.1648  0.0121  0.0597
  727POPI   C3B10177   7.274   8.983   7.888 -0.2646 -0.0802 -0.0372
  727POPI   C4B10178   7.373   8.986   8.355  0.2734 -0.1424  0.2232
  728POPI    C110179   8.546  13.395   6.309  0.0248  0.1588  0.0463
  728POPI    C210180   8.749  13.419   5.965  0.1403 -0.0681  0.0962
  728POPI    C310181   8.349  13.406   5.962  0.1445 -0.1874 -0.0374
  728POPI   PO410182   8.709  13.187   6.466 -0.2304  0.0692  0.0303
  728POPI   GL110183   8.757  13.121   6.832 -0.0355  0.1301 -0.0629
  728POPI   GL210184   8.446  13.182   6.884  0.0782  0.0791  0.1947
  728POPI   C1A10185   9.110  13.163   7.197 -0.1222  0.0992  0.3106
  728POPI   D2A10186   9.169  13.323   7.643 -0.0663  0.0082  0.0093
  728POPI   C3A10187   8.922  13.153   8.077  0.2729  0.0923 -0.2512
  728POPI   C4A10188   8.855  13.198   8.576 -0.0185  0.2536 -0.1796
  728POPI   C1B10189   8.196  13.187   7.150 -0.0972 -0.0065  0.1521
  728POPI   C2B10190   7.917  13.100   7.487  0.1222  0.0106 -0.1724
  728POPI   C3B10191   7.993  13.032   7.813 -0.0981 -0.1118 -0.3828
  728POPI   C4B10192   7.955  13.118   8.214  0.0566 -0.0408  0.0235
  729POPI    C110193   8.737   7.077   5.873 -0.0539 -0.1873 -0.4231
  729POPI    C210194   8.581   7.395   5.688 -0.1126 -0.0114 -0.0798
  729POPI    C310195   8.971   7.387   5.777 -0.1349  0.0212  0.0228
  729POPI   PO410196   8.575   7.067   6.106 -0.0789 -0.0907 -0.0113
  729POPI   GL110197   8.697   7.122   6.531  0.1190  0.0279  0.2048
  729POPI   GL210198   8.599   6.749   6.495 -0.0222 -0.1198  0.1018
  729POPI   C1A10199   8.485   7.330   6.761  0.1662  0.1553  0.1641
  729POPI   D2A10200   8.211   7.495   6.855  0.0021 -0.0846 -0.2290
  729POPI   C3A10201   8.254   7.676   7.226  0.0198  0.0637  0.1844
  729POPI   C4A10202   8.174   7.530   7.595 -0.0293  0.0365  0.0251
  729POPI   C1B10203   8.679   6.562   6.933  0.3778  0.0043  0.0849
  729POPI   C2B10204   8.479   6.681   7.316 -0.2194  0.1181  0.0097
  729POPI   C3B10205   8.056   6.789   7.328 -0.0974 -0.0399 -0.1822
  729POPI   C4B10206   7.713   6.735   7.606 -0.3576  0.0074  0.1281
  730POPI    C110207   6.278  11.791   5.712 -0.0876  0.1431  0.2850
  730POPI    C210208   6.311  12.159   5.561 -0.0792 -0.0011 -0.0739
  730POPI    C310209   6.638  11.962   5.680 -0.0814  0.0970  0.0980
  730POPI   PO410210   6.023  11.743   5.878 -0.0005 -0.1539 -0.1351
  730POPI   GL110211   5.887  11.457   6.197 -0.1265  0.0002  0.1659
  730POPI   GL210212   5.542  11.459   6.171 -0.1980 -0.1542 -0.2871
  730POPI   C1A10213   5.883  11.367   6.560  0.0193 -0.1492  0.1762
  730POPI   D2A10214   6.189  11.251   6.846 -0.0311  0.0293 -0.0435
  730POPI   C3A10215   6.383  10.911   6.841 -0.0531 -0.1707  0.2105
  730POPI   C4A10216   6.668  10.634   6.985 -0.0965 -0.1226  0.1846
  730POPI   C1B10217   5.277  11.672   6.358  0.0967  0.0337 -0.2619
  730POPI   C2B10218   5.268  11.811   6.622  0.0242  0.3308  0.0638
  730POPI   C3B10219   5.516  11.906   6.878  0.0998  0.0737 -0.0889
  730POPI   C4B10220   5.824  12.214   6.957 -0.1496 -0.2259  0.0167
  731POPI    C110221  11.072   3.686   6.356 -0.2288  0.0329 -0.1120
  731POPI    C210222  10.922   3.891   6.047 -0.2417 -0.2259 -0.2802
  731POPI    C310223  10.854   3.498   6.079 -0.3576 -0.1778  0.1279
  731POPI   PO410224  11.047   3.762   6.574  0.0262  0.2923  0.1247
  731POPI   GL110225  10.922   3.880   6.908  0.2570 -0.1430 -0.0361
  731POPI   GL210226  11.304   3.976   6.924 -0.3563 -0.0214  0.1915
  731POPI   C1A10227  10.600   4.274   6.921  0.2255  0.0422 -0.2442
  731POPI   D2A10228  10.541   4.581   7.186  0.0402 -0.0746 -0.2567
  731POPI   C3A10229  10.432   4.516   7.648 -0.2848 -0.0146 -0.1303
  731POPI   C4A10230  10.601   4.629   8.049 -0.3484  0.2475  0.1099
  731POPI   C1B10231  11.118   4.130   7.263  0.0548  0.1426  0.1293
  731POPI   C2B10232  10.795   4.203   7.557  0.0770  0.1081 -0.1314
  731POPI   C3B10233  10.606   4.102   7.940 -0.0254 -0.0092  0.2026
  731POPI   C4B10234  10.479   3.709   8.177 -0.2279  0.0941  0.2369
  732POPI    C110235  13.904   1.154   5.785 -0.2790 -0.1872 -0.0979
  732POPI    C210236  13.756   1.511   5.681 -0.3924 -0.2010  0.0122
  732POPI    C310237  13.547   1.179   5.606 -0.2148 -0.2596 -0.2369
  732POPI   PO410238  14.008   1.230   6.077 -0.0996  0.0199  0.1883
  732POPI   GL110239  13.861   1.206   6.571 -0.1519 -0.2748  0.0179
  732POPI   GL210240  14.141   1.369   6.499 -0.0296 -0.0831 -0.0640
  732POPI   C1A10241  13.777   1.218   6.992 -0.4731  0.1298 -0.0420
  732POPI   D2A10242  13.665   1.306   7.372 -0.0253 -0.1121  0.0376
  732POPI   C3A10243  13.942   1.351   7.752  0.0871 -0.0327 -0.0197
  732POPI   C4A10244  13.909   1.439   8.203  0.1987 -0.3949 -0.2479
  732POPI   C1B10245  14.251   1.214   6.852 -0.3103 -0.0348 -0.0519
  732POPI   C2B10246  14.130   1.151   7.319  0.0420 -0.0107 -0.1205
  732POPI   C3B10247  14.225   0.947   7.705  0.0101  0.2045 -0.0265
  732POPI   C4B10248  14.209   0.982   8.160 -0.0046 -0.2204  0.1911
  733POPI    C110249   7.036   0.082   6.050 -0.0249 -0.0159  0.0153
  733POPI    C210250   7.061   0.479   6.009  0.0694 -0.0177  0.0539
  733POPI    C310251   6.704   0.305   6.050  0.0189  0.0504 -0.0889
  733POPI   PO410252   7.245   0.010   6.199 -0.0704 -0.1157  0.1929
  733POPI   GL110253   7.263  -0.112   6.625 -0.1026 -0.2798  0.0888
  733POPI   GL210254   6.812  -0.257   6.806 -0.0490  0.0409  0.0749
  733POPI   C1A10255   7.145   0.172   6.888  0.2994 -0.0460 -0.0062
  733POPI   D2A10256   7.027   0.355   7.241  0.1420  0.3147 -0.0986
  733POPI   C3A10257   7.326   0.446   7.458 -0.0544 -0.2466 -0.0349
  733POPI   C4A10258   7.463   0.266   7.820 -0.1071 -0.1269 -0.2255
  733POPI   C1B10259   6.798  -0.162   7.196  0.0527  0.2698 -0.2668
  733POPI   C2B10260   6.628  -0.133   7.608 -0.0182 -0.0486  0.0416
  733POPI   C3B10261   6.610   0.057   8.060  0.0946  0.1355 -0.1492
  733POPI   C4B10262   6.482   0.172   8.429  0.3535  0.1581 -0.1863
  734POPI    C110263  13.600  15.121   6.253 -0.1015 -0.0890 -0.0154
  734POPI    C210264  13.501  14.943   6.597  0.1548  0.0043  0.1094
  734POPI    C310265  13.498  14.734   6.256 -0.1970 -0.0634  0.1499
  734POPI   PO410266  13.873  15.183   6.301 -0.1338  0.0210  0.0976
  734POPI   GL110267  14.020  15.199   6.662  0.1998 -0.0095 -0.0603
  734POPI   GL210268  14.387  15.419   6.675 -0.1082 -0.0960  0.0904
  734POPI   C1A10269  13.630  15.330   6.941 -0.1323  0.1341 -0.1844
  734POPI   D2A10270  13.314  15.353   7.219  0.1745  0.1342  0.0283
  734POPI   C3A10271  13.040  14.948   7.405  0.2653 -0.0915  0.0957
  734POPI   C4A10272  12.978  14.613   7.168 -0.0829  0.2854 -0.0781
  734POPI   C1B10273  14.724  15.625   7.010  0.2056 -0.2307 -0.0590
  734POPI   C2B10274  14.884  15.865   7.320  0.2302  0.2204 -0.1209
  734POPI   C3B10275  15.020  15.874   7.759 -0.0740  0.1637  0.0085
  734POPI   C4B10276  15.251  15.960   8.105 -0.2198  0.0342  0.0238
  735POPI    C110277   4.977   6.752   6.155 -0.0129  0.0842  0.1707
  735POPI    C210278   4.973   6.501   5.844 -0.1055  0.2627  0.0257
  735POPI    C310279   5.237   6.449   6.139 -0.1428 -0.0213  0.0122
  735POPI   PO410280   4.656   6.770   6.138 -0.4265  0.0281  0.0345
  735POPI   GL110281   4.370   6.744   6.464  0.1182  0.2221  0.1040
  735POPI   GL210282   4.626   6.519   6.613  0.1234 -0.3151  0.0210
  735POPI   C1A10283   4.084   6.873   6.933 -0.0122 -0.0121  0.0188
  735POPI   D2A10284   3.906   6.895   7.302  0.1267  0.0851  0.1593
  735POPI   C3A10285   4.173   7.162   7.495 -0.0829  0.2098 -0.0721
  735POPI   C4A10286   4.230   7.244   7.983  0.3835 -0.2014  0.1980
  735POPI   C1B10287   4.506   6.475   7.061  0.3651  0.1277 -0.2149
  735POPI   C2B10288   4.224   6.555   7.441 -0.1041  0.3664 -0.1479
  735POPI   C3B10289   3.948   6.531   7.715  0.0535 -0.1591 -0.0053
  735POPI   C4B10290   3.864   6.625   8.100  0.1756 -0.0523  0.0077
  736POPI    C110291  13.261   4.364   6.397  0.2711  0.0452 -0.1902
  736POPI    C210292  13.168   4.753   6.406 -0.1505 -0.0555  0.1467
  736POPI    C310293  13.118   4.543   6.069  0.1848  0.2012 -0.0691
  736POPI   PO410294  13.178   4.277   6.622  0.2641 -0.3096 -0.1262
  736POPI   GL110295  13.086   4.265   6.995 -0.0557  0.2117  0.2804
  736POPI   GL210296  12.869   4.607   6.845 -0.1573  0.0114 -0.0850
  736POPI   C1A10297  13.421   4.253   7.254 -0.0353 -0.1559 -0.1965
  736POPI   D2A10298  13.584   4.303   7.638 -0.0960  0.1644  0.2915
  736POPI   C3A10299  13.953   4.341   7.810 -0.2381 -0.1144  0.0783
  736POPI   C4A10300  14.312   4.370   8.094  0.1326 -0.2441 -0.0399
  736POPI   C1B10301  12.975   4.775   7.219  0.0328  0.3536  0.1762
  736POPI   C2B10302  13.089   4.849   7.598 -0.1809  0.0550 -0.3159
  736POPI   C3B10303  13.307   4.681   7.819 -0.1392 -0.0484 -0.1091
  736POPI   C4B10304  13.589   4.385   8.161 -0.0371 -0.0887 -0.2353
  737POPI    C110305  17.035   6.450   5.994  0.0883 -0.1295 -0.0495
  737POPI    C210306  17.156   6.617   5.651  0.1208  0.1480  0.0947
  737POPI    C310307  17.406   6.385   5.860  0.0147 -0.2439 -0.2018
  737POPI   PO410308  16.883   6.725   6.087  0.3552 -0.0047 -0.1473
  737POPI   GL110309  16.948   7.008   6.384  0.1131 -0.2477 -0.0182
  737POPI   GL210310  16.609   6.892   6.429  0.1685  0.1186  0.4582
  737POPI   C1A10311  17.251   7.151   6.698  0.1244  0.0342  0.1887
  737POPI   D2A10312  17.647   7.225   6.943 -0.2896  0.1694  0.0857
  737POPI   C3A10313  18.011   7.151   6.796  0.0493  0.1417 -0.0415
  737POPI   C4A10314  18.386   7.256   7.080  0.0976  0.1614  0.0261
  737POPI   C1B10315  16.648   7.243   6.662 -0.2412 -0.2092 -0.0825
  737POPI   C2B10316  16.672   7.289   7.076  0.0484 -0.1076 -0.1449
  737POPI   C3B10317  16.747   6.979   7.409 -0.1302  0.2952  0.2432
  737POPI   C4B10318  16.622   6.793   7.905 -0.0516  0.0712  0.0395
  738POPI    C110319  15.289  11.153   5.435 -0.2219 -0.4189 -0.0013
  738POPI    C210320  15.595  10.946   5.283 -0.0795 -0.2054 -0.0096
  738POPI    C310321  15.334  11.125   5.038  0.1919  0.2003 -0.0123
  738POPI   PO410322  15.359  11.162   5.662 -0.0560 -0.0344  0.3386
  738POPI   GL110323  15.422  10.979   6.064  0.0373  0.0651  0.2156
  738POPI   GL210324  15.172  10.807   5.991  0.0666 -0.1013 -0.0747
  738POPI   C1A10325  15.607  10.764   6.395  0.4489 -0.0579  0.2447
  738POPI   D2A10326  15.944  10.556   6.638 -0.0621 -0.0030  0.0364
  738POPI   C3A10327  16.156  10.510   7.025 -0.2868  0.0859 -0.0792
  738POPI   C4A10328  16.343  10.691   7.292 -0.0396 -0.1119 -0.1505
  738POPI   C1B10329  15.044  10.993   6.371 -0.2038  0.0783  0.0136
  738POPI   C2B10330  15.336  11.276   6.645 -0.2149  0.1258  0.1456
  738POPI   C3B10331  15.526  11.439   7.054  0.2973  0.1230  0.0990
  738POPI   C4B10332  15.657  11.809   7.113  0.0881 -0.0577  0.1447
  739POPI    C110333   2.189   9.316   5.387  0.0392 -0.0281 -0.0790
  739POPI    C210334   2.537   9.127   5.334  0.0439 -0.0337 -0.0282
  739POPI    C310335   2.418   9.404   5.071  0.1599  0.0797  0.0380
  739POPI   PO410336   2.163   9.308   5.720  0.1763 -0.1069 -0.0954
  739POPI   GL110337   2.346   9.377   6.053 -0.1631  0.2373 -0.0927
  739POPI   GL210338   2.536   9.141   6.157 -0.1449  0.1436  0.1202
  739POPI   C1A10339   2.100   9.162   6.374 -0.1976 -0.0315 -0.0185
  739POPI   D2A10340   2.023   9.229   6.815  0.1112  0.0035  0.0213
  739POPI   C3A10341   1.723   9.139   7.006 -0.0813 -0.1045 -0.0035
  739POPI   C4A10342   1.518   8.960   7.402 -0.2971  0.1502 -0.0106
  739POPI   C1B10343   2.571   9.279   6.557  0.0048 -0.1309 -0.0282
  739POPI   C2B10344   2.548   9.314   6.950  0.0879  0.1618 -0.1135
  739POPI   C3B10345   2.574   9.280   7.352 -0.0169 -0.0831  0.3519
  739POPI   C4B10346   2.895   9.128   7.705 -0.0833  0.2077 -0.0286
  740POPI    C110347   1.051  16.474   5.986  0.2758  0.2085  0.0115
  740POPI    C210348   1.094  16.093   5.870 -0.0013  0.1084  0.2247
  740POPI    C310349   1.225  16.390   5.636  0.0055 -0.1088 -0.0520
  740POPI   PO410350   0.811  16.500   6.007  0.1862 -0.0612 -0.1865
  740POPI   GL110351   0.758  16.710   6.430  0.2096  0.1753 -0.2707
  740POPI   GL210352   1.085  16.562   6.496 -0.0750 -0.0819 -0.0560
  740POPI   C1A10353   0.663  16.610   6.857 -0.0632  0.1915 -0.0219
  740POPI   D2A10354   0.541  16.564   7.283  0.0309  0.1622 -0.1632
  740POPI   C3A10355   0.279  16.516   7.680  0.0278  0.0372  0.0245
  740POPI   C4A10356  -0.041  16.523   7.938  0.1835  0.1945 -0.2586
  740POPI   C1B10357   1.086  16.324   6.873  0.2545  0.1479  0.1045
  740POPI   C2B10358   1.068  16.311   7.353  0.1818  0.1023  0.2489
  740POPI   C3B10359   1.166  16.062   7.618 -0.2840  0.2609  0.0623
  740POPI   C4B10360   1.275  15.705   7.927  0.2027 -0.0899  0.1233
  741POPI    C110361  13.759   8.257   6.271 -0.0344  0.1487  0.3434
  741POPI    C210362  13.999   8.368   5.970 -0.2144 -0.1787  0.0722
  741POPI    C310363  13.628   8.516   5.996 -0.1828 -0.1141  0.1623
  741POPI   PO410364  13.902   8.226   6.483 -0.3304 -0.1833 -0.0168
  741POPI   GL110365  14.155   8.376   6.768  0.0561  0.0093  0.0409
  741POPI   GL210366  14.043   8.232   7.025 -0.0430 -0.0325  0.0901
  741POPI   C1A10367  14.485   8.353   6.988 -0.0287 -0.0844  0.2637
  741POPI   D2A10368  14.816   8.327   7.204 -0.0068  0.0191  0.0391
  741POPI   C3A10369  15.011   8.482   7.637  0.2447 -0.0128 -0.0026
  741POPI   C4A10370  14.953   8.389   8.073  0.0979 -0.2111  0.0249
  741POPI   C1B10371  14.009   8.183   7.448 -0.0611  0.5041 -0.0453
  741POPI   C2B10372  13.849   8.147   7.912 -0.0510 -0.0504 -0.0127
  741POPI   C3B10373  13.985   8.374   8.265  0.1047 -0.1417 -0.0481
  741POPI   C4B10374  14.376   8.446   8.414  0.2497 -0.1840 -0.2506
  742POPS   CNO10375  13.192  11.473   6.056  0.0288 -0.0393 -0.1518
  742POPS   PO410376  13.036  11.771   6.277  0.1128 -0.0440 -0.1082
  742POPS   GL110377  13.359  11.773   6.459  0.2158  0.1191  0.3223
  742POPS   GL210378  13.654  11.645   6.339 -0.0792 -0.1154  0.0564
  742POPS   C1A10379  13.483  11.822   6.828  0.1466  0.1109  0.1182
  742POPS   D2A10380  13.530  11.952   7.315  0.1625  0.0593  0.0074
  742POPS   C3A10381  13.672  11.783   7.667  0.1382 -0.1409 -0.1638
  742POPS   C4A10382  13.903  11.818   8.122  0.1607 -0.3309 -0.0744
  742POPS   C1B10383  13.939  11.843   6.711  0.0800  0.0369 -0.0556
  742POPS   C2B10384  14.027  11.847   7.135  0.0431 -0.0252  0.0084
  742POPS   C3B10385  14.053  11.518   7.453 -0.0402  0.2122 -0.4019
  742POPS   C4B10386  14.010  11.426   7.856  0.0505  0.0545 -0.2689
  743POPS   CNO10387   3.093   8.329   5.281 -0.0749 -0.0626  0.0704
  743POPS   PO410388   3.211   8.536   5.653  0.2089  0.0526  0.0859
  743POPS   GL110389   3.115   8.415   6.076 -0.0449 -0.0755  0.2606
  743POPS   GL210390   2.860   8.269   6.253 -0.1574 -0.2136  0.1217
  743POPS   C1A10391   3.290   8.464   6.446 -0.1725  0.1977  0.0927
  743POPS   D2A10392   3.323   8.586   6.855 -0.3680  0.0644  0.0706
  743POPS   C3A10393   3.167   8.551   7.303 -0.2519 -0.0765  0.0864
  743POPS   C4A10394   2.825   8.371   7.517  0.1032  0.2330 -0.2507
  743POPS   C1B10395   2.868   8.388   6.629  0.4318 -0.1048 -0.0303
  743POPS   C2B10396   2.775   8.544   6.973  0.0115  0.1483 -0.0110
  743POPS   C3B10397   2.459   8.581   7.259  0.1452  0.0624  0.1691
  743POPS   C4B10398   2.453   8.795   7.676 -0.0070  0.1215  0.1295
  744POPS   CNO10399  13.363   5.788   6.178 -0.0845 -0.0682  0.2204
  744POPS   PO410400  13.768   5.754   5.996  0.1556 -0.0388  0.1235
  744POPS   GL110401  13.841   5.817   6.400  0.0799 -0.2439 -0.1983
  744POPS   GL210402  13.618   5.663   6.614 -0.1305  0.1708 -0.0096
  744POPS   C1A10403  13.945   6.074   6.734 -0.0029  0.0029  0.0314
  744POPS   D2A10404  13.785   6.219   7.231 -0.0224 -0.0984  0.2157
  744POPS   C3A10405  14.074   6.168   7.455 -0.2077 -0.2673  0.1400
  744POPS   C4A10406  14.289   6.255   7.774  0.3246 -0.2168  0.1905
  744POPS   C1B10407  13.574   5.733   7.077 -0.1399 -0.0255 -0.0082
  744POPS   C2B10408  13.648   5.867   7.548 -0.3148  0.1876  0.1629
  744POPS   C3B10409  13.691   6.019   7.928  0.0765  0.0914  0.0661
  744POPS   C4B10410  13.607   6.112   8.366  0.1009  0.0901  0.1226
  745POPS   CNO10411   3.371   1.767   5.596  0.2661 -0.1726 -0.2287
  745POPS   PO410412   3.455   1.621   6.017  0.2965 -0.1140 -0.2799
  745POPS   GL110413   3.367   1.256   6.276  0.1627  0.0539 -0.0006
  745POPS   GL210414   3.509   1.401   6.465  0.1029 -0.1394 -0.0117
  745POPS   C1A10415   3.080   0.811   6.434 -0.0625 -0.0687 -0.2252
  745POPS   D2A10416   2.715   0.784   6.492 -0.1108 -0.0406  0.0233
  745POPS   C3A10417   2.428   0.418   6.632  0.0778  0.1492 -0.0068
  745POPS   C4A10418   2.023   0.155   6.685 -0.0669 -0.0378 -0.2710
  745POPS   C1B10419   3.241   1.239   6.820 -0.0074  0.4809  0.0273
  745POPS   C2B10420   3.244   1.252   7.226  0.2410 -0.4007  0.0496
  745POPS   C3B10421   3.151   1.131   7.678 -0.1818 -0.2685  0.0990
  745POPS   C4B10422   3.250   0.836   7.920 -0.4785  0.0767  0.0586
  746POPS   CNO10423   9.662  16.179   6.485 -0.0944  0.2821  0.1666
  746POPS   PO410424   9.736  15.743   6.580  0.0982  0.1969  0.2124
  746POPS   GL110425   9.802  15.885   6.877 -0.1965 -0.1064 -0.0509
  746POPS   GL210426   9.656  16.051   7.001  0.3039 -0.1914  0.0900
  746POPS   C1A10427   9.922  15.713   7.272  0.1103 -0.1045  0.2572
  746POPS   D2A10428  10.027  15.836   7.590 -0.0170  0.0118  0.0807
  746POPS   C3A10429  10.042  15.585   7.966 -0.2871  0.1525 -0.0164
  746POPS   C4A10430  10.331  15.609   8.324  0.1831 -0.2101 -0.0599
  746POPS   C1B10431   9.998  16.211   7.268 -0.1981 -0.0108  0.1075
  746POPS   C2B10432  10.343  16.270   7.120 -0.0482 -0.2561  0.1582
  746POPS   C3B10433  10.727  16.147   7.126  0.0036  0.1819  0.2375
  746POPS   C4B10434  10.918  15.990   7.492  0.0866 -0.3094 -0.1364
  747POPS   CNO10435   6.253  15.982   6.566  0.1515  0.1279 -0.0460
  747POPS   PO410436   6.442  16.302   6.359  0.2002  0.1980 -0.1923
  747POPS   GL110437   6.193  16.582   6.614  0.0768  0.1204  0.0212
  747POPS   GL210438   6.503  16.734   6.771 -0.1286  0.2516 -0.1217
  747POPS   C1A10439   6.054  16.582   6.994  0.1755  0.1476 -0.0721
  747POPS   D2A10440   5.934  16.547   7.339  0.1883  0.1145 -0.4168
  747POPS   C3A10441   6.232  16.584   7.642  0.2407 -0.1772  0.1729
  747POPS   C4A10442   6.499  16.514   8.100 -0.1448  0.2888  0.1275
  747POPS   C1B10443   6.507  16.552   7.257  0.0463  0.1043 -0.2025
  747POPS   C2B10444   6.712  16.609   7.623 -0.1969 -0.3956  0.1365
  747POPS   C3B10445   6.838  16.922   7.963 -0.1639  0.2567  0.1935
  747POPS   C4B10446   7.022  17.103   8.334  0.4114  0.1439 -0.0339
  748POPS   CNO10447   4.443   2.471   6.069  0.2784  0.2977 -0.0723
  748POPS   PO410448   4.744   2.626   6.354  0.0005  0.0569 -0.0579
  748POPS   GL110449   4.641   2.442   6.798  0.3552  0.1524  0.1860
  748POPS   GL210450   4.466   2.191   6.708 -0.2112  0.0923  0.0083
  748POPS   C1A10451   4.785   2.389   7.197 -0.0107 -0.2949  0.0518
  748POPS   D2A10452   4.856   2.436   7.660  0.3024 -0.2414  0.0841
  748POPS   C3A10453   5.123   2.683   7.902 -0.1459  0.2186 -0.1328
  748POPS   C4A10454   5.289   3.009   8.183 -0.0401 -0.1560 -0.1737
  748POPS   C1B10455   4.270   2.285   7.113  0.2244 -0.0924  0.0764
  748POPS   C2B10456   4.356   2.271   7.510  0.1735  0.1024  0.0101
  748POPS   C3B10457   4.293   2.449   7.918 -0.0835  0.2123 -0.3813
  748POPS   C4B10458   4.617   2.503   8.185  0.0644  0.0626  0.0714
  749POPS   CNO10459   4.704  11.218   6.017 -0.0609  0.1541  0.0541
  749POPS   PO410460   4.301  10.976   6.056  0.0893  0.0593  0.2477
  749POPS   GL110461   4.153  11.046   6.441 -0.1556 -0.0365 -0.2302
  749POPS   GL210462   4.043  11.400   6.356  0.2894  0.1522  0.1498
  749POPS   C1A10463   3.913  10.770   6.674  0.1601  0.1861 -0.2746
  749POPS   D2A10464   3.908  10.477   7.032 -0.0670  0.1700  0.1209
  749POPS   C3A10465   4.216  10.316   7.330 -0.0596  0.1168 -0.0459
  749POPS   C4A10466   4.219   9.886   7.505 -0.0157  0.0715  0.2074
  749POPS   C1B10467   4.119  11.669   6.771  0.3374 -0.1484  0.1577
  749POPS   C2B10468   4.026  11.680   7.166  0.0794  0.0855 -0.0879
  749POPS   C3B10469   3.962  11.812   7.503  0.1382 -0.0160 -0.1445
  749POPS   C4B10470   3.995  12.162   7.905  0.0164  0.0542 -0.0001
  750POPS   CNO10471   5.120   3.426   6.289 -0.3443  0.2220 -0.0241
  750POPS   PO410472   4.785   3.293   6.363  0.1557 -0.4794 -0.4072
  750POPS   GL110473   4.825   3.441   6.673  0.1511  0.0672  0.0343
  750POPS   GL210474   4.811   3.426   7.023 -0.1778  0.0806 -0.2973
  750POPS   C1A10475   4.683   3.810   6.857 -0.0339  0.2945 -0.2500
  750POPS   D2A10476   4.641   3.818   7.247 -0.1288  0.2119 -0.0485
  750POPS   C3A10477   4.619   3.491   7.505  0.3719 -0.0037 -0.0357
  750POPS   C4A10478   4.616   3.412   7.880 -0.3463  0.0188  0.2974
  750POPS   C1B10479   5.258   3.388   7.225 -0.1638  0.2365 -0.0592
  750POPS   C2B10480   5.586   3.388   7.547  0.0168  0.0807 -0.1073
  750POPS   C3B10481   5.605   3.398   7.928 -0.1100  0.0613 -0.3210
  750POPS   C4B10482   5.842   3.539   8.205 -0.2246 -0.0234  0.0933
  751POPS   CNO10483  12.932   9.872   6.471 -0.3654 -0.0326 -0.0748
  751POPS   PO410484  12.610  10.071   6.300  0.0034  0.0811  0.3010
  751POPS   GL110485  12.549  10.336   6.583  0.3243 -0.0817 -0.2224
  751POPS   GL210486  12.684  10.611   6.576 -0.0290 -0.0011 -0.3095
  751POPS   C1A10487  12.466  10.425   6.979 -0.1445 -0.0076  0.0159
  751POPS   D2A10488  12.493  10.481   7.456 -0.0314 -0.1533 -0.1558
  751POPS   C3A10489  12.224  10.220   7.751  0.2745  0.1066  0.0763
  751POPS   C4A10490  11.972  10.335   8.115  0.0668 -0.0357  0.0758
  751POPS   C1B10491  12.899  10.888   6.822 -0.0235 -0.0957  0.1774
  751POPS   C2B10492  13.031  10.832   7.186  0.0812  0.0225  0.2911
  751POPS   C3B10493  13.206  11.029   7.549  0.2216  0.0345  0.2128
  751POPS   C4B10494  13.300  10.847   7.971  0.0186  0.1818 -0.0787
  752POPS   CNO10495  15.803  14.025   5.950  0.1177 -0.4234  0.0572
  752POPS   PO410496  16.128  13.777   5.946  0.1043 -0.2515  0.1822
  752POPS   GL110497  15.876  13.710   6.313 -0.0502  0.1476 -0.1330
  752POPS   GL210498  15.674  14.018   6.440 -0.0293  0.0035 -0.0065
  752POPS   C1A10499  15.714  13.445   6.556 -0.0400 -0.1502 -0.1219
  752POPS   D2A10500  15.458  13.431   6.975  0.1157  0.0999 -0.0410
  752POPS   C3A10501  15.479  13.710   7.244 -0.0409  0.1936 -0.2290
  752POPS   C4A10502  15.434  13.901   7.777  0.1110 -0.0051  0.0090
  752POPS   C1B10503  15.877  13.899   6.795 -0.1287  0.0347  0.2637
  752POPS   C2B10504  15.861  13.979   7.268  0.2019 -0.1433 -0.1342
  752POPS   C3B10505  15.868  14.142   7.665  0.1096  0.0082  0.2628
  752POPS   C4B10506  15.999  14.195   7.945 -0.2027 -0.4590 -0.0728
  753POPS   CNO10507  14.902   1.985   6.396 -0.1052  0.0437 -0.0966
  753POPS   PO410508  15.258   2.108   6.168 -0.0249 -0.0908  0.0196
  753POPS   GL110509  15.546   2.438   6.396  0.0291 -0.0154 -0.1404
  753POPS   GL210510  15.844   2.633   6.428 -0.2019 -0.0982  0.0754
  753POPS   C1A10511  15.232   2.425   6.714 -0.0473  0.0460  0.1335
  753POPS   D2A10512  14.781   2.403   6.915 -0.2076  0.2402 -0.2824
  753POPS   C3A10513  14.852   2.514   7.335 -0.1448 -0.1543 -0.0031
  753POPS   C4A10514  15.164   2.860   7.518  0.1511 -0.1278 -0.2703
  753POPS   C1B10515  15.829   2.596   6.813  0.2466  0.0752  0.2880
  753POPS   C2B10516  16.015   2.399   7.177 -0.2032 -0.1490  0.4289
  753POPS   C3B10517  16.108   2.229   7.479 -0.0326 -0.0171 -0.3391
  753POPS   C4B10518  16.333   2.309   7.791  0.1107 -0.1666  0.0720
  754POPS   CNO10519  15.705  14.289   5.405 -0.1522  0.2745 -0.2698
  754POPS   PO410520  15.809  14.528   5.774  0.0940  0.1617 -0.1827
  754POPS   GL110521  15.877  14.513   6.210  0.0861 -0.0162 -0.0769
  754POPS   GL210522  15.886  14.871   6.398 -0.1277  0.1887 -0.0771
  754POPS   C1A10523  15.999  14.399   6.639 -0.0789  0.0198 -0.0095
  754POPS   D2A10524  16.337  14.345   6.858 -0.4237  0.4503 -0.0096
  754POPS   C3A10525  16.305  14.002   7.048  0.0006 -0.1308 -0.0777
  754POPS   C4A10526  16.310  13.743   7.406  0.2718 -0.1544 -0.1206
  754POPS   C1B10527  16.007  15.175   6.720 -0.2060 -0.0657  0.1307
  754POPS   C2B10528  16.176  15.322   7.100 -0.1066  0.1218  0.0697
  754POPS   C3B10529  16.317  15.654   7.456 -0.1342 -0.0517  0.0515
  754POPS   C4B10530  16.417  15.674   7.925 -0.1557  0.1693  0.1711
  755POPS   CNO10531  15.954  11.791   5.793  0.1824 -0.0450 -0.3352
  755POPS   PO410532  16.074  12.185   5.921  0.2270 -0.1784 -0.0994
  755POPS   GL110533  16.099  12.054   6.274  0.1288 -0.1784  0.0230
  755POPS   GL210534  15.764  12.124   6.308 -0.3252  0.0079 -0.2881
  755POPS   C1A10535  16.034  11.997   6.709  0.2879  0.1801  0.0171
  755POPS   D2A10536  16.144  11.988   7.184  0.1883 -0.0138  0.1502
  755POPS   C3A10537  16.022  12.176   7.597 -0.0543  0.0136 -0.2499
  755POPS   C4A10538  16.382  12.379   7.834 -0.2304 -0.2000  0.2998
  755POPS   C1B10539  15.559  11.830   6.612 -0.0045 -0.2756 -0.3123
  755POPS   C2B10540  15.161  11.730   6.829  0.2868 -0.1024  0.0195
  755POPS   C3B10541  14.990  11.590   7.249 -0.0647  0.0268  0.0984
  755POPS   C4B10542  14.782  11.296   7.397  0.3838  0.4689  0.1827
  756POPS   CNO10543   3.264   9.470   5.652  0.0357 -0.0384 -0.1472
  756POPS   PO410544   3.611   9.791   5.616  0.1346 -0.3660  0.1360
  756POPS   GL110545   3.470   9.846   5.921  0.0724  0.0882 -0.1323
  756POPS   GL210546   3.182   9.826   6.017 -0.2217  0.1344 -0.1722
  756POPS   C1A10547   3.576   9.867   6.394  0.1298 -0.5561 -0.2585
  756POPS   D2A10548   3.535  10.025   6.818 -0.1058  0.1901 -0.0366
  756POPS   C3A10549   3.435  10.280   7.159 -0.0948 -0.0248  0.1697
  756POPS   C4A10550   3.631  10.324   7.509  0.1815 -0.0434  0.1673
  756POPS   C1B10551   3.055   9.957   6.426  0.1411  0.2116  0.4766
  756POPS   C2B10552   3.047  10.015   6.883 -0.1710 -0.4864 -0.0020
  756POPS   C3B10553   3.083   9.947   7.370 -0.3493 -0.1437  0.0624
  756POPS   C4B10554   3.336   9.880   7.714 -0.2352  0.0130 -0.0314
  757POPS   CNO10555  10.815   1.356   6.322 -0.1197  0.0975 -0.1670
  757POPS   PO410556  10.767   0.950   6.436 -0.2549 -0.0225  0.2680
  757POPS   GL110557  10.802   0.982   6.816  0.0881 -0.0087  0.3734
  757POPS   GL210558  10.632   1.263   6.794  0.2679  0.1115 -0.0659
  757POPS   C1A10559  10.817   0.780   7.265  0.0703  0.0222  0.2036
  757POPS   D2A10560  10.701   0.597   7.696  0.2425 -0.0594 -0.4220
  757POPS   C3A10561  10.636   0.758   8.059  0.0999 -0.0028 -0.2526
  757POPS   C4A10562  10.662   0.992   8.417  0.0245  0.2474  0.2060
  757POPS   C1B10563  10.513   1.143   7.204  0.2086 -0.0439  0.0705
  757POPS   C2B10564  10.456   1.072   7.641  0.0877 -0.0364 -0.2695
  757POPS   C3B10565  10.136   1.222   7.933 -0.2414  0.1068 -0.1229
  757POPS   C4B10566  10.073   1.188   8.341  0.0730  0.0393  0.0308
  758POPS   CNO10567  12.608  14.177   6.257 -0.2023  0.0254  0.1824
  758POPS   PO410568  12.139  13.951   6.216 -0.0357  0.1762 -0.5185
  758POPS   GL110569  12.148  14.046   6.665  0.3702  0.0470  0.4056
  758POPS   GL210570  12.487  14.055   6.707 -0.1431 -0.0842  0.1239
  758POPS   C1A10571  12.185  13.863   7.060  0.1694 -0.3178 -0.0351
  758POPS   D2A10572  12.220  14.050   7.434  0.1298  0.0243 -0.1991
  758POPS   C3A10573  12.029  13.956   7.791  0.0894 -0.0112  0.1563
  758POPS   C4A10574  12.163  14.084   8.176 -0.1535  0.0035  0.0548
  758POPS   C1B10575  12.645  14.241   7.089 -0.4112  0.0793 -0.0051
  758POPS   C2B10576  12.704  14.433   7.516  0.1010  0.3246  0.0324
  758POPS   C3B10577  12.705  14.403   7.954  0.1756  0.2102  0.0175
  758POPS   C4B10578  12.649  14.287   8.404 -0.2383  0.0141  0.0079
  759POPS   CNO10579   7.980   1.504   5.996  0.1621  0.1935 -0.1050
  759POPS   PO410580   7.923   1.475   6.491 -0.1780  0.4211  0.1544
  759POPS   GL110581   7.893   1.452   6.953  0.2907  0.0016  0.3025
  759POPS   GL210582   7.661   1.676   6.968 -0.1371  0.1928 -0.1740
  759POPS   C1A10583   8.133   1.545   7.369 -0.2880  0.0663  0.1426
  759POPS   D2A10584   8.045   1.436   7.715 -0.2589  0.1548 -0.0388
  759POPS   C3A10585   7.730   1.215   7.827  0.2020 -0.1431 -0.4190
  759POPS   C4A10586   7.761   1.103   8.162  0.0458 -0.3224 -0.3533
  759POPS   C1B10587   7.892   1.955   7.299 -0.2045  0.0326  0.3441
  759POPS   C2B10588   8.140   2.307   7.526  0.0408 -0.6905  0.1135
  759POPS   C3B10589   8.057   2.631   7.791  0.0928  0.2019 -0.3123
  759POPS   C4B10590   8.134   2.861   8.207  0.4376 -0.1911 -0.1176
  760POPS   CNO10591   4.734   9.521   5.445  0.0170 -0.1708  0.4932
  760POPS   PO410592   4.985   9.555   5.765  0.3164 -0.0261  0.2102
  760POPS   GL110593   4.779   9.583   6.152 -0.0313 -0.0756  0.1017
  760POPS   GL210594   4.753   9.739   6.466  0.1223  0.4007  0.0833
  760POPS   C1A10595   4.302   9.602   6.228 -0.0478 -0.0729  0.0549
  760POPS   D2A10596   4.048   9.837   6.531 -0.0508 -0.0881 -0.1990
  760POPS   C3A10597   4.007   9.956   7.002  0.0827 -0.2494 -0.0425
  760POPS   C4A10598   3.691   9.805   7.243  0.0651 -0.1346  0.1813
  760POPS   C1B10599   5.022   9.786   6.810  0.0763  0.1987  0.2519
  760POPS   C2B10600   5.106   9.735   7.303 -0.0708  0.1769 -0.0406
  760POPS   C3B10601   5.178   9.569   7.819 -0.1451  0.0169  0.1279
  760POPS   C4B10602   5.132   9.384   8.218 -0.1155 -0.0016 -0.2667
  761POPS   CNO10603   8.751  17.179   6.481  0.0032 -0.0375 -0.3282
  761POPS   PO410604   8.993  17.465   6.487  0.1555  0.2137  0.0071
  761POPS   GL110605   8.818  17.606   6.820  0.0286  0.2012 -0.1194
  761POPS   GL210606   8.482  17.871   6.859 -0.0825 -0.3731  0.0762
  761POPS   C1A10607   8.796  17.632   7.252 -0.1599  0.1064 -0.0019
  761POPS   D2A10608   8.729  17.602   7.673  0.0780  0.1871 -0.0990
  761POPS   C3A10609   8.601  17.318   7.920  0.0547  0.1393 -0.1578
  761POPS   C4A10610   8.545  16.961   8.207 -0.1640 -0.0332 -0.0855
  761POPS   C1B10611   8.394  17.958   7.375  0.0457 -0.3371  0.1596
  761POPS   C2B10612   8.343  18.330   7.688  0.2413  0.1629 -0.1483
  761POPS   C3B10613   8.399  18.317   8.116  0.1576  0.0062 -0.2620
  761POPS   C4B10614   8.241  18.375   8.548 -0.0179  0.2648  0.0102
  762POPS   CNO10615   0.053  14.765   5.994 -0.1288  0.1637  0.1749
  762POPS   PO410616  -0.278  14.381   5.927 -0.0510 -0.2275 -0.0613
  762POPS   GL110617  -0.052  14.163   6.213  0.0910 -0.0473  0.0566
  762POPS   GL210618   0.183  14.340   6.240  0.4139  0.1368  0.1201
  762POPS   C1A10619  -0.176  13.793   6.344 -0.0228  0.1574 -0.1731
  762POPS   D2A10620   0.022  13.574   6.689  0.1099 -0.0471  0.4356
  762POPS   C3A10621  -0.000  13.526   7.036 -0.1676  0.1088 -0.2129
  762POPS   C4A10622  -0.098  13.506   7.472  0.2235 -0.1675  0.2252
  762POPS   C1B10623   0.038  14.425   6.709 -0.0392 -0.0853  0.0148
  762POPS   C2B10624  -0.145  14.573   7.184 -0.0953  0.1593  0.0748
  762POPS   C3B10625  -0.215  14.886   7.490  0.2505  0.2888 -0.0726
  762POPS   C4B10626  -0.522  15.215   7.566 -0.1457 -0.1096 -0.1572
  763POPS   CNO10627  17.714   8.503   5.334  0.0739 -0.1677  0.0448
  763POPS   PO410628  17.904   8.878   5.495 -0.1801 -0.0408 -0.0510
  763POPS   GL110629  17.836   8.743   5.894 -0.1020 -0.1442  0.2679
  763POPS   GL210630  17.546   8.481   5.878 -0.1193 -0.0873  0.0731
  763POPS   C1A10631  17.809   8.776   6.381 -0.2380 -0.0361  0.1143
  763POPS   D2A10632  17.772   9.030   6.760  0.1644  0.0951 -0.1070
  763POPS   C3A10633  17.641   9.379   7.120  0.1646 -0.2947  0.3200
  763POPS   C4A10634  17.677   9.730   7.255 -0.3283 -0.0340  0.0135
  763POPS   C1B10635  17.493   8.431   6.303  0.1294 -0.0046  0.2466
  763POPS   C2B10636  17.632   8.516   6.702  0.1342 -0.1040 -0.3501
  763POPS   C3B10637  17.990   8.620   7.008 -0.4174 -0.0661 -0.1302
  763POPS   C4B10638  18.324   8.775   7.248 -0.0964  0.1151 -0.2635
  764POPS   CNO10639   7.892   8.290   5.743  0.2113  0.0187  0.0033
  764POPS   PO410640   7.796   8.065   6.097  0.2428  0.1334 -0.3234
  764POPS   GL110641   7.728   8.233   6.516  0.1867  0.0760  0.1278
  764POPS   GL210642   7.485   8.182   6.697  0.2600 -0.0008  0.3416
  764POPS   C1A10643   7.921   8.496   6.878  0.0232  0.1761 -0.1695
  764POPS   D2A10644   7.903   8.892   7.067 -0.2805  0.0775 -0.0784
  764POPS   C3A10645   7.765   8.976   7.611 -0.0885 -0.0769  0.2511
  764POPS   C4A10646   7.779   8.934   8.061  0.0241 -0.0750  0.1668
  764POPS   C1B10647   7.523   8.302   7.082 -0.0402  0.2371 -0.0027
  764POPS   C2B10648   7.807   8.410   7.357 -0.2358 -0.3520  0.0116
  764POPS   C3B10649   7.943   8.526   7.728  0.3865 -0.0305  0.1847
  764POPS   C4B10650   8.049   8.411   8.170 -0.0767 -0.1335 -0.2673
  765POPS   CNO10651  15.957   3.636   5.450  0.0796  0.0893 -0.1003
  765POPS   PO410652  15.658   3.470   5.681 -0.1114 -0.0097  0.1560
  765POPS   GL110653  16.027   3.542   6.027  0.2680  0.0557 -0.1100
  765POPS   GL210654  15.811   3.810   6.131 -0.2302 -0.0170  0.1625
  765POPS   C1A10655  16.173   3.420   6.342 -0.2025 -0.0727  0.0984
  765POPS   D2A10656  16.037   3.657   6.696 -0.0447  0.0816 -0.0269
  765POPS   C3A10657  15.989   3.478   7.079 -0.1294  0.0432 -0.0706
  765POPS   C4A10658  16.090   3.350   7.420 -0.0555 -0.1549 -0.1869
  765POPS   C1B10659  15.775   3.993   6.480  0.1316  0.0670  0.0024
  765POPS   C2B10660  15.946   4.289   6.765  0.0453 -0.0927  0.2692
  765POPS   C3B10661  15.851   4.391   7.192  0.0584 -0.0530 -0.0699
  765POPS   C4B10662  15.961   4.755   7.412  0.1560  0.0199 -0.1477
  766POPS   CNO10663  16.740  11.761   5.356 -0.1449 -0.3183 -0.2238
  766POPS   PO410664  16.895  11.974   5.577  0.0318 -0.1633  0.0510
  766POPS   GL110665  17.018  12.059   5.969  0.2544  0.2245 -0.0056
  766POPS   GL210666  16.682  12.233   6.121 -0.1604  0.0274 -0.0173
  766POPS   C1A10667  17.095  12.392   6.377  0.0618 -0.1304 -0.1757
  766POPS   D2A10668  16.977  12.793   6.524 -0.2369 -0.1333 -0.1597
  766POPS   C3A10669  17.094  12.921   6.949 -0.0540 -0.2510 -0.1944
  766POPS   C4A10670  17.246  13.025   7.330 -0.0989 -0.0227 -0.0482
  766POPS   C1B10671  16.537  12.398   6.583 -0.0230  0.0729  0.0128
  766POPS   C2B10672  16.230  12.416   6.885 -0.0718  0.0710  0.2474
  766POPS   C3B10673  16.043  12.700   7.095  0.2275  0.1075  0.1241
  766POPS   C4B10674  16.092  12.813   7.556 -0.2282  0.0106  0.1751
  767POPS   CNO10675   4.697   0.443   5.685 -0.0723 -0.0647 -0.0152
  767POPS   PO410676   5.065   0.574   5.926 -0.3342  0.1253  0.1395
  767POPS   GL110677   4.813   0.582   6.294  0.1851 -0.1673  0.0103
  767POPS   GL210678   4.487   0.509   6.141  0.2692  0.1876  0.1189
  767POPS   C1A10679   4.792   0.377   6.702  0.0404 -0.2314  0.0127
  767POPS   D2A10680   4.850   0.449   7.130 -0.1600  0.1802  0.3031
  767POPS   C3A10681   4.667   0.232   7.503  0.0809  0.0841 -0.1134
  767POPS   C4A10682   4.679   0.066   7.870 -0.1897  0.0405 -0.1588
  767POPS   C1B10683   4.318   0.493   6.514  0.0233  0.1065 -0.1817
  767POPS   C2B10684   4.352   0.462   6.988  0.0012  0.0539 -0.1868
  767POPS   C3B10685   4.283   0.722   7.335  0.0456 -0.0293  0.0879
  767POPS   C4B10686   4.213   0.749   7.677  0.1099  0.0178 -0.3064
  768POPS   CNO10687  12.753   8.334   6.203  0.2598 -0.0789 -0.2751
  768POPS   PO410688  12.766   8.705   6.540  0.3261 -0.1114  0.2569
  768POPS   GL110689  12.893   8.983   6.907  0.0069  0.0548 -0.0258
  768POPS   GL210690  13.147   9.005   6.937  0.1197 -0.3220  0.0703
  768POPS   C1A10691  12.981   9.132   7.384 -0.2101 -0.1828 -0.3346
  768POPS   D2A10692  13.180   9.067   7.683  0.2029 -0.3098 -0.2179
  768POPS   C3A10693  13.170   9.252   8.084  0.0600  0.3560  0.0025
  768POPS   C4A10694  13.348   9.353   8.376  0.1103  0.0323  0.1947
  768POPS   C1B10695  13.313   8.788   7.303 -0.0096 -0.0922  0.1506
  768POPS   C2B10696  13.446   8.614   7.668  0.0701  0.1702  0.0617
  768POPS   C3B10697  13.458   8.454   8.059  0.0327 -0.1566 -0.1036
  768POPS   C4B10698  13.545   8.529   8.592 -0.1347  0.4102 -0.0624
  769POPS   CNO10699   9.340  12.031   6.029 -0.1218 -0.3627  0.0872
  769POPS   PO410700   9.205  11.600   6.199  0.2629 -0.1930  0.2195
  769POPS   GL110701   9.144  11.516   6.628 -0.3003  0.0160 -0.2647
  769POPS   GL210702   9.430  11.650   6.675  0.0147 -0.0864  0.2781
  769POPS   C1A10703   9.098  11.558   7.155 -0.2086 -0.3721  0.2496
  769POPS   D2A10704   9.241  11.447   7.498  0.1697  0.2003 -0.1879
  769POPS   C3A10705   9.076  11.407   7.829 -0.3746 -0.1726  0.0991
  769POPS   C4A10706   8.921  11.175   8.135  0.1286  0.0932 -0.0896
  769POPS   C1B10707   9.637  11.667   7.107 -0.0326 -0.2108  0.0427
  769POPS   C2B10708   9.971  11.424   7.387 -0.1338 -0.0555  0.1221
  769POPS   C3B10709  10.179  11.024   7.473  0.1765  0.4094  0.2289
  769POPS   C4B10710  10.065  10.789   7.800  0.4240  0.0451  0.0944
  770POPS   CNO10711  16.667   6.622   5.574 -0.1498 -0.1067 -0.0703
  770POPS   PO410712  16.695   6.223   5.677  0.0827  0.0949  0.0393
  770POPS   GL110713  16.524   6.107   6.075 -0.1759  0.1459 -0.1345
  770POPS   GL210714  16.711   6.343   6.337 -0.2709 -0.0482  0.1028
  770POPS   C1A10715  16.183   6.039   6.433 -0.0175  0.2228  0.2442
  770POPS   D2A10716  16.185   5.835   6.860 -0.2130 -0.1207 -0.4246
  770POPS   C3A10717  16.385   5.618   7.137 -0.2669 -0.0421 -0.2041
  770POPS   C4A10718  16.533   5.384   7.430 -0.1189  0.1721  0.0265
  770POPS   C1B10719  16.855   6.404   6.750  0.1081 -0.0088  0.0075
  770POPS   C2B10720  16.837   6.450   7.270 -0.2604 -0.0665  0.0767
  770POPS   C3B10721  16.837   6.275   7.690  0.2182 -0.0400  0.4649
  770POPS   C4B10722  16.499   6.279   8.007 -0.0899  0.0069 -0.0812
  771POPS   CNO10723  13.003   1.181   5.653  0.2158 -0.1058  0.0825
  771POPS   PO410724  13.148   1.383   6.000  0.0162 -0.0825  0.3888
  771POPS   GL110725  13.159   1.274   6.383 -0.1345  0.0369  0.2464
  771POPS   GL210726  13.256   1.477   6.655 -0.0608  0.1700 -0.3045
  771POPS   C1A10727  13.274   0.931   6.616  0.1029 -0.1102  0.0390
  771POPS   D2A10728  13.107   0.733   7.020 -0.0775 -0.2322  0.0875
  771POPS   C3A10729  13.239   0.803   7.453  0.3004  0.1257 -0.0774
  771POPS   C4A10730  13.155   0.857   7.873  0.0208 -0.1219 -0.2493
  771POPS   C1B10731  13.182   1.295   7.062 -0.1818  0.0062 -0.0904
  771POPS   C2B10732  12.992   1.231   7.506  0.3324 -0.3768 -0.2353
  771POPS   C3B10733  13.349   1.387   7.802 -0.0565  0.1576 -0.0270
  771POPS   C4B10734  13.589   1.630   7.892  0.1174 -0.2112 -0.0180
  772POPS   CNO10735  12.248   0.583   6.142  0.4504 -0.1633  0.0738
  772POPS   PO410736  12.365   0.289   6.518 -0.1485 -0.2500 -0.3053
  772POPS   GL110737  12.311   0.434   6.954  0.0077 -0.2458 -0.1947
  772POPS   GL210738  12.575   0.443   7.038 -0.2572 -0.0368  0.2888
  772POPS   C1A10739  12.065   0.193   7.308 -0.2486 -0.1936 -0.1335
  772POPS   D2A10740  12.166  -0.130   7.555  0.0089  0.3037 -0.0794
  772POPS   C3A10741  12.267  -0.244   8.022 -0.2786  0.1596  0.3094
  772POPS   C4A10742  12.078  -0.237   8.523 -0.0691  0.0671  0.3713
  772POPS   C1B10743  12.479   0.486   7.449 -0.2629 -0.1832  0.0045
  772POPS   C2B10744  12.605   0.487   7.778  0.1166  0.0559  0.3806
  772POPS   C3B10745  12.642   0.257   8.145 -0.0186 -0.0869  0.1667
  772POPS   C4B10746  12.573  -0.036   8.424  0.0482  0.2529  0.2292
  773POPS   CNO10747  15.203  13.372   5.735 -0.0318  0.1416  0.1243
  773POPS   PO410748  15.030  12.903   5.842 -0.0063 -0.2901 -0.2219
  773POPS   GL110749  15.273  12.871   6.127  0.1490 -0.0452 -0.1315
  773POPS   GL210750  15.431  13.156   6.247 -0.2694 -0.0830 -0.1848
  773POPS   C1A10751  15.323  12.720   6.552  0.0433  0.4360  0.1067
  773POPS   D2A10752  15.392  12.648   6.964  0.1583  0.1892 -0.0566
  773POPS   C3A10753  15.123  12.593   7.357  0.2414  0.5267 -0.3083
  773POPS   C4A10754  14.783  12.500   7.622 -0.1370  0.0036 -0.0623
  773POPS   C1B10755  15.200  13.160   6.634  0.0712  0.1523  0.1687
  773POPS   C2B10756  15.136  13.039   7.148 -0.0748 -0.1950 -0.3076
  773POPS   C3B10757  14.944  13.039   7.476 -0.0538  0.2187 -0.2866
  773POPS   C4B10758  15.008  12.925   7.936 -0.0365 -0.2793  0.2226
  774POPS   CNO10759   3.381  16.632   5.733 -0.3820 -0.2998  0.0759
  774POPS   PO410760   2.986  16.448   5.661  0.0338 -0.2587  0.2889
  774POPS   GL110761   2.761  16.529   5.924 -0.0587 -0.0012 -0.4353
  774POPS   GL210762   2.462  16.727   5.794 -0.0231 -0.2343 -0.2536
  774POPS   C1A10763   2.819  16.512   6.399 -0.1978 -0.3415  0.3748
  774POPS   D2A10764   3.104  16.316   6.650  0.4998  0.2041  0.1562
  774POPS   C3A10765   2.920  16.330   7.067  0.1022 -0.1166  0.4008
  774POPS   C4A10766   2.977  16.673   7.303  0.0323  0.0430  0.1929
  774POPS   C1B10767   2.393  16.784   6.228  0.2549 -0.0845  0.0421
  774POPS   C2B10768   2.350  17.128   6.566 -0.0012 -0.1131 -0.2876
  774POPS   C3B10769   2.399  17.122   6.980 -0.0736  0.0689  0.0813
  774POPS   C4B10770   2.552  16.977   7.404 -0.0895 -0.2485 -0.1074
  775POPS   CNO10771   6.387   7.774   5.613 -0.0681 -0.0021 -0.2023
  775POPS   PO410772   6.442   7.833   6.125  0.1692  0.0785 -0.4193
  775POPS   GL110773   6.427   7.882   6.563 -0.3349  0.1610  0.0349
  775POPS   GL210774   6.542   7.580   6.738 -0.0488  0.2207 -0.1084
  775POPS   C1A10775   6.623   8.094   6.939 -0.2731 -0.2392  0.3373
  775POPS   D2A10776   6.536   8.018   7.424 -0.3334 -0.2044  0.1782
  775POPS   C3A10777   6.425   8.054   7.822 -0.1229  0.0024 -0.0930
  775POPS   C4A10778   6.288   8.056   8.294 -0.0592 -0.1051  0.0921
  775POPS   C1B10779   6.726   7.611   7.178 -0.0353  0.0303  0.2454
  775POPS   C2B10780   6.810   7.652   7.610  0.0241  0.1028  0.0041
  775POPS   C3B10781   6.691   7.657   8.015 -0.5995  0.1190 -0.0269
  775POPS   C4B10782   6.719   7.438   8.420  0.0241 -0.0527  0.1520
  776POPS   CNO10783   9.888   1.608   5.732 -0.0228 -0.1448  0.0996
  776POPS   PO410784   9.724   1.709   6.118  0.1511 -0.1945  0.2087
  776POPS   GL110785   9.954   1.405   6.534  0.1420  0.0414 -0.2158
  776POPS   GL210786  10.241   1.555   6.652 -0.0659  0.0226  0.1443
  776POPS   C1A10787   9.727   1.414   6.869 -0.0224 -0.1200 -0.1700
  776POPS   D2A10788   9.800   1.713   7.144  0.1813 -0.1074  0.2565
  776POPS   C3A10789   9.764   1.697   7.559 -0.1213 -0.0647  0.2355
  776POPS   C4A10790   9.716   1.545   7.963  0.0184 -0.0035  0.3291
  776POPS   C1B10791  10.347   1.587   7.002 -0.2260 -0.0329 -0.1290
  776POPS   C2B10792  10.283   1.513   7.473  0.0628 -0.0213  0.2235
  776POPS   C3B10793  10.196   1.745   7.821 -0.0457 -0.0646 -0.1239
  776POPS   C4B10794  10.195   1.807   8.243  0.0778 -0.0825 -0.1766
  777POPS   CNO10795   0.522   2.814   5.541  0.5988 -0.2782 -0.0218
  777POPS   PO410796   0.284   3.134   5.617  0.1926  0.1368  0.1197
  777POPS   GL110797   0.633   3.224   5.936  0.4251 -0.1057 -0.2881
  777POPS   GL210798   0.599   3.001   6.072  0.0359  0.1624 -0.1181
  777POPS   C1A10799   1.086   3.332   5.983 -0.0597 -0.1665  0.2064
  777POPS   D2A10800   1.379   3.179   6.267 -0.0465 -0.2077 -0.3578
  777POPS   C3A10801   1.572   2.784   6.444  0.0403 -0.3089 -0.0873
  777POPS   C4A10802   1.457   2.341   6.634  0.1187  0.0281  0.1608
  777POPS   C1B10803   0.382   2.775   6.347 -0.0540  0.1514 -0.1013
  777POPS   C2B10804   0.393   2.419   6.555 -0.0301 -0.1388 -0.0937
  777POPS   C3B10805   0.313   2.350   6.968  0.1719  0.0678  0.2431
  777POPS   C4B10806   0.521   2.287   7.441  0.1725  0.2181  0.3766
  778POPS   CNO10807  15.732   6.462   5.651  0.0350 -0.3340  0.0289
  778POPS   PO410808  15.426   6.091   5.758 -0.1874 -0.4003 -0.0039
  778POPS   GL110809  15.390   5.883   6.085  0.0803 -0.1920  0.0982
  778POPS   GL210810  15.080   5.912   6.295 -0.2797  0.0187  0.2615
  778POPS   C1A10811  15.685   5.897   6.496  0.3561  0.1795  0.0603
  778POPS   D2A10812  15.705   5.689   6.877  0.2549  0.0641 -0.1650
  778POPS   C3A10813  15.713   5.729   7.304  0.1877  0.2281  0.0938
  778POPS   C4A10814  16.097   5.744   7.490  0.1019  0.1166  0.3258
  778POPS   C1B10815  15.249   5.635   6.529  0.0300 -0.1469 -0.1063
  778POPS   C2B10816  15.200   5.689   7.006 -0.1819 -0.0438 -0.0303
  778POPS   C3B10817  14.679   5.631   7.143 -0.0087 -0.1107 -0.2380
  778POPS   C4B10818  14.423   5.365   7.146  0.1445 -0.0464 -0.0814
  779POPS   CNO10819   5.849   6.562   6.073  0.0515  0.1123  0.2170
  779POPS   PO410820   6.199   6.444   6.172 -0.3029  0.3493  0.0408
  779POPS   GL110821   6.394   6.485   6.622 -0.1518  0.0271  0.0361
  779POPS   GL210822   6.529   6.196   6.810 -0.0499 -0.2873  0.1205
  779POPS   C1A10823   6.371   6.649   7.052 -0.0034 -0.0815  0.0185
  779POPS   D2A10824   6.344   6.717   7.478  0.1831 -0.0657 -0.1329
  779POPS   C3A10825   6.390   6.321   7.724 -0.0068  0.1133 -0.1462
  779POPS   C4A10826   6.243   5.989   7.917 -0.0094 -0.0589 -0.5516
  779POPS   C1B10827   6.629   6.255   7.293  0.1382  0.4106  0.0101
  779POPS   C2B10828   6.631   5.954   7.543  0.0530 -0.3046 -0.0133
  779POPS   C3B10829   6.823   5.777   7.862  0.2326 -0.1753 -0.3954
  779POPS   C4B10830   6.543   5.632   8.161 -0.1435  0.0653  0.0918
  780POPS   CNO10831  11.993   9.017   6.273  0.2724  0.0512 -0.2584
  780POPS   PO410832  11.787   8.579   6.291  0.2842 -0.0008 -0.1714
  780POPS   GL110833  11.958   8.438   6.678  0.2095 -0.0633  0.0117
  780POPS   GL210834  12.250   8.650   6.600  0.2130  0.0385 -0.0208
  780POPS   C1A10835  11.867   8.303   7.060 -0.2005 -0.0943 -0.2035
  780POPS   D2A10836  11.787   8.371   7.504  0.0113  0.3895 -0.0212
  780POPS   C3A10837  11.966   8.379   7.862 -0.0908 -0.0645 -0.1253
  780POPS   C4A10838  11.825   8.349   8.283 -0.1706  0.1589 -0.1128
  780POPS   C1B10839  12.327   8.563   7.067  0.0228 -0.2265 -0.1734
  780POPS   C2B10840  12.373   8.484   7.498  0.3660  0.1794 -0.0932
  780POPS   C3B10841  12.507   8.538   7.914 -0.0119  0.0281  0.0552
  780POPS   C4B10842  12.311   8.242   8.178  0.0059  0.0603  0.3630
  781POPS   CNO10843  10.831  17.070   5.827 -0.1596 -0.4117  0.1947
  781POPS   PO410844  10.773  17.257   6.242  0.0694  0.0824 -0.1194
  781POPS   GL110845  10.664  17.200   6.671  0.2385 -0.1262 -0.0193
  781POPS   GL210846  10.378  16.962   6.784  0.0578 -0.3034  0.2528
  781POPS   C1A10847  10.675  17.280   7.125  0.0637  0.0803 -0.0903
  781POPS   D2A10848  10.826  17.406   7.427 -0.0016 -0.0548 -0.0879
  781POPS   C3A10849  10.753  17.247   7.750  0.2912 -0.1044 -0.0958
  781POPS   C4A10850  10.804  17.092   8.116  0.0380 -0.3165  0.1945
  781POPS   C1B10851  10.173  16.796   7.130  0.0394 -0.3311  0.2566
  781POPS   C2B10852  10.302  17.033   7.517 -0.0499  0.2223  0.0640
  781POPS   C3B10853  10.324  17.012   7.993 -0.1470  0.1862  0.1696
  781POPS   C4B10854  10.076  16.906   8.291  0.0947  0.1747  0.4016
  782POPS   CNO10855   9.046   5.389   6.091  0.2112  0.0310 -0.2402
  782POPS   PO410856   9.337   5.064   6.127  0.2570 -0.2631 -0.3667
  782POPS   GL110857   9.140   5.157   6.562  0.0754  0.0952 -0.0905
  782POPS   GL210858   9.053   5.496   6.626 -0.1033  0.1356  0.2504
  782POPS   C1A10859   9.311   5.151   6.953  0.0888  0.0119  0.2198
  782POPS   D2A10860   9.291   5.291   7.412  0.1540  0.0870  0.0493
  782POPS   C3A10861   8.942   5.364   7.733  0.0642  0.0406  0.2066
  782POPS   C4A10862   8.814   5.701   8.048  0.0825  0.1365  0.3778
  782POPS   C1B10863   9.084   5.611   7.002  0.0143  0.0792 -0.1155
  782POPS   C2B10864   9.042   5.769   7.431  0.0418 -0.2921 -0.2624
  782POPS   C3B10865   8.999   6.035   7.722 -0.1646  0.0025 -0.0771
  782POPS   C4B10866   8.920   6.229   8.142 -0.1753  0.0823  0.0412
  783POPS   CNO10867   1.816  11.842   5.283 -0.0252  0.1175 -0.0007
  783POPS   PO410868   1.694  11.752   5.646  0.0769 -0.2843 -0.0849
  783POPS   GL110869   1.758  12.078   5.870 -0.0631  0.2354 -0.0221
  783POPS   GL210870   1.442  12.012   5.978 -0.4270  0.2282 -0.2264
  783POPS   C1A10871   1.658  12.387   6.175  0.1199  0.0752 -0.0576
  783POPS   D2A10872   1.641  12.427   6.608 -0.1705 -0.2907  0.3195
  783POPS   C3A10873   1.623  12.101   6.927  0.2596 -0.1747  0.0401
  783POPS   C4A10874   1.568  11.846   7.234  0.0812 -0.2898 -0.0658
  783POPS   C1B10875   1.332  12.031   6.445  0.0839 -0.0394 -0.0275
  783POPS   C2B10876   0.962  12.081   6.638  0.1511 -0.2491 -0.2880
  783POPS   C3B10877   0.709  11.970   6.936  0.0750 -0.1447 -0.0582
  783POPS   C4B10878   0.716  11.921   7.363 -0.1700 -0.0971 -0.0115
  784POPS   CNO10879  12.244   6.817   6.253  0.2876 -0.0735  0.3286
  784POPS   PO410880  11.982   6.824   6.629 -0.3750 -0.3346 -0.0986
  784POPS   GL110881  12.286   6.926   7.012 -0.2107  0.0630  0.2856
  784POPS   GL210882  12.372   6.642   7.231  0.1049 -0.0293  0.0966
  784POPS   C1A10883  12.723   7.095   7.111 -0.1948  0.1325  0.1171
  784POPS   D2A10884  13.142   7.214   7.134  0.1745 -0.1874  0.0805
  784POPS   C3A10885  13.174   7.590   7.453  0.3520  0.2581 -0.2090
  784POPS   C4A10886  12.873   7.743   7.833  0.0578  0.1854  0.2134
  784POPS   C1B10887  12.535   6.538   7.621  0.1870  0.2243 -0.2946
  784POPS   C2B10888  12.776   6.384   7.918 -0.2006  0.2478 -0.1452
  784POPS   C3B10889  12.893   6.409   8.342  0.1821  0.1163 -0.1150
  784POPS   C4B10890  12.750   6.690   8.519 -0.0466 -0.1804 -0.1299
  785POPS   CNO10891   1.264   8.990   5.108 -0.1736  0.2784  0.4012
  785POPS   PO410892   1.645   9.131   5.288 -0.1507 -0.0601 -0.0427
  785POPS   GL110893   1.702   9.124   5.774  0.0011  0.0871  0.3038
  785POPS   GL210894   1.813   9.387   6.090  0.0992  0.2209 -0.0109
  785POPS   C1A10895   1.479   8.900   6.125 -0.1004 -0.0946  0.1599
  785POPS   D2A10896   1.523   9.031   6.524 -0.2302  0.1912 -0.1986
  785POPS   C3A10897   1.278   8.952   6.937 -0.2889 -0.3389 -0.3992
  785POPS   C4A10898   1.055   8.841   7.244 -0.0755 -0.0468  0.2794
  785POPS   C1B10899   1.556   9.512   6.453 -0.1540  0.1245 -0.1386
  785POPS   C2B10900   1.377   9.517   6.873 -0.0840 -0.1828 -0.0609
  785POPS   C3B10901   1.291   9.445   7.199 -0.4083 -0.1449  0.0852
  785POPS   C4B10902   1.283   9.510   7.586 -0.0035 -0.1632 -0.1476
  786POPS   CNO10903  10.036   9.683   5.804 -0.2234  0.0291 -0.2659
  786POPS   PO410904   9.813   9.764   6.190 -0.1162  0.1043  0.3072
  786POPS   GL110905  10.041   9.647   6.532 -0.1358 -0.0697  0.1911
  786POPS   GL210906  10.114   9.349   6.674  0.1867  0.2429 -0.0598
  786POPS   C1A10907  10.355   9.690   6.883  0.0326  0.0954 -0.1732
  786POPS   D2A10908  10.370   9.921   7.281  0.1341 -0.0992  0.0800
  786POPS   C3A10909  10.805  10.169   7.339  0.2201 -0.2315 -0.0307
  786POPS   C4A10910  10.950  10.170   7.760  0.1930 -0.1885 -0.0325
  786POPS   C1B10911   9.950   9.518   7.147 -0.0231  0.2072 -0.0340
  786POPS   C2B10912   9.874   9.343   7.553 -0.2352  0.1634 -0.0214
  786POPS   C3B10913   9.715   9.061   7.938 -0.0297 -0.1380  0.1651
  786POPS   C4B10914   9.715   8.718   8.203 -0.0742  0.1384 -0.1987
  787POPS   CNO10915   0.539   9.048   5.344 -0.0846 -0.2599 -0.1534
  787POPS   PO410916   0.884   8.849   5.448  0.0274  0.5341 -0.3164
  787POPS   GL110917   1.013   8.880   5.870 -0.0894  0.2466 -0.0287
  787POPS   GL210918   0.979   8.617   6.057  0.1838 -0.3224 -0.1180
  787POPS   C1A10919   1.109   9.191   6.143 -0.1855 -0.1433  0.0853
  787POPS   D2A10920   1.117   9.263   6.579  0.0886 -0.0426  0.3172
  787POPS   C3A10921   0.832   9.267   6.948 -0.1926 -0.1303  0.0732
  787POPS   C4A10922   0.748   9.181   7.411  0.0690 -0.1503 -0.1775
  787POPS   C1B10923   0.990   8.782   6.445 -0.2941  0.1804 -0.2738
  787POPS   C2B10924   0.793   8.790   6.759  0.0118 -0.2006 -0.0654
  787POPS   C3B10925   0.478   8.954   6.760 -0.1216 -0.2263 -0.1356
  787POPS   C4B10926   0.335   9.210   7.024 -0.1022 -0.3094  0.3179
  788POPS   CNO10927   8.404  11.403   6.172  0.2459 -0.0457  0.0134
  788POPS   PO410928   8.720  11.696   6.376  0.1942  0.0061 -0.0299
  788POPS   GL110929   8.424  11.616   6.755 -0.0629 -0.0796  0.0984
  788POPS   GL210930   8.275  11.380   6.731 -0.1056 -0.0842 -0.0931
  788POPS   C1A10931   8.265  11.851   7.129 -0.2108  0.0279 -0.1982
  788POPS   D2A10932   8.230  11.670   7.510 -0.0871  0.3010  0.2059
  788POPS   C3A10933   8.254  11.985   7.872  0.0264  0.1291 -0.1943
  788POPS   C4A10934   8.057  12.101   8.217 -0.0817 -0.0740  0.0120
  788POPS   C1B10935   8.193  11.188   7.143  0.1202  0.0231  0.0050
  788POPS   C2B10936   8.129  11.209   7.559 -0.2551 -0.0025 -0.1278
  788POPS   C3B10937   8.101  11.008   7.948  0.1757 -0.1501  0.0090
  788POPS   C4B10938   8.043  10.704   8.138  0.2020 -0.0603 -0.1886
  789POPS   CNO10939   6.305  15.183   6.006 -0.0566  0.1089 -0.0301
  789POPS   PO410940   6.275  15.559   6.217 -0.1621 -0.0468  0.2240
  789POPS   GL110941   6.091  15.530   6.583 -0.0036  0.2170 -0.0519
  789POPS   GL210942   5.863  15.559   6.655  0.1137 -0.1495  0.0565
  789POPS   C1A10943   6.353  15.324   6.821  0.0859 -0.1307  0.1009
  789POPS   D2A10944   6.760  15.212   7.052  0.0706 -0.2891 -0.2047
  789POPS   C3A10945   6.845  15.459   7.379  0.1134  0.0558  0.0416
  789POPS   C4A10946   6.892  15.524   7.757  0.3349 -0.0338  0.0251
  789POPS   C1B10947   5.886  15.659   7.074 -0.0360  0.0958 -0.0608
  789POPS   C2B10948   5.863  15.425   7.429 -0.0306  0.0411 -0.0391
  789POPS   C3B10949   5.692  15.184   7.804 -0.4542 -0.1531  0.1133
  789POPS   C4B10950   5.833  15.357   8.104 -0.1753 -0.0646  0.1124
  790POPS   CNO10951  10.533   9.157   6.135 -0.2468 -0.1283  0.0171
  790POPS   PO410952  10.263   8.928   6.343 -0.0648 -0.2289 -0.0575
  790POPS   GL110953  10.161   8.778   6.717  0.1856 -0.3778  0.0072
  790POPS   GL210954  10.334   8.895   6.941 -0.2764 -0.1997  0.1921
  790POPS   C1A10955  10.013   8.430   6.950 -0.0617  0.2936 -0.0976
  790POPS   D2A10956   9.748   8.468   7.240  0.1411 -0.0362  0.1753
  790POPS   C3A10957   9.549   8.812   7.469 -0.1906  0.2669 -0.2108
  790POPS   C4A10958   9.475   9.204   7.265 -0.1817  0.0947 -0.1828
  790POPS   C1B10959  10.389   9.285   7.108 -0.0210 -0.0786  0.1109
  790POPS   C2B10960  10.332   9.486   7.519 -0.2955 -0.2926  0.2075
  790POPS   C3B10961  10.325   9.607   7.933 -0.1735 -0.1430  0.2212
  790POPS   C4B10962  10.120   9.349   8.257  0.4768 -0.2104 -0.0780
  791POPS   CNO10963   8.864  14.238   5.939  0.0219  0.1578 -0.0508
  791POPS   PO410964   8.656  13.910   6.207 -0.1863 -0.4090  0.0288
  791POPS   GL110965   8.760  14.022   6.691 -0.1333 -0.1256 -0.0793
  791POPS   GL210966   8.773  14.317   6.846 -0.0001 -0.1482  0.2178
  791POPS   C1A10967   8.411  14.035   7.083 -0.0620  0.0315 -0.3422
  791POPS   D2A10968   8.265  14.106   7.582 -0.1055 -0.2411  0.0249
  791POPS   C3A10969   8.333  13.875   7.916  0.0138  0.2009 -0.0242
  791POPS   C4A10970   8.045  13.686   8.220 -0.0818  0.1827 -0.2782
  791POPS   C1B10971   8.806  14.141   7.286  0.1576  0.0372  0.0503
  791POPS   C2B10972   8.939  13.885   7.720 -0.0112 -0.2057  0.2523
  791POPS   C3B10973   8.805  13.626   7.969 -0.0822 -0.0577 -0.0400
  791POPS   C4B10974   8.755  13.645   8.418  0.1243  0.0537  0.0607
  792POPS   CNO10975  15.132   6.825   5.933  0.3397 -0.1618  0.0650
  792POPS   PO410976  15.588   6.962   5.790  0.1641  0.4534 -0.0894
  792POPS   GL110977  15.552   6.943   6.223 -0.0432 -0.1694 -0.1865
  792POPS   GL210978  15.603   7.233   6.400  0.6115  0.0971 -0.0308
  792POPS   C1A10979  15.875   6.926   6.631  0.0746  0.0797  0.0047
  792POPS   D2A10980  16.225   7.073   6.810 -0.1038  0.2079 -0.0006
  792POPS   C3A10981  16.491   6.809   7.003 -0.1044 -0.1707  0.1168
  792POPS   C4A10982  16.900   6.907   6.927 -0.0396  0.0107  0.0633
  792POPS   C1B10983  15.610   7.298   6.819  0.0140  0.1736 -0.2162
  792POPS   C2B10984  15.598   7.477   7.224  0.2069 -0.1460 -0.0990
  792POPS   C3B10985  15.366   7.596   7.538 -0.3676  0.0202 -0.2867
  792POPS   C4B10986  15.451   7.484   8.019 -0.2613 -0.0704  0.2244
  793POPS   CNO10987  17.607  13.022   5.196  0.1171  0.3610 -0.4168
  793POPS   PO410988  17.538  13.086   5.645 -0.2699 -0.0911 -0.1713
  793POPS   GL110989  17.655  12.891   6.112  0.1069 -0.0145 -0.0903
  793POPS   GL210990  17.987  12.882   6.119 -0.1820  0.0432  0.3317
  793POPS   C1A10991  17.502  12.732   6.499 -0.0220  0.4278 -0.2345
  793POPS   D2A10992  17.372  12.529   6.832 -0.3183  0.0938  0.2525
  793POPS   C3A10993  17.509  12.221   7.016 -0.0182 -0.1003  0.1995
  793POPS   C4A10994  17.507  11.766   7.063 -0.2929 -0.4066 -0.1082
  793POPS   C1B10995  17.849  13.082   6.539 -0.0711 -0.2073  0.0418
  793POPS   C2B10996  17.668  13.046   6.955  0.0370 -0.1058  0.1253
  793POPS   C3B10997  17.739  12.621   7.187 -0.0876  0.0349 -0.3228
  793POPS   C4B10998  17.378  12.550   7.324  0.0990 -0.1257  0.0439
  794POPS   CNO10999   3.779   0.417   5.401  0.0006 -0.0166  0.0585
  794POPS   PO411000   3.672   0.264   5.811  0.1891 -0.0597 -0.1303
  794POPS   GL111001   3.534   0.297   6.238 -0.0717  0.2961 -0.1230
  794POPS   GL211002   3.313   0.081   6.309 -0.2317  0.2152 -0.2545
  794POPS   C1A11003   3.431   0.445   6.684 -0.0200  0.2812 -0.1578
  794POPS   D2A11004   3.442   0.321   7.082 -0.0212  0.2046  0.0760
  794POPS   C3A11005   3.052   0.262   7.204  0.1021  0.2055  0.0611
  794POPS   C4A11006   2.753   0.101   7.025 -0.2533 -0.0651 -0.0132
  794POPS   C1B11007   3.410  -0.054   6.801  0.0010  0.3770 -0.1123
  794POPS   C2B11008   3.328  -0.215   7.214  0.0442  0.0404  0.3613
  794POPS   C3B11009   3.167  -0.164   7.591 -0.0462 -0.0709 -0.2117
  794POPS   C4B11010   3.196  -0.160   8.035 -0.0352  0.0528 -0.0747
  795POPS   CNO11011  13.901  13.549   6.225 -0.0929  0.2136 -0.0549
  795POPS   PO411012  13.502  13.550   6.069 -0.0428  0.2618  0.0155
  795POPS   GL111013  13.458  13.584   6.542 -0.1845  0.2660 -0.0839
  795POPS   GL211014  13.698  13.453   6.749 -0.2548 -0.0719  0.0832
  795POPS   C1A11015  13.421  13.938   6.788 -0.2932 -0.0693 -0.0056
  795POPS   D2A11016  13.185  14.109   7.084  0.0297  0.0640  0.2196
  795POPS   C3A11017  13.264  14.110   7.569  0.0277 -0.0400 -0.1027
  795POPS   C4A11018  13.476  14.117   7.861  0.1099  0.1295 -0.1314
  795POPS   C1B11019  13.787  13.221   7.038  0.1565 -0.0472  0.0857
  795POPS   C2B11020  13.624  13.222   7.487 -0.1300 -0.0569 -0.0452
  795POPS   C3B11021  13.413  13.159   7.854  0.0969 -0.2184 -0.0348
  795POPS   C4B11022  13.685  13.094   8.174  0.0394 -0.0671 -0.0415
  796POPS   CNO11023   2.041  14.987   5.799 -0.2039  0.0211 -0.1399
  796POPS   PO411024   1.778  14.760   5.888 -0.1518 -0.0563  0.0678
  796POPS   GL111025   1.538  14.637   6.182 -0.1729  0.1404  0.0797
  796POPS   GL211026   1.234  14.817   6.215 -0.0307 -0.2509  0.2894
  796POPS   C1A11027   1.610  14.290   6.423 -0.2116  0.6120  0.2339
  796POPS   D2A11028   1.581  14.048   6.728 -0.0582 -0.1933 -0.0432
  796POPS   C3A11029   1.176  14.111   7.025  0.3212 -0.1854 -0.0044
  796POPS   C4A11030   0.857  14.425   7.004  0.1191  0.1557  0.0535
  796POPS   C1B11031   0.946  14.906   6.590 -0.1817  0.2368  0.0251
  796POPS   C2B11032   0.857  15.130   6.963 -0.0475 -0.2833  0.2366
  796POPS   C3B11033   0.932  15.401   7.365 -0.0474  0.0805  0.0729
  796POPS   C4B11034   0.572  15.424   7.701 -0.0022  0.0480 -0.2336
  797POPS   CNO11035   0.538   9.887   4.892 -0.0463  0.1392 -0.0502
  797POPS   PO411036   0.650   9.999   5.382  0.1426  0.1218  0.1258
  797POPS   GL111037   0.569   9.998   5.771 -0.1145  0.0239 -0.0582
  797POPS   GL211038   0.761   9.845   5.971  0.1865 -0.3984 -0.0338
  797POPS   C1A11039   0.217   9.832   5.908 -0.3668 -0.0531 -0.1712
  797POPS   D2A11040   0.113   9.753   6.325  0.0546 -0.0122  0.1088
  797POPS   C3A11041  -0.113   9.588   6.606 -0.0135  0.3928  0.0486
  797POPS   C4A11042  -0.425   9.250   6.701 -0.4854 -0.0983 -0.0154
  797POPS   C1B11043   0.582   9.510   6.146 -0.0307 -0.1017  0.1585
  797POPS   C2B11044   0.625   9.079   6.250 -0.1410  0.0093 -0.3424
  797POPS   C3B11045   0.538   8.673   6.230  0.1490 -0.1059  0.1479
  797POPS   C4B11046   0.198   8.354   6.177 -0.2225  0.0609 -0.1507
  798POPS   CNO11047  10.768  15.005   6.069 -0.5145  0.0436  0.2235
  798POPS   PO411048  11.081  15.216   6.307 -0.0652 -0.2965  0.1519
  798POPS   GL111049  11.014  15.416   6.668  0.0303  0.1472 -0.0069
  798POPS   GL211050  11.337  15.561   6.747  0.0361 -0.1027 -0.0249
  798POPS   C1A11051  11.067  15.123   7.053 -0.4145 -0.0520  0.0665
  798POPS   D2A11052  11.427  14.926   7.217 -0.1461 -0.2123 -0.3116
  798POPS   C3A11053  11.514  15.124   7.639 -0.0253 -0.0536 -0.1561
  798POPS   C4A11054  11.623  15.439   7.963  0.1826  0.2042  0.2977
  798POPS   C1B11055  11.610  15.405   7.098  0.0229 -0.1765  0.3984
  798POPS   C2B11056  11.730  15.640   7.492 -0.0624  0.0746 -0.1798
  798POPS   C3B11057  12.192  15.667   7.782  0.2667  0.0917  0.1288
  798POPS   C4B11058  12.386  15.927   8.198 -0.3658  0.0866 -0.1305
  799POPS   CNO11059   6.478  10.607   6.175  0.2251 -0.3210  0.1340
  799POPS   PO411060   6.865  10.854   6.314  0.0725  0.1286 -0.3229
  799POPS   GL111061   6.813  11.240   6.642 -0.0605  0.1359  0.1583
  799POPS   GL211062   6.647  11.499   6.616  0.4648 -0.1562  0.0210
  799POPS   C1A11063   6.802  11.308   7.069 -0.1469  0.0019 -0.0264
  799POPS   D2A11064   6.437  11.121   7.322  0.2141  0.0020  0.0462
  799POPS   C3A11065   6.493  10.850   7.643 -0.1556  0.0803 -0.0466
  799POPS   C4A11066   6.358  10.630   8.136 -0.0118  0.0734  0.0163
  799POPS   C1B11067   6.509  11.625   6.947  0.1267  0.0821  0.2102
  799POPS   C2B11068   6.396  11.644   7.394  0.2443 -0.1485 -0.3904
  799POPS   C3B11069   6.311  11.418   7.742 -0.1072 -0.1651 -0.1692
  799POPS   C4B11070   6.319  11.111   8.011  0.1263 -0.2660 -0.0440
  800POPS   CNO11071   7.692   5.015   6.006 -0.3351 -0.2686 -0.0112
  800POPS   PO411072   7.837   5.022   6.403  0.2838 -0.2357 -0.2137
  800POPS   GL111073   7.854   4.822   6.774 -0.3715 -0.2821  0.1208
  800POPS   GL211074   7.845   4.452   6.906  0.1392 -0.0788 -0.0244
  800POPS   C1A11075   7.933   4.840   7.253  0.1496  0.0053  0.0047
  800POPS   D2A11076   7.959   4.886   7.704 -0.0573  0.1067  0.0901
  800POPS   C3A11077   8.094   5.118   8.109 -0.0281  0.1298 -0.0410
  800POPS   C4A11078   8.093   5.307   8.466  0.0429  0.1550  0.0378
  800POPS   C1B11079   7.749   4.177   7.246  0.1960 -0.0265  0.1685
  800POPS   C2B11080   7.966   3.997   7.533 -0.0379 -0.0255  0.2522
  800POPS   C3B11081   8.084   3.791   7.819 -0.0878 -0.0199 -0.2552
  800POPS   C4B11082   8.282   3.708   8.258  0.1775  0.2046 -0.1694
  801POPS   CNO11083   5.253   1.540   6.116  0.1966  0.2008  0.1266
  801POPS   PO411084   5.311   1.861   6.495 -0.1824 -0.2074 -0.0104
  801POPS   GL111085   5.424   1.991   6.862  0.1164 -0.0777  0.0170
  801POPS   GL211086   5.114   2.004   7.059  0.3633  0.0626 -0.1841
  801POPS   C1A11087   5.513   1.806   7.400 -0.2654  0.0480  0.0726
  801POPS   D2A11088   5.449   1.742   7.875  0.0319 -0.0555 -0.0124
  801POPS   C3A11089   5.430   1.847   8.283  0.0230 -0.1307 -0.1688
  801POPS   C4A11090   5.265   2.029   8.644  0.0929  0.2128  0.1295
  801POPS   C1B11091   5.052   1.904   7.502  0.0773 -0.0505  0.2133
  801POPS   C2B11092   4.900   1.835   7.925  0.2191  0.0083  0.0483
  801POPS   C3B11093   5.010   2.179   8.202  0.0450 -0.0290  0.1472
  801POPS   C4B11094   5.073   2.578   8.380 -0.3263  0.0126 -0.0619
  802POPS   CNO11095   2.672   8.679   5.297 -0.1782  0.2934  0.0188
  802POPS   PO411096   2.313   8.470   5.296 -0.0877 -0.1102 -0.1662
  802POPS   GL111097   2.081   8.445   5.747  0.0368  0.1674 -0.0607
  802POPS   GL211098   1.748   8.611   5.795 -0.2110  0.2039  0.0394
  802POPS   C1A11099   1.946   8.148   6.121  0.0578  0.1262  0.0278
  802POPS   D2A11100   1.662   7.914   6.142 -0.3904 -0.2059  0.0312
  802POPS   C3A11101   1.289   7.996   6.287 -0.2830  0.0011  0.1113
  802POPS   C4A11102   1.257   8.053   6.753  0.0088 -0.0775 -0.2515
  802POPS   C1B11103   1.525   8.451   6.244 -0.0969  0.0054  0.0691
  802POPS   C2B11104   1.367   8.552   6.608 -0.0914  0.2368 -0.2068
  802POPS   C3B11105   1.159   8.444   7.032  0.0644 -0.0156 -0.0864
  802POPS   C4B11106   1.268   8.483   7.442 -0.0672 -0.1500 -0.0362
  803POPS   CNO11107   5.321  16.993   5.700  0.3185 -0.1529 -0.2467
  803POPS   PO411108   5.248  17.065   6.084 -0.2383 -0.2157  0.1080
  803POPS   GL111109   5.187  17.127   6.508 -0.0593  0.0363 -0.2290
  803POPS   GL211110   4.941  16.926   6.559 -0.0868 -0.0738  0.1656
  803POPS   C1A11111   5.035  17.254   6.887  0.1197 -0.0540 -0.0848
  803POPS   D2A11112   4.718  16.898   7.187 -0.1489  0.1659  0.1872
  803POPS   C3A11113   4.587  16.883   7.525 -0.1439  0.0611  0.0846
  803POPS   C4A11114   4.204  16.717   7.640 -0.0103 -0.1261  0.0858
  803POPS   C1B11115   5.111  16.751   6.871  0.0482 -0.0436  0.0761
  803POPS   C2B11116   5.251  16.438   7.260 -0.1874  0.0189 -0.0327
  803POPS   C3B11117   5.245  16.499   7.726  0.3064  0.0381 -0.0363
  803POPS   C4B11118   5.550  16.260   7.906  0.0219  0.0004  0.1625
  804POPS   CNO11119  11.454   0.103   6.391  0.4151  0.0209  0.0828
  804POPS   PO411120  11.112   0.255   6.622  0.0970  0.4158 -0.0595
  804POPS   GL111121  11.123   0.541   6.985  0.1538 -0.0860 -0.2868
  804POPS   GL211122  11.249   0.877   6.961  0.0562  0.2525  0.0150
  804POPS   C1A11123  11.292   0.719   7.427 -0.1403 -0.0396  0.0006
  804POPS   D2A11124  11.381   0.964   7.637  0.1495 -0.0189  0.1656
  804POPS   C3A11125  11.686   1.065   7.914  0.0046 -0.1071  0.1228
  804POPS   C4A11126  11.867   1.211   8.251  0.1566  0.1756 -0.0336
  804POPS   C1B11127  11.510   1.119   7.125 -0.1298 -0.0456  0.0487
  804POPS   C2B11128  11.714   1.310   7.487 -0.2219  0.1184 -0.3034
  804POPS   C3B11129  11.853   1.627   7.763  0.0690  0.1191 -0.1019
  804POPS   C4B11130  11.949   2.094   7.973 -0.0666 -0.2382 -0.0286
  805POPS   CNO11131  14.407   9.655   6.149  0.2843 -0.3624  0.0247
  805POPS   PO411132  14.110   9.266   6.324 -0.0156  0.0952  0.0009
  805POPS   GL111133  14.094   9.190   6.713  0.1189  0.2420 -0.0702
  805POPS   GL211134  14.023   9.337   6.900  0.3377 -0.1149  0.0509
  805POPS   C1A11135  14.232   8.863   6.986  0.2046  0.1231 -0.0724
  805POPS   D2A11136  14.304   8.904   7.444  0.0170  0.1951 -0.1297
  805POPS   C3A11137  14.010   9.080   7.603  0.1988  0.0585 -0.0671
  805POPS   C4A11138  13.583   8.986   7.907 -0.3628 -0.3266 -0.0249
  805POPS   C1B11139  14.205   9.369   7.234  0.2212  0.3121 -0.0296
  805POPS   C2B11140  14.462   9.393   7.595 -0.0570  0.1803  0.0381
  805POPS   C3B11141  14.307   9.354   7.984  0.0859  0.0384 -0.2247
  805POPS   C4B11142  14.415   9.192   8.345  0.0956 -0.0145  0.0955
  806POPS   CNO11143  15.021   9.932   5.553  0.2929 -0.1667 -0.3090
  806POPS   PO411144  14.846  10.027   5.958 -0.1553  0.1515  0.0037
  806POPS   GL111145  14.852  10.149   6.477  0.2877 -0.2290 -0.1700
  806POPS   GL211146  14.545  10.179   6.475  0.1386 -0.2054 -0.1317
  806POPS   C1A11147  14.869  10.257   6.892  0.0660  0.1034  0.1118
  806POPS   D2A11148  14.928  10.314   7.356  0.0891  0.2110 -0.3308
  806POPS   C3A11149  15.088  10.290   7.766 -0.2936  0.2655 -0.0236
  806POPS   C4A11150  15.245  10.484   8.147 -0.0236 -0.0991  0.3133
  806POPS   C1B11151  14.341  10.383   6.853 -0.1147 -0.0680 -0.1397
  806POPS   C2B11152  14.363  10.417   7.314 -0.1535  0.0981 -0.0480
  806POPS   C3B11153  14.601  10.338   7.765 -0.0003  0.2890 -0.1409
  806POPS   C4B11154  14.641  10.110   8.209 -0.1766 -0.2721 -0.2790
  807POPS   CNO11155   0.498   1.684   5.709 -0.0635 -0.1124 -0.3238
  807POPS   PO411156   0.532   1.998   5.988  0.1578 -0.2990 -0.0259
  807POPS   GL111157   0.452   1.923   6.491 -0.2425  0.3488  0.0858
  807POPS   GL211158   0.747   1.727   6.432 -0.1648  0.0730  0.1113
  807POPS   C1A11159   0.560   1.778   6.922  0.2621  0.0669  0.1330
  807POPS   D2A11160   0.624   1.797   7.384  0.4229 -0.0373 -0.0548
  807POPS   C3A11161   1.038   1.617   7.433 -0.0512 -0.2602 -0.0351
  807POPS   C4A11162   1.096   1.592   7.836  0.1859  0.1847  0.2994
  807POPS   C1B11163   0.902   1.427   6.722 -0.0230  0.1970  0.1120
  807POPS   C2B11164   1.061   1.266   7.031 -0.1053  0.0156 -0.2177
  807POPS   C3B11165   1.136   1.082   7.513 -0.3161  0.2219  0.2007
  807POPS   C4B11166   1.105   1.114   7.969  0.3640  0.2052 -0.1438
  808POPS   CNO11167   1.533   9.851   5.174  0.0326 -0.1148 -0.0612
  808POPS   PO411168   1.567  10.041   5.613  0.1006 -0.1865  0.1510
  808POPS   GL111169   1.405  10.172   5.896 -0.1111 -0.1076  0.3149
  808POPS   GL211170   1.059  10.238   5.884  0.2708  0.2122  0.0013
  808POPS   C1A11171   1.276  10.351   6.344 -0.2541 -0.0617 -0.4283
  808POPS   D2A11172   1.209  10.436   6.724  0.0001  0.0398  0.2669
  808POPS   C3A11173   1.002  10.546   7.099  0.2914 -0.0062 -0.2434
  808POPS   C4A11174   0.940  10.528   7.544 -0.1390 -0.2163 -0.0816
  808POPS   C1B11175   0.813  10.240   6.270 -0.1352  0.1296  0.0189
  808POPS   C2B11176   0.502   9.963   6.428  0.0768  0.1124 -0.0553
  808POPS   C3B11177   0.253   9.895   6.865  0.0402 -0.1229  0.2606
  808POPS   C4B11178  -0.096  10.162   7.000  0.2197  0.0840  0.0950
  809POPS   CNO11179   4.975  12.899   6.370 -0.3185 -0.2534 -0.0984
  809POPS   PO411180   4.738  12.480   6.205 -0.1887  0.1626 -0.2720
  809POPS   GL111181   4.928  12.429   6.558 -0.1447  0.2595 -0.0895
  809POPS   GL211182   4.749  12.476   6.781  0.0396  0.1210  0.2134
  809POPS   C1A11183   5.180  12.284   6.863 -0.0702  0.0738  0.1081
  809POPS   D2A11184   5.398  12.148   7.294  0.1569  0.1399 -0.2788
  809POPS   C3A11185   5.228  11.991   7.543 -0.2448 -0.1547 -0.1391
  809POPS   C4A11186   4.899  11.889   7.846  0.1785 -0.0228  0.0370
  809POPS   C1B11187   4.926  12.707   7.068 -0.4014 -0.0685 -0.0406
  809POPS   C2B11188   5.197  12.878   7.316  0.1507 -0.0805 -0.4696
  809POPS   C3B11189   5.250  12.984   7.758  0.0324 -0.0013  0.2280
  809POPS   C4B11190   5.247  13.188   8.152 -0.2625  0.0277  0.1630
  810POPS   CNO11191   1.248  17.399   5.857  0.0597  0.0969 -0.2507
  810POPS   PO411192   1.152  17.071   6.198 -0.2038  0.3494 -0.1489
  810POPS   GL111193   1.376  16.983   6.509  0.2358  0.0435  0.0141
  810POPS   GL211194   1.673  16.995   6.475  0.3555  0.1018  0.2175
  810POPS   C1A11195   1.514  17.011   6.927 -0.1637 -0.0334 -0.0356
  810POPS   D2A11196   1.860  17.071   7.190 -0.0621 -0.2787 -0.1676
  810POPS   C3A11197   1.860  16.956   7.617 -0.1107 -0.2965  0.2244
  810POPS   C4A11198   1.913  17.085   8.057  0.2532 -0.0454  0.1527
  810POPS   C1B11199   1.883  17.345   6.673 -0.0627  0.1098  0.1796
  810POPS   C2B11200   2.091  17.485   7.085  0.1606  0.3987  0.1990
  810POPS   C3B11201   2.198  17.315   7.428  0.0624  0.0840  0.1009
  810POPS   C4B11202   2.333  17.221   7.782 -0.4000  0.1352 -0.2999
  811POPS   CNO11203  13.767   7.755   6.690 -0.0972 -0.0048  0.1593
  811POPS   PO411204  13.889   7.546   6.203 -0.2049  0.0103 -0.3045
  811POPS   GL111205  14.223   7.496   6.484  0.0120  0.0248  0.0411
  811POPS   GL211206  14.148   7.209   6.642 -0.0549 -0.0443 -0.3912
  811POPS   C1A11207  14.610   7.424   6.793 -0.2365  0.3549 -0.4096
  811POPS   D2A11208  14.587   7.483   7.231  0.1305 -0.1503 -0.0224
  811POPS   C3A11209  14.552   7.482   7.672 -0.0443  0.0948 -0.0155
  811POPS   C4A11210  14.460   7.525   8.177 -0.2130 -0.2115 -0.4193
  811POPS   C1B11211  14.179   7.250   7.035 -0.1671 -0.2293  0.3087
  811POPS   C2B11212  14.214   7.166   7.488 -0.1374 -0.1682 -0.2341
  811POPS   C3B11213  14.050   7.366   7.840 -0.4942 -0.1544  0.0706
  811POPS   C4B11214  14.024   7.282   8.310  0.1038 -0.3288 -0.0937
  812YOPS   CNO11215   5.991   9.531   5.927  0.0919 -0.0173  0.1524
  812YOPS   PO411216   6.233   9.702   5.828 -0.1403  0.1506 -0.0236
  812YOPS   GL111217   6.057   9.924   6.249  0.3553 -0.0793 -0.3793
  812YOPS   GL211218   6.079   9.663   6.425 -0.1620 -0.1431  0.1186
  812YOPS   C1A11219   5.865  10.029   6.644 -0.2817 -0.0111  0.0795
  812YOPS   D2A11220   5.798  10.069   6.935 -0.3784 -0.0035  0.3413
  812YOPS   C3A11221   5.887  10.244   7.320  0.0521  0.2379  0.0499
  812YOPS   C4A11222   5.670  10.680   7.395 -0.2333  0.2217 -0.1341
  812YOPS   C1B11223   6.187   9.745   6.854 -0.2761 -0.1149  0.3524
  812YOPS   C2B11224   6.085   9.787   7.280 -0.0276 -0.1466  0.0645
  812YOPS   D3B11225   6.290   9.663   7.672  0.1150  0.0121  0.2893
  812YOPS   C4B11226   6.311  10.056   7.909 -0.0871  0.3307  0.1315
  813YOPS   CNO11227   9.953  16.385   6.125  0.1107  0.1366 -0.0079
  813YOPS   PO411228  10.095  16.653   6.403 -0.1686 -0.1207 -0.1532
  813YOPS   GL111229   9.833  16.894   6.735 -0.1692  0.3136 -0.2044
  813YOPS   GL211230   9.588  17.005   7.001  0.1032  0.0991  0.1050
  813YOPS   C1A11231  10.024  17.261   7.066  0.1852 -0.2016 -0.0316
  813YOPS   D2A11232  10.259  17.510   7.394 -0.1365 -0.1240  0.0062
  813YOPS   C3A11233  10.149  17.498   7.841  0.0696 -0.2468 -0.0747
  813YOPS   C4A11234  10.479  17.478   8.154 -0.3079 -0.0829 -0.1296
  813YOPS   C1B11235   9.731  17.109   7.483 -0.1556  0.2531 -0.0180
  813YOPS   C2B11236   9.747  17.177   7.910  0.0849 -0.2520  0.0767
  813YOPS   D3B11237   9.961  17.406   8.319  0.1915  0.0543  0.2186
  813YOPS   C4B11238  10.109  17.744   8.282 -0.1194  0.1602  0.1063
  814YOPS   CNO11239   6.731   0.746   6.290  0.2806  0.3354  0.0592
  814YOPS   PO411240   6.487   1.118   6.334 -0.1212 -0.1358 -0.1797
  814YOPS   GL111241   6.209   0.984   6.676  0.1907  0.1086 -0.0224
  814YOPS   GL211242   5.914   1.247   6.690  0.0283  0.1668  0.1388
  814YOPS   C1A11243   6.333   0.804   7.081  0.0867 -0.1095  0.0634
  814YOPS   D2A11244   6.389   0.857   7.482  0.3641  0.1121  0.1982
  814YOPS   C3A11245   6.581   0.787   7.840 -0.2087  0.0407  0.4942
  814YOPS   C4A11246   6.413   0.553   8.142 -0.2930 -0.2425  0.0366
  814YOPS   C1B11247   5.868   0.898   7.047  0.0257 -0.1947  0.2175
  814YOPS   C2B11248   5.774   0.866   7.520 -0.0131  0.0615  0.1045
  814YOPS   D3B11249   5.452   0.630   7.926 -0.0023 -0.0037 -0.2950
  814YOPS   C4B11250   5.392   0.904   8.278  0.3485  0.2223 -0.0495
  815YOPS   CNO11251  16.346   0.168   6.041 -0.1565  0.1411 -0.2984
  815YOPS   PO411252  16.216   0.483   5.969 -0.1331 -0.1705  0.0364
  815YOPS   GL111253  15.976   0.439   6.332  0.1303  0.2653 -0.1198
  815YOPS   GL211254  15.810   0.162   6.552  0.4067  0.2648  0.1926
  815YOPS   C1A11255  16.003   0.598   6.795 -0.2190 -0.0649  0.2276
  815YOPS   D2A11256  15.931   0.563   7.179  0.0276 -0.2839  0.4173
  815YOPS   C3A11257  15.890   0.172   7.561  0.4433  0.0349  0.2494
  815YOPS   C4A11258  15.983   0.144   7.997  0.1082  0.0417  0.3538
  815YOPS   C1B11259  15.515   0.328   6.877 -0.0620 -0.1339  0.0650
  815YOPS   C2B11260  15.454   0.716   7.189 -0.3448 -0.3198  0.0347
  815YOPS   D3B11261  15.549   0.852   7.692 -0.1738  0.1291 -0.0048
  815YOPS   C4B11262  15.281   0.876   8.034  0.1355 -0.1598  0.1394
  816YOPS   CNO11263  11.993  16.657   6.128 -0.1265 -0.0803  0.2283
  816YOPS   PO411264  11.743  16.827   6.384 -0.1729  0.0464  0.3156
  816YOPS   GL111265  11.690  16.800   6.859 -0.0014 -0.1634  0.1555
  816YOPS   GL211266  11.622  16.474   7.115  0.1006  0.3868  0.0081
  816YOPS   C1A11267  11.702  17.068   7.291 -0.1765 -0.2466  0.0967
  816YOPS   D2A11268  11.740  17.321   7.678 -0.1894  0.1597 -0.0686
  816YOPS   C3A11269  11.708  17.311   8.154 -0.2577 -0.3094 -0.0285
  816YOPS   C4A11270  11.307  17.225   8.314 -0.0360 -0.0046  0.3086
  816YOPS   C1B11271  11.641  16.607   7.429 -0.0131  0.1678 -0.0641
  816YOPS   C2B11272  11.925  16.845   7.773 -0.1616 -0.3583 -0.1594
  816YOPS   D3B11273  12.159  17.109   7.845 -0.0117 -0.1891  0.0279
  816YOPS   C4B11274  12.144  17.083   8.239 -0.0964  0.3128 -0.1823
  817YOPS   CNO11275  11.302   1.023   6.033  0.0572 -0.1741  0.0587
  817YOPS   PO411276  11.335   1.370   6.298  0.0209  0.2328  0.2001
  817YOPS   GL111277  11.205   1.348   6.731 -0.1351  0.1172 -0.0968
  817YOPS   GL211278  11.405   1.565   6.920  0.0027  0.2842  0.1638
  817YOPS   C1A11279  11.034   1.248   7.155  0.1364  0.0579 -0.0895
  817YOPS   D2A11280  10.939   1.158   7.560  0.0441 -0.0588 -0.0968
  817YOPS   C3A11281  10.961   1.097   7.991  0.0318  0.0684 -0.3927
  817YOPS   C4A11282  11.142   0.761   8.065 -0.0824 -0.1470  0.4090
  817YOPS   C1B11283  11.336   1.570   7.318  0.1650  0.3836  0.1994
  817YOPS   C2B11284  11.269   1.466   7.748 -0.0855  0.2474 -0.0345
  817YOPS   D3B11285  11.431   1.419   8.122  0.3084  0.1338 -0.1586
  817YOPS   C4B11286  11.139   1.236   8.492  0.2078  0.1626  0.0086
  818YOPS   CNO11287   3.245  17.426   5.630  0.1698  0.2234  0.0926
  818YOPS   PO411288   3.179  17.340   6.050 -0.2966  0.0022 -0.0779
  818YOPS   GL111289   3.411  17.371   6.407 -0.1742 -0.3733 -0.0620
  818YOPS   GL211290   3.730  17.279   6.397  0.1943 -0.0726  0.1693
  818YOPS   C1A11291   3.482  17.244   6.821  0.1436  0.0181  0.3087
  818YOPS   D2A11292   3.349  17.030   7.203  0.1467 -0.0899 -0.0536
  818YOPS   C3A11293   3.208  17.144   7.513  0.1712 -0.1259  0.0614
  818YOPS   C4A11294   3.279  17.100   7.956  0.2275 -0.1310  0.0541
  818YOPS   C1B11295   3.814  17.705   6.508 -0.2529  0.1709 -0.1072
  818YOPS   C2B11296   3.887  18.111   6.605  0.2899  0.3246  0.0017
  818YOPS   D3B11297   3.888  18.428   6.928 -0.2031  0.1220 -0.0723
  818YOPS   C4B11298   3.871  18.264   7.311 -0.2824 -0.2948  0.1619
  819YOPS   CNO11299   2.674   1.295   5.671  0.0103 -0.0530  0.3064
  819YOPS   PO411300   2.936   1.607   5.792  0.1833 -0.2914  0.0827
  819YOPS   GL111301   2.883   1.429   6.140  0.1878 -0.2091 -0.0992
  819YOPS   GL211302   3.080   1.668   6.322 -0.2342 -0.1841 -0.4426
  819YOPS   C1A11303   2.835   1.265   6.535 -0.2424 -0.0608 -0.0729
  819YOPS   D2A11304   2.734   1.353   7.014  0.1523  0.2036  0.3528
  819YOPS   C3A11305   2.760   1.110   7.422  0.0995  0.1459 -0.0489
  819YOPS   C4A11306   2.426   0.919   7.499 -0.1110 -0.2390 -0.3885
  819YOPS   C1B11307   3.080   1.734   6.753 -0.1606  0.0744  0.2142
  819YOPS   C2B11308   3.011   1.682   7.264  0.0116  0.1582 -0.3438
  819YOPS   D3B11309   2.802   1.734   7.641  0.3533 -0.1207  0.0571
  819YOPS   C4B11310   2.677   1.381   7.839 -0.0118  0.0918 -0.1608
  820YOPS   CNO11311  10.170   6.251   6.385  0.0874  0.0525  0.0430
  820YOPS   PO411312  10.151   6.753   6.318  0.0336 -0.0070 -0.2867
  820YOPS   GL111313  10.316   6.696   6.728  0.1190  0.1499 -0.0715
  820YOPS   GL211314  10.609   6.576   6.875 -0.0305 -0.0171  0.0014
  820YOPS   C1A11315  10.400   6.935   7.105 -0.1479  0.0028 -0.1139
  820YOPS   D2A11316  10.384   6.842   7.603  0.1449 -0.2752 -0.2372
  820YOPS   C3A11317  10.131   6.807   7.919 -0.0192  0.0464 -0.1537
  820YOPS   C4A11318  10.242   6.850   8.348  0.1701 -0.0313 -0.1592
  820YOPS   C1B11319  10.510   6.406   7.234  0.2317  0.3748  0.0723
  820YOPS   C2B11320  10.592   6.410   7.573 -0.3209 -0.2363  0.0901
  820YOPS   D3B11321  10.710   6.217   7.974 -0.1701  0.0205  0.0092
  820YOPS   C4B11322  10.472   6.447   8.308  0.2179  0.1076 -0.0326
  821YOPS   CNO11323   1.463   5.135   5.870  0.0973 -0.0154  0.2920
  821YOPS   PO411324   1.316   5.241   5.567 -0.1517  0.0559  0.4519
  821YOPS   GL111325   1.049   5.333   6.056  0.1054 -0.1386  0.0627
  821YOPS   GL211326   0.770   5.198   6.042 -0.0491  0.4006 -0.1802
  821YOPS   C1A11327   0.904   5.519   6.477  0.1521  0.1854  0.1294
  821YOPS   D2A11328   0.904   5.494   6.937  0.2152 -0.0876  0.1062
  821YOPS   C3A11329   1.035   5.317   7.346 -0.0718 -0.3291 -0.0098
  821YOPS   C4A11330   1.110   5.297   7.759 -0.3846  0.0713  0.0044
  821YOPS   C1B11331   0.776   5.048   6.433  0.0229  0.1126  0.1427
  821YOPS   C2B11332   0.684   4.893   6.763  0.0178  0.0120  0.0638
  821YOPS   D3B11333   0.500   5.136   7.216  0.0404 -0.0697  0.0141
  821YOPS   C4B11334   0.692   5.044   7.624  0.1361  0.2560  0.2339
  822YOPS   CNO11335   9.819  12.232   6.175 -0.0131  0.1438  0.1359
  822YOPS   PO411336  10.243  12.248   6.506  0.3947 -0.0655 -0.2991
  822YOPS   GL111337  10.027  12.125   6.981 -0.1260  0.1470  0.1501
  822YOPS   GL211338   9.744  12.316   7.126 -0.1249  0.2610  0.1911
  822YOPS   C1A11339  10.029  11.941   7.338  0.1404  0.1494 -0.2995
  822YOPS   D2A11340   9.913  11.838   7.671 -0.0907  0.2208  0.2060
  822YOPS   C3A11341  10.158  11.491   7.935  0.1417  0.0328  0.0169
  822YOPS   C4A11342  10.317  11.676   8.365  0.4310 -0.0956 -0.0367
  822YOPS   C1B11343   9.751  12.328   7.597 -0.1874  0.2918  0.1447
  822YOPS   C2B11344   9.745  12.335   7.964  0.1470  0.2210 -0.4080
  822YOPS   D3B11345   9.371  12.493   8.343 -0.0033  0.1341 -0.1599
  822YOPS   C4B11346   8.969  12.255   8.310  0.0777  0.0262  0.0710
  823YOPS   CNO11347   1.000  14.099   5.947 -0.4839 -0.3940  0.1267
  823YOPS   PO411348   0.645  14.348   5.849  0.4415  0.1048  0.1352
  823YOPS   GL111349   0.643  14.497   6.174  0.1186  0.3914 -0.0375
  823YOPS   GL211350   0.735  14.821   6.145 -0.1869  0.0977 -0.2589
  823YOPS   C1A11351   0.541  14.472   6.577 -0.0769  0.2040 -0.0294
  823YOPS   D2A11352   0.496  14.779   6.855 -0.1144 -0.0134  0.2376
  823YOPS   C3A11353   0.281  14.800   7.256 -0.1156  0.0824 -0.3144
  823YOPS   C4A11354   0.181  15.159   7.501  0.1971 -0.0517 -0.2267
  823YOPS   C1B11355   0.892  15.218   6.175 -0.2395  0.0023  0.0804
  823YOPS   C2B11356   1.151  15.435   6.452  0.0670  0.1316 -0.6626
  823YOPS   D3B11357   1.136  15.528   6.843  0.1667 -0.0654  0.2972
  823YOPS   C4B11358   1.082  15.827   7.108  0.0507 -0.0966 -0.1469
  824YOPS   CNO11359  13.187   9.270   5.998  0.2342 -0.2890  0.0286
  824YOPS   PO411360  13.285   9.528   6.314  0.0529 -0.0940 -0.2383
  824YOPS   GL111361  13.274   9.474   6.782 -0.3128  0.4623  0.2382
  824YOPS   GL211362  13.518   9.507   6.962  0.1489 -0.1149 -0.2850
  824YOPS   C1A11363  13.051   9.595   7.153  0.3257  0.1204  0.0557
  824YOPS   D2A11364  13.096   9.566   7.626 -0.0212  0.2160  0.0154
  824YOPS   C3A11365  12.791   9.396   7.864 -0.0799 -0.0708 -0.0004
  824YOPS   C4A11366  12.548   9.565   8.218 -0.0223  0.0701  0.3504
  824YOPS   C1B11367  13.817   9.651   7.256 -0.0256 -0.1880  0.0074
  824YOPS   C2B11368  14.018   9.762   7.677  0.2427 -0.0081  0.1568
  824YOPS   D3B11369  14.296   9.889   7.934 -0.0450  0.1009 -0.0947
  824YOPS   C4B11370  14.274   9.732   8.339 -0.0383  0.1771  0.3090
  825YOPS   CNO11371   1.423   5.777   5.214  0.2232  0.0454  0.1671
  825YOPS   PO411372   1.261   5.724   5.558 -0.2283  0.0797 -0.1765
  825YOPS   GL111373   1.163   5.808   5.956 -0.1316  0.0784  0.3296
  825YOPS   GL211374   0.788   5.731   6.014  0.0253 -0.1066  0.0489
  825YOPS   C1A11375   1.176   5.922   6.435  0.0411 -0.3164 -0.0982
  825YOPS   D2A11376   1.029   6.011   6.934  0.1886  0.1649 -0.0309
  825YOPS   C3A11377   0.981   5.908   7.445  0.0838  0.1093  0.1987
  825YOPS   C4A11378   0.673   5.559   7.540 -0.1337 -0.0917  0.0331
  825YOPS   C1B11379   0.792   6.165   6.303 -0.1635  0.0628 -0.1577
  825YOPS   C2B11380   0.737   6.328   6.651 -0.1251  0.0612  0.0315
  825YOPS   D3B11381   0.897   6.574   7.000  0.1836 -0.1159 -0.0914
  825YOPS   C4B11382   1.188   6.441   7.226  0.3161 -0.3125  0.2631
  826YOPS   CNO11383  12.176  11.800   6.214 -0.3068  0.0159 -0.0565
  826YOPS   PO411384  11.781  11.848   6.334  0.0385  0.1507  0.1060
  826YOPS   GL111385  11.822  11.635   6.598  0.3140  0.0634 -0.1545
  826YOPS   GL211386  12.062  11.779   6.769  0.1888  0.1367  0.3786
  826YOPS   C1A11387  11.653  11.694   7.062 -0.1203 -0.2631 -0.0855
  826YOPS   D2A11388  11.709  11.513   7.500 -0.1305  0.6244 -0.0233
  826YOPS   C3A11389  11.832  11.427   7.894 -0.0653  0.2804  0.0783
  826YOPS   C4A11390  12.062  11.526   8.277 -0.3279 -0.0217 -0.2237
  826YOPS   C1B11391  12.087  11.880   7.270  0.1803 -0.1050  0.0355
  826YOPS   C2B11392  11.801  11.966   7.649  0.0552  0.1068  0.1920
  826YOPS   D3B11393  11.794  11.884   8.060  0.1373  0.0793  0.0353
  826YOPS   C4B11394  11.666  12.170   8.283 -0.1206  0.0347  0.0620
  827YOPS   CNO11395   5.482   4.907   6.014  0.0062 -0.0357 -0.0229
  827YOPS   PO411396   5.153   4.606   6.049 -0.1120 -0.2742 -0.1639
  827YOPS   GL111397   5.271   4.804   6.434  0.1141  0.1579  0.0762
  827YOPS   GL211398   5.048   4.935   6.532  0.0930 -0.1254 -0.0119
  827YOPS   C1A11399   5.519   4.948   6.817  0.1142  0.1073 -0.0607
  827YOPS   D2A11400   5.545   4.951   7.215  0.1770 -0.1112 -0.0509
  827YOPS   C3A11401   5.470   4.790   7.624 -0.1741 -0.0316 -0.5621
  827YOPS   C4A11402   5.211   4.898   7.868  0.0184 -0.1419  0.0050
  827YOPS   C1B11403   4.894   5.035   6.886 -0.2097  0.0117  0.0970
  827YOPS   C2B11404   4.616   5.131   7.239 -0.0398 -0.0716 -0.0995
  827YOPS   D3B11405   4.689   5.148   7.644 -0.0727 -0.0829 -0.1501
  827YOPS   C4B11406   5.008   5.392   7.772 -0.4486 -0.0319  0.2344
  828YOPS   CNO11407  16.016   1.538   6.557 -0.0140 -0.0434  0.2265
  828YOPS   PO411408  16.015   1.735   6.139 -0.1245 -0.1551 -0.1252
  828YOPS   GL111409  15.685   1.897   6.458  0.0678  0.1861  0.1364
  828YOPS   GL211410  15.396   1.723   6.482 -0.0148  0.1751  0.3029
  828YOPS   C1A11411  15.696   2.108   6.879 -0.4574  0.0866 -0.0804
  828YOPS   D2A11412  15.356   2.187   7.124 -0.1970 -0.3857  0.1434
  828YOPS   C3A11413  15.111   2.145   7.541 -0.0717 -0.1419 -0.1785
  828YOPS   C4A11414  15.341   2.474   7.878 -0.1305 -0.0471 -0.0005
  828YOPS   C1B11415  15.124   1.918   6.808 -0.1592  0.0103 -0.0210
  828YOPS   C2B11416  14.822   1.994   7.220 -0.1311 -0.0679  0.1948
  828YOPS   D3B11417  14.572   2.044   7.665 -0.3173  0.2145 -0.0548
  828YOPS   C4B11418  14.105   1.837   7.901 -0.1372  0.2982  0.0455
  829YOPS   CNO11419  10.711   6.882   6.257  0.1808  0.0175  0.0332
  829YOPS   PO411420  11.086   6.716   6.399  0.0750  0.2505 -0.0769
  829YOPS   GL111421  10.961   6.925   6.797 -0.2267 -0.1372 -0.3698
  829YOPS   GL211422  10.698   7.109   6.708 -0.2746  0.1514 -0.0392
  829YOPS   C1A11423  10.910   6.896   7.257 -0.1034 -0.1520  0.0785
  829YOPS   D2A11424  10.926   6.774   7.690 -0.3211  0.1891  0.1235
  829YOPS   C3A11425  10.688   6.823   8.059 -0.0532 -0.1497 -0.2923
  829YOPS   C4A11426  10.665   7.135   8.308 -0.1120 -0.0124  0.3878
  829YOPS   C1B11427  10.778   7.355   7.133  0.0769  0.0406 -0.3016
  829YOPS   C2B11428  11.121   7.584   7.345  0.0705 -0.0968 -0.0416
  829YOPS   D3B11429  11.148   7.736   7.734 -0.1393  0.1567  0.0003
  829YOPS   C4B11430  10.782   7.571   8.030  0.1213 -0.0754 -0.1315
  830YOPS   CNO11431  14.930   0.092   6.040  0.0091 -0.0058 -0.1301
  830YOPS   PO411432  15.205   0.352   6.211  0.1641  0.0516 -0.0580
  830YOPS   GL111433  15.008   0.076   6.523 -0.1780  0.2667 -0.1518
  830YOPS   GL211434  15.293  -0.063   6.584 -0.3384  0.1813 -0.1193
  830YOPS   C1A11435  14.906  -0.043   7.008 -0.1717  0.0713  0.1717
  830YOPS   D2A11436  14.958   0.018   7.476 -0.0951 -0.2014 -0.2438
  830YOPS   C3A11437  15.183  -0.017   7.889 -0.2130  0.1590 -0.1565
  830YOPS   C4A11438  15.644  -0.213   7.798 -0.1896  0.1490  0.0630
  830YOPS   C1B11439  15.423  -0.167   6.936  0.0956 -0.3859  0.4090
  830YOPS   C2B11440  15.650  -0.273   7.277 -0.3910  0.3963 -0.1646
  830YOPS   D3B11441  15.885  -0.659   7.469  0.1756 -0.0927  0.0980
  830YOPS   C4B11442  15.930  -0.720   7.907 -0.0871 -0.3313  0.2578
  831YOPS   CNO11443   7.668   1.890   6.511 -0.1075  0.0959 -0.1254
  831YOPS   PO411444   8.101   2.092   6.696  0.3593 -0.3352 -0.2279
  831YOPS   GL111445   8.317   1.897   7.028 -0.0223 -0.2019 -0.2209
  831YOPS   GL211446   8.721   1.919   6.955  0.1012  0.1748  0.3689
  831YOPS   C1A11447   8.443   1.925   7.462 -0.1611  0.2350 -0.4351
  831YOPS   D2A11448   8.327   1.940   7.793  0.2483  0.0288 -0.1860
  831YOPS   C3A11449   8.309   1.980   8.273  0.1286 -0.1251  0.1291
  831YOPS   C4A11450   8.019   2.323   8.270 -0.1220 -0.1564  0.1764
  831YOPS   C1B11451   8.933   1.986   7.325 -0.2310  0.1052  0.0546
  831YOPS   C2B11452   8.999   1.985   7.747 -0.1653  0.0490  0.1968
  831YOPS   D3B11453   8.787   2.120   8.142 -0.3093 -0.1553  0.2556
  831YOPS   C4B11454   9.015   2.207   8.549  0.0922  0.0684 -0.1128
  832YOPS   CNO11455  13.116   5.515   6.503 -0.1897  0.2822 -0.1220
  832YOPS   PO411456  13.064   5.207   6.233  0.2237 -0.1027  0.0605
  832YOPS   GL111457  12.813   5.094   6.600  0.1994  0.0946 -0.2913
  832YOPS   GL211458  12.496   5.116   6.723 -0.2411  0.1811 -0.1001
  832YOPS   C1A11459  12.890   5.333   7.070  0.1416 -0.0351  0.3064
  832YOPS   D2A11460  12.912   5.313   7.554 -0.1993  0.2135 -0.0933
  832YOPS   C3A11461  12.752   5.077   7.888  0.1988 -0.2411 -0.0045
  832YOPS   C4A11462  12.956   4.799   8.150 -0.3590 -0.0600  0.0445
  832YOPS   C1B11463  12.514   4.988   7.094 -0.1272 -0.0401 -0.3909
  832YOPS   C2B11464  12.539   4.821   7.506 -0.1038 -0.0694 -0.1728
  832YOPS   D3B11465  12.527   4.556   7.889 -0.0112  0.3099 -0.0857
  832YOPS   C4B11466  12.411   4.702   8.240 -0.1878 -0.3639  0.1837
  833YOPS   CNO11467  11.877  10.770   6.315 -0.0746 -0.0476  0.0250
  833YOPS   PO411468  12.306  10.911   6.335  0.2654 -0.3065 -0.0393
  833YOPS   GL111469  12.203  10.860   6.679 -0.2533 -0.0345  0.1202
  833YOPS   GL211470  12.017  11.115   6.749  0.0099 -0.2129 -0.0421
  833YOPS   C1A11471  11.932  10.566   6.919  0.0083 -0.4004 -0.2519
  833YOPS   D2A11472  12.035  10.297   7.174  0.1803  0.1230 -0.0913
  833YOPS   C3A11473  12.404   9.978   7.186  0.1726 -0.0873 -0.2600
  833YOPS   C4A11474  12.824   9.963   7.352 -0.1633  0.0092  0.0057
  833YOPS   C1B11475  11.797  11.012   7.165 -0.2359 -0.1408  0.1355
  833YOPS   C2B11476  11.655  11.038   7.634  0.2536 -0.1129  0.0698
  833YOPS   D3B11477  11.902  10.832   7.939 -0.0030 -0.0928  0.2755
  833YOPS   C4B11478  12.029  10.962   8.383  0.0886  0.0109  0.2372
  834YOPS   CNO11479   6.656   8.744   5.893 -0.2660 -0.0837  0.1450
  834YOPS   PO411480   6.800   9.134   6.200 -0.0154 -0.0298  0.1496
  834YOPS   GL111481   6.720   9.079   6.583  0.0888  0.0656  0.0905
  834YOPS   GL211482   6.922   8.937   6.763  0.0319  0.1894  0.0471
  834YOPS   C1A11483   6.534   9.348   6.901  0.1073  0.0820  0.0619
  834YOPS   D2A11484   6.570   9.487   7.328 -0.0353  0.1278 -0.1554
  834YOPS   C3A11485   6.752   9.353   7.774  0.0916 -0.0513 -0.0014
  834YOPS   C4A11486   6.536   9.453   8.080  0.1344  0.1825 -0.0991
  834YOPS   C1B11487   6.900   9.113   7.143 -0.2063  0.4329  0.1125
  834YOPS   C2B11488   6.798   8.932   7.509 -0.2627 -0.2592 -0.1335
  834YOPS   D3B11489   6.743   8.900   7.953  0.2321  0.1316 -0.1200
  834YOPS   C4B11490   6.948   8.780   8.336 -0.3119  0.1286 -0.0631
  835YOPS   CNO11491  10.253  14.885   5.881  0.1014 -0.0876 -0.0399
  835YOPS   PO411492  10.085  15.085   6.203 -0.1217  0.0285 -0.0832
  835YOPS   GL111493  10.072  15.135   6.661  0.3063  0.1089  0.3468
  835YOPS   GL211494   9.777  15.309   6.873  0.0394  0.1199 -0.1681
  835YOPS   C1A11495  10.208  15.166   7.097  0.0788 -0.0561  0.3048
  835YOPS   D2A11496  10.185  14.812   7.431  0.3173  0.1826 -0.1871
  835YOPS   C3A11497  10.517  14.700   7.699  0.0055 -0.0388 -0.1615
  835YOPS   C4A11498  10.492  14.569   8.176  0.0239  0.0222  0.2882
  835YOPS   C1B11499   9.820  15.156   7.397  0.2585  0.0127 -0.0966
  835YOPS   C2B11500  10.214  15.312   7.595 -0.1177  0.0513 -0.1398
  835YOPS   D3B11501  10.491  15.724   7.815  0.0676  0.0664 -0.0809
  835YOPS   C4B11502  10.804  15.769   8.185  0.1149  0.2357 -0.3389
  836YOPS   CNO11503   7.610   4.081   6.692 -0.0157  0.1407  0.0999
  836YOPS   PO411504   7.976   4.018   6.526 -0.1522 -0.1550  0.2833
  836YOPS   GL111505   8.255   4.151   6.833  0.0040 -0.3244  0.2229
  836YOPS   GL211506   8.516   4.325   6.782 -0.2127 -0.1088 -0.0584
  836YOPS   C1A11507   8.182   4.404   7.254  0.2406 -0.0902  0.0307
  836YOPS   D2A11508   8.193   4.368   7.762  0.0365  0.1181  0.0613
  836YOPS   C3A11509   8.046   4.155   8.158  0.0272  0.2213 -0.0282
  836YOPS   C4A11510   7.747   3.763   8.201  0.1675  0.0749 -0.1046
  836YOPS   C1B11511   8.654   4.538   7.091 -0.0315  0.1920  0.0848
  836YOPS   C2B11512   8.687   4.485   7.515  0.2048  0.1426 -0.1477
  836YOPS   D3B11513   8.735   4.469   7.877  0.0969  0.1483 -0.2089
  836YOPS   C4B11514   8.560   4.145   8.043  0.0625  0.3459 -0.1942
  837YOPS   CNO11515  10.321   7.815   6.173 -0.3281 -0.0821 -0.0102
  837YOPS   PO411516   9.964   8.060   6.314 -0.0949 -0.0803  0.1305
  837YOPS   GL111517   9.789   8.117   6.674  0.1319 -0.0437 -0.0812
  837YOPS   GL211518   9.512   8.209   6.821 -0.0766 -0.0465 -0.1149
  837YOPS   C1A11519   9.812   7.883   7.071 -0.0884 -0.3558  0.0051
  837YOPS   D2A11520   9.803   7.499   7.088 -0.1675  0.0600  0.1717
  837YOPS   C3A11521   9.890   7.062   7.119 -0.1744  0.1822 -0.2251
  837YOPS   C4A11522   9.871   6.988   7.543 -0.2596  0.0879 -0.0571
  837YOPS   C1B11523   9.442   8.085   7.311  0.0949  0.1471  0.0635
  837YOPS   C2B11524   9.312   8.021   7.763 -0.0214 -0.3520 -0.0218
  837YOPS   D3B11525   9.367   7.914   8.219  0.1410 -0.0176  0.1206
  837YOPS   C4B11526   9.141   7.819   8.572  0.1006 -0.1081  0.0547
  838YOPS   CNO11527   0.940  11.606   5.407 -0.0268  0.1504 -0.0026
  838YOPS   PO411528   0.762  12.046   5.673  0.0014  0.1524  0.2055
  838YOPS   GL111529   0.846  11.883   6.157  0.3228  0.3991 -0.1661
  838YOPS   GL211530   0.712  12.186   6.246 -0.0971  0.1744 -0.0813
  838YOPS   C1A11531   0.707  11.658   6.534  0.0592  0.0385  0.2724
  838YOPS   D2A11532   0.663  11.448   6.919  0.2427 -0.0006 -0.0919
  838YOPS   C3A11533   0.495  11.246   7.394  0.0194  0.4849  0.0284
  838YOPS   C4A11534   0.820  11.008   7.576  0.0328  0.1819  0.4737
  838YOPS   C1B11535   0.611  12.412   6.692 -0.0657 -0.2373  0.0268
  838YOPS   C2B11536   0.606  12.540   6.966 -0.0232 -0.0331  0.0004
  838YOPS   D3B11537   0.773  12.487   7.318 -0.0835  0.1100 -0.1807
  838YOPS   C4B11538   1.092  12.641   7.634  0.1787 -0.2810  0.1599
  839YOPS   CNO11539   9.900  14.147   6.543 -0.3487  0.2702  0.1949
  839YOPS   PO411540  10.332  14.241   6.514  0.2712 -0.2415 -0.0940
  839YOPS   GL111541  10.270  14.460   6.869 -0.0426 -0.2075  0.0654
  839YOPS   GL211542  10.422  14.782   6.884 -0.0893 -0.2850  0.2449
  839YOPS   C1A11543  10.102  14.328   7.301 -0.1799  0.2364 -0.0208
  839YOPS   D2A11544  10.146  14.368   7.714 -0.0746  0.1584 -0.1815
  839YOPS   C3A11545  10.071  14.763   7.960  0.1814  0.1570 -0.0516
  839YOPS   C4A11546   9.867  15.091   7.854 -0.3950 -0.0439  0.1051
  839YOPS   C1B11547  10.611  14.971   7.297  0.1212 -0.0752  0.0365
  839YOPS   C2B11548  10.960  14.959   7.492  0.0370  0.1739  0.1426
  839YOPS   D3B11549  11.057  14.959   7.889  0.1743 -0.3599  0.0033
  839YOPS   C4B11550  11.455  14.803   8.006  0.0211 -0.1901  0.3395
  840YOPS   CNO11551  15.388   5.457   5.855  0.1434 -0.0896 -0.0332
  840YOPS   PO411552  15.690   5.685   5.704  0.0315 -0.3006  0.0072
  840YOPS   GL111553  15.860   5.598   6.164  0.0029  0.0407 -0.1042
  840YOPS   GL211554  15.578   5.386   6.302  0.0535 -0.2420  0.3268
  840YOPS   C1A11555  16.035   5.511   6.547 -0.0050 -0.0130 -0.1231
  840YOPS   D2A11556  15.997   5.288   6.995  0.0371 -0.2785 -0.0975
  840YOPS   C3A11557  16.026   5.244   7.438  0.1077 -0.0286 -0.1576
  840YOPS   C4A11558  16.244   5.414   7.848  0.0282 -0.1614 -0.0186
  840YOPS   C1B11559  15.537   5.198   6.761  0.0480  0.0960 -0.0652
  840YOPS   C2B11560  15.490   5.242   7.252  0.1148 -0.2598 -0.2010
  840YOPS   D3B11561  15.431   5.482   7.695  0.2738  0.0729  0.0878
  840YOPS   C4B11562  15.818   5.561   7.923  0.0740  0.0504  0.0023
  841YOPS   CNO11563  16.232  15.282   5.529  0.1915 -0.2915 -0.0727
  841YOPS   PO411564  16.447  14.992   5.552  0.0185 -0.0321 -0.1185
  841YOPS   GL111565  16.505  15.058   5.995 -0.1250 -0.0068 -0.0702
  841YOPS   GL211566  16.775  15.000   6.338 -0.0131  0.0554  0.0661
  841YOPS   C1A11567  16.383  15.307   6.394 -0.3977  0.1996 -0.0793
  841YOPS   D2A11568  16.293  15.591   6.672  0.0162 -0.0397  0.1570
  841YOPS   C3A11569  16.140  15.822   7.039 -0.0916 -0.4140 -0.1085
  841YOPS   C4A11570  16.366  16.214   7.259 -0.1075 -0.3228 -0.0584
  841YOPS   C1B11571  16.813  14.807   6.728  0.0782 -0.2230  0.0927
  841YOPS   C2B11572  16.869  14.804   7.133 -0.1775 -0.1554  0.2857
  841YOPS   D3B11573  17.025  14.790   7.467 -0.1203  0.1208 -0.1854
  841YOPS   C4B11574  16.803  14.866   7.844 -0.1470  0.1748 -0.2039
  842POPE   NH311575   2.641   5.973   5.850 -0.2244 -0.1303 -0.1558
  842POPE   PO411576   3.075   6.203   5.661  0.1103 -0.1829  0.0529
  842POPE   GL111577   2.957   6.412   6.032 -0.2340  0.0161  0.0302
  842POPE   GL211578   3.101   6.703   6.143 -0.1857  0.1129  0.0086
  842POPE   C1A11579   2.812   6.274   6.543 -0.0604 -0.0126 -0.0679
  842POPE   D2A11580   2.530   6.312   6.891  0.0930 -0.0065  0.1375
  842POPE   C3A11581   2.621   6.270   7.345 -0.0589 -0.1192  0.1027
  842POPE   C4A11582   2.508   6.137   7.790  0.0769  0.0487  0.1314
  842POPE   C1B11583   3.138   6.658   6.595 -0.0021 -0.1718 -0.1213
  842POPE   C2B11584   2.972   6.636   7.070 -0.2802 -0.1107  0.0984
  842POPE   C3B11585   2.950   6.641   7.588 -0.3596  0.2473 -0.0183
  842POPE   C4B11586   2.770   6.602   7.957 -0.0764 -0.0139  0.1558
  843POPE   NH311587   1.149   4.729   5.391  0.4150  0.1710 -0.3485
  843POPE   PO411588   1.382   4.479   5.599  0.1297 -0.1066  0.0477
  843POPE   GL111589   1.614   4.608   5.927 -0.1041 -0.1061 -0.0385
  843POPE   GL211590   1.781   4.723   5.949  0.2801  0.1060 -0.1023
  843POPE   C1A11591   1.652   4.591   6.438  0.0062  0.1060 -0.2822
  843POPE   D2A11592   1.441   4.486   6.885  0.0259 -0.1666 -0.0858
  843POPE   C3A11593   1.533   4.671   7.280 -0.1760 -0.1656  0.3221
  843POPE   C4A11594   1.564   4.736   7.701  0.1701  0.0857 -0.0477
  843POPE   C1B11595   2.113   4.680   6.221 -0.0936 -0.0874  0.1568
  843POPE   C2B11596   2.545   4.663   6.366 -0.1455  0.0889 -0.1504
  843POPE   C3B11597   2.860   4.604   6.655 -0.1762 -0.0255 -0.4050
  843POPE   C4B11598   3.214   4.368   6.574 -0.3685  0.1688 -0.1756
  844POPE   NH311599   2.315  12.977   6.028  0.0102 -0.3140 -0.0268
  844POPE   PO411600   2.044  13.174   5.722  0.0210 -0.3005 -0.1679
  844POPE   GL111601   2.134  13.399   6.119 -0.1325 -0.1429 -0.0722
  844POPE   GL211602   2.186  13.794   6.079  0.0264 -0.1924 -0.1743
  844POPE   C1A11603   1.974  13.346   6.556 -0.0173 -0.1320  0.1098
  844POPE   D2A11604   1.692  13.270   6.942  0.0800  0.1241 -0.0499
  844POPE   C3A11605   1.768  13.368   7.349  0.1920 -0.0173  0.0764
  844POPE   C4A11606   1.915  13.619   7.819 -0.0577 -0.1996 -0.0455
  844POPE   C1B11607   2.131  13.819   6.529  0.1691  0.2866 -0.5483
  844POPE   C2B11608   1.974  13.809   6.947  0.0555  0.2848  0.2779
  844POPE   C3B11609   1.987  13.943   7.470  0.1459  0.1897  0.1597
  844POPE   C4B11610   1.855  14.258   7.750 -0.0925 -0.0266  0.1810
  845POPE   NH311611  17.363   3.860   6.040 -0.1883 -0.0009 -0.1271
  845POPE   PO411612  17.455   4.284   5.824 -0.2519  0.0114 -0.2731
  845POPE   GL111613  17.665   4.250   6.182  0.0048  0.2963 -0.2720
  845POPE   GL211614  17.888   4.343   6.109 -0.0459 -0.1306 -0.1107
  845POPE   C1A11615  17.632   4.421   6.626  0.1146  0.0775  0.2504
  845POPE   D2A11616  17.592   4.745   6.758 -0.0461  0.0071 -0.1019
  845POPE   C3A11617  17.587   4.682   7.148  0.0812  0.2444  0.3999
  845POPE   C4A11618  17.928   4.768   7.363 -0.0248  0.2970 -0.0741
  845POPE   C1B11619  18.085   4.213   6.425  0.0871  0.0676 -0.0151
  845POPE   C2B11620  18.359   4.217   6.867  0.0629  0.3020  0.1247
  845POPE   C3B11621  18.364   3.887   7.110 -0.0348  0.3657  0.1162
  845POPE   C4B11622  18.530   3.528   7.359  0.1929  0.0985 -0.1147
  846POPE   NH311623  16.681   0.821   5.928 -0.0215  0.1027  0.2802
  846POPE   PO411624  16.793   1.051   6.250 -0.2435 -0.0542 -0.0078
  846POPE   GL111625  16.846   1.058   6.658 -0.4298 -0.1164 -0.0590
  846POPE   GL211626  16.946   0.772   6.749 -0.2747  0.0979 -0.1531
  846POPE   C1A11627  16.795   1.141   7.063 -0.0861  0.0523 -0.0472
  846POPE   D2A11628  16.972   1.034   7.541  0.1797 -0.0869 -0.0508
  846POPE   C3A11629  17.132   1.406   7.602 -0.1055  0.1088 -0.0285
  846POPE   C4A11630  17.185   1.815   7.886  0.1310 -0.0610  0.4159
  846POPE   C1B11631  16.828   0.658   7.198 -0.0717  0.0964  0.0250
  846POPE   C2B11632  16.771   0.450   7.444 -0.2031 -0.3557  0.1084
  846POPE   C3B11633  16.710  -0.028   7.471 -0.1127 -0.0515 -0.3950
  846POPE   C4B11634  16.744  -0.309   7.724  0.0653 -0.0998 -0.0074
  847POPE   NH311635  16.825  11.214   5.474 -0.0303  0.0831  0.0950
  847POPE   PO411636  16.904  11.438   5.796 -0.1004 -0.0170 -0.0725
  847POPE   GL111637  16.663  11.662   6.172  0.1767 -0.2885 -0.1161
  847POPE   GL211638  16.284  11.551   6.172 -0.1287  0.0127  0.0151
  847POPE   C1A11639  16.749  11.918   6.494  0.0764  0.0088  0.1607
  847POPE   D2A11640  16.518  11.961   6.842  0.0588  0.0725 -0.0870
  847POPE   C3A11641  16.530  11.714   7.205 -0.3638 -0.2244 -0.2017
  847POPE   C4A11642  16.319  11.779   7.588 -0.2671 -0.0381  0.0194
  847POPE   C1B11643  16.340  11.603   6.527  0.0797  0.0977 -0.1441
  847POPE   C2B11644  16.195  11.566   6.892 -0.0300  0.2447  0.1566
  847POPE   C3B11645  15.988  11.360   7.179 -0.3124  0.0796  0.0346
  847POPE   C4B11646  15.663  11.153   7.519  0.2273  0.1119 -0.0881
  848POPE   NH311647   0.552  15.253   5.404  0.3200  0.1481  0.0155
  848POPE   PO411648   0.143  15.170   5.537 -0.0150  0.0608 -0.3239
  848POPE   GL111649  -0.126  15.259   5.861  0.6866  0.0956 -0.0840
  848POPE   GL211650  -0.233  15.577   6.002 -0.1938  0.0535  0.2429
  848POPE   C1A11651  -0.082  15.214   6.370  0.1125  0.0184  0.2612
  848POPE   D2A11652   0.018  15.002   6.794  0.0874 -0.0125 -0.1803
  848POPE   C3A11653   0.314  15.283   7.039  0.1880 -0.1313  0.0598
  848POPE   C4A11654   0.540  15.579   7.078 -0.1478  0.0833  0.2003
  848POPE   C1B11655  -0.503  15.540   6.332  0.2829  0.1289 -0.3057
  848POPE   C2B11656  -0.933  15.530   6.566  0.1136  0.0172  0.3493
  848POPE   C3B11657  -1.138  15.263   6.905 -0.0462 -0.1136 -0.1978
  848POPE   C4B11658  -1.055  15.234   7.364 -0.2494 -0.0099 -0.1644
  849POPE   NH311659  17.315  11.734   5.733 -0.0059  0.0182  0.0280
  849POPE   PO411660  17.726  11.663   5.760  0.1601  0.4335  0.3637
  849POPE   GL111661  17.624  11.780   6.119  0.0604  0.1283 -0.2681
  849POPE   GL211662  17.520  12.057   6.048 -0.1712  0.0604 -0.0583
  849POPE   C1A11663  17.604  11.600   6.484 -0.1893 -0.1256  0.0147
  849POPE   D2A11664  17.814  11.421   6.887  0.0311  0.0017 -0.1792
  849POPE   C3A11665  17.992  11.599   7.184 -0.2028  0.2409 -0.0637
  849POPE   C4A11666  18.040  11.622   7.592  0.1867 -0.4568  0.1137
  849POPE   C1B11667  17.549  12.113   6.464 -0.0290 -0.3361  0.1245
  849POPE   C2B11668  17.313  11.987   6.641 -0.1284  0.0327 -0.2918
  849POPE   C3B11669  17.002  12.242   6.893  0.2439 -0.0509  0.0284
  849POPE   C4B11670  16.736  12.527   7.030 -0.2938 -0.2966  0.1039
  850POPE   NH311671   8.122  13.742   6.257  0.2266 -0.3598  0.0663
  850POPE   PO411672   7.824  13.442   6.128  0.2113 -0.1312  0.1644
  850POPE   GL111673   7.728  13.544   6.548 -0.1973 -0.1087 -0.1503
  850POPE   GL211674   7.675  13.869   6.585  0.1264  0.1337  0.0413
  850POPE   C1A11675   7.946  13.587   6.926 -0.0587  0.1437 -0.2822
  850POPE   D2A11676   8.120  13.675   7.310 -0.1849 -0.3880  0.2481
  850POPE   C3A11677   7.892  13.542   7.740  0.1909  0.1089 -0.0388
  850POPE   C4A11678   7.548  13.415   7.997  0.0824  0.3386 -0.2484
  850POPE   C1B11679   7.934  14.081   6.922  0.1697  0.0783  0.1549
  850POPE   C2B11680   7.772  14.016   7.459  0.0480  0.0001  0.1516
  850POPE   C3B11681   7.714  13.957   7.941  0.2058  0.1303  0.1665
  850POPE   C4B11682   7.558  13.883   8.267  0.2900 -0.3723  0.0636
  851POPE   NH311683  13.680   6.207   6.125 -0.1397 -0.1495  0.1939
  851POPE   PO411684  13.522   6.552   5.990 -0.0162 -0.1000 -0.1279
  851POPE   GL111685  13.541   6.646   6.382 -0.1906  0.0686 -0.1859
  851POPE   GL211686  13.814   6.521   6.546 -0.0006 -0.0453 -0.0315
  851POPE   C1A11687  13.500   6.847   6.817  0.2954  0.3126  0.1171
  851POPE   D2A11688  13.438   6.799   7.316 -0.0427 -0.0468  0.2519
  851POPE   C3A11689  13.301   7.126   7.614 -0.2956 -0.0163  0.1892
  851POPE   C4A11690  13.227   7.423   7.994 -0.1381  0.3511 -0.1909
  851POPE   C1B11691  13.961   6.635   6.974 -0.1338 -0.1162  0.0980
  851POPE   C2B11692  14.100   6.716   7.368 -0.4714  0.2020  0.0248
  851POPE   C3B11693  14.430   6.760   7.652 -0.1644  0.3130 -0.0595
  851POPE   C4B11694  14.635   7.020   7.896 -0.1010 -0.1739  0.2951
  852POPE   NH311695   5.194   8.165   6.235  0.0384 -0.0953 -0.2230
  852POPE   PO411696   5.014   7.870   5.998  0.0180 -0.2578  0.2617
  852POPE   GL111697   4.725   7.735   6.368 -0.3595  0.0485  0.0688
  852POPE   GL211698   4.637   7.969   6.481 -0.1532  0.0735 -0.3457
  852POPE   C1A11699   4.618   7.743   6.873  0.2234 -0.0862 -0.0999
  852POPE   D2A11700   4.540   7.482   7.264  0.0935 -0.1800 -0.1372
  852POPE   C3A11701   4.869   7.711   7.503 -0.1152  0.0193  0.0180
  852POPE   C4A11702   5.246   8.062   7.441  0.2227 -0.2490 -0.2162
  852POPE   C1B11703   4.823   8.405   6.736  0.0443 -0.1019 -0.0508
  852POPE   C2B11704   4.917   8.895   6.877  0.0145 -0.0507 -0.1250
  852POPE   C3B11705   4.890   9.150   7.262 -0.0997 -0.4282 -0.0195
  852POPE   C4B11706   4.837   9.333   7.538  0.2823  0.2182 -0.0237
  853POPE   NH311707   4.468  15.073   5.989 -0.2511 -0.0554  0.3643
  853POPE   PO411708   4.491  14.554   5.915  0.1167  0.0665 -0.1190
  853POPE   GL111709   4.694  14.649   6.349  0.1023 -0.4044 -0.1389
  853POPE   GL211710   5.060  14.490   6.469 -0.1533  0.0944  0.1064
  853POPE   C1A11711   4.741  14.777   6.752  0.1370 -0.1155  0.2658
  853POPE   D2A11712   4.695  15.009   7.170 -0.2126 -0.0409 -0.0314
  853POPE   C3A11713   4.513  14.815   7.489 -0.0849  0.3132 -0.0137
  853POPE   C4A11714   4.458  14.944   7.904 -0.0184 -0.1872  0.1255
  853POPE   C1B11715   5.246  14.754   6.764 -0.0917 -0.1646  0.0996
  853POPE   C2B11716   5.217  14.911   7.175  0.0772 -0.1502 -0.1112
  853POPE   C3B11717   5.278  15.075   7.539 -0.1147 -0.1803  0.0302
  853POPE   C4B11718   5.295  15.507   7.839  0.0535 -0.0480 -0.0206
  854POPE   NH311719  10.662  12.504   6.370  0.0068  0.2216 -0.0439
  854POPE   PO411720  10.799  12.227   6.230 -0.1082  0.0506  0.3677
  854POPE   GL111721  10.920  12.098   6.626 -0.0640 -0.0384 -0.5805
  854POPE   GL211722  11.075  12.262   6.648  0.1707 -0.1300 -0.1161
  854POPE   C1A11723  11.000  11.842   6.989  0.1070 -0.2175 -0.0292
  854POPE   D2A11724  11.140  11.720   7.280  0.0476 -0.0279  0.0731
  854POPE   C3A11725  11.253  11.912   7.749 -0.2466 -0.2555 -0.0604
  854POPE   C4A11726  11.185  11.873   8.159  0.0368 -0.1380  0.3017
  854POPE   C1B11727  11.253  12.400   6.942 -0.0094 -0.1685 -0.2069
  854POPE   C2B11728  11.393  12.161   7.306 -0.2574 -0.0800  0.0335
  854POPE   C3B11729  11.518  12.449   7.692  0.0854 -0.0728  0.0066
  854POPE   C4B11730  11.297  12.428   8.071  0.0757 -0.0954 -0.0684
  855POPE   NH311731  12.872  10.985   6.233  0.1988 -0.1005  0.2977
  855POPE   PO411732  12.637  11.395   6.250  0.1107  0.1882  0.2719
  855POPE   GL111733  12.467  11.352   6.691  0.2844 -0.2366  0.4111
  855POPE   GL211734  12.580  11.172   6.891 -0.1229 -0.1654 -0.1300
  855POPE   C1A11735  12.160  11.391   7.109  0.0601 -0.1866 -0.3175
  855POPE   D2A11736  12.199  11.243   7.573  0.0585  0.0648 -0.0409
  855POPE   C3A11737  12.259  11.205   7.901 -0.2920 -0.2620 -0.2341
  855POPE   C4A11738  12.529  11.075   8.170 -0.0733  0.0775 -0.0045
  855POPE   C1B11739  12.693  11.200   7.272  0.0197  0.2909  0.0709
  855POPE   C2B11740  12.658  10.961   7.650  0.1330 -0.0425 -0.0092
  855POPE   C3B11741  12.419  10.700   7.890  0.0225  0.0973 -0.0677
  855POPE   C4B11742  12.362  10.626   8.316  0.0088 -0.0225 -0.0493
  856POPE   NH311743  12.331  15.172   6.508 -0.3589  0.1986 -0.4658
  856POPE   PO411744  12.523  14.807   6.390  0.3412  0.0224 -0.0621
  856POPE   GL111745  12.447  14.766   6.786 -0.0583 -0.0033 -0.0662
  856POPE   GL211746  12.257  14.513   6.852  0.1514 -0.0183  0.0802
  856POPE   C1A11747  12.600  14.927   7.203 -0.3881  0.3950 -0.1195
  856POPE   D2A11748  12.648  14.880   7.746  0.0661  0.1434 -0.3039
  856POPE   C3A11749  12.908  15.031   7.981  0.0669 -0.2037 -0.0225
  856POPE   C4A11750  13.247  15.433   8.028  0.1926 -0.0773 -0.2455
  856POPE   C1B11751  12.247  14.572   7.221 -0.0618  0.0372 -0.0325
  856POPE   C2B11752  12.227  14.520   7.680  0.2700 -0.2343  0.1357
  856POPE   C3B11753  12.283  14.606   8.012  0.0767  0.0445  0.2761
  856POPE   C4B11754  12.627  14.746   8.278  0.1998  0.1681  0.1416
  857POPE   NH311755   8.910  11.214   6.238 -0.0974 -0.2362  0.2935
  857POPE   PO411756   8.717  10.900   6.187 -0.0184 -0.1972  0.2526
  857POPE   GL111757   8.922  10.875   6.590  0.2540  0.1073 -0.1138
  857POPE   GL211758   8.756  11.111   6.706  0.1385 -0.1728 -0.2919
  857POPE   C1A11759   9.248  10.620   6.721 -0.0174  0.0240 -0.0104
  857POPE   D2A11760   9.693  10.453   6.756  0.3131 -0.0767  0.1919
  857POPE   C3A11761   9.959  10.613   6.855 -0.0741  0.3056 -0.1192
  857POPE   C4A11762  10.292  10.883   6.772 -0.1690 -0.0148  0.0808
  857POPE   C1B11763   8.705  11.308   7.072  0.1281 -0.1258  0.1168
  857POPE   C2B11764   8.715  11.307   7.448 -0.1342 -0.0413  0.1026
  857POPE   C3B11765   8.553  11.313   7.842 -0.1760 -0.0844 -0.0485
  857POPE   C4B11766   8.515  11.493   8.231 -0.6402 -0.1514 -0.1833
  858POPE   NH311767  15.406   6.432   6.107 -0.1488  0.3680  0.2716
  858POPE   PO411768  15.017   6.424   6.215  0.0610  0.0224 -0.0046
  858POPE   GL111769  15.094   6.785   6.445  0.3697  0.1991  0.0238
  858POPE   GL211770  15.045   7.052   6.376  0.0172  0.1568 -0.0426
  858POPE   C1A11771  15.380   6.846   6.726 -0.0290  0.0335  0.0110
  858POPE   D2A11772  15.586   6.604   7.056 -0.2912 -0.0007 -0.0168
  858POPE   C3A11773  15.793   6.983   7.267  0.3458  0.1907  0.0968
  858POPE   C4A11774  15.849   7.367   7.616  0.0326 -0.1168  0.1490
  858POPE   C1B11775  15.140   7.362   6.722 -0.1687 -0.1731  0.0122
  858POPE   C2B11776  15.080   7.521   7.131 -0.1532 -0.1410  0.0987
  858POPE   C3B11777  14.961   7.784   7.433  0.1918  0.0603  0.0739
  858POPE   C4B11778  14.781   8.007   7.784 -0.0464 -0.2049  0.1219
  859POPE   NH311779   1.427  15.097   5.805  0.0341 -0.0777 -0.1300
  859POPE   PO411780   1.713  15.468   5.781  0.1386 -0.2631  0.0687
  859POPE   GL111781   1.849  15.302   6.151 -0.2869  0.0448  0.0940
  859POPE   GL211782   1.540  15.199   6.251 -0.2534 -0.0458 -0.0879
  859POPE   C1A11783   2.080  15.371   6.515 -0.0895  0.1843  0.2892
  859POPE   D2A11784   1.918  15.319   6.910 -0.3147  0.1155  0.0577
  859POPE   C3A11785   1.549  15.340   7.116  0.0487 -0.0689 -0.2264
  859POPE   C4A11786   1.429  15.586   7.459 -0.0319 -0.1069  0.1832
  859POPE   C1B11787   1.496  15.044   6.656 -0.1880 -0.1661 -0.0644
  859POPE   C2B11788   1.310  14.976   6.981  0.0205 -0.3362  0.3631
  859POPE   C3B11789   1.290  15.073   7.470 -0.1046  0.0154 -0.1126
  859POPE   C4B11790   1.365  15.252   7.859 -0.2148  0.0607  0.5759
  860POPE   NH311791  11.396   2.478   6.623  0.0319  0.2635  0.0029
  860POPE   PO411792  11.002   2.230   6.579  0.1310  0.1166  0.1702
  860POPE   GL111793  11.187   2.144   6.966  0.1183  0.0889 -0.0272
  860POPE   GL211794  11.510   2.074   7.008 -0.0899 -0.1291  0.3313
  860POPE   C1A11795  11.190   2.031   7.382  0.0151 -0.1612 -0.0102
  860POPE   D2A11796  10.992   2.185   7.788  0.0364  0.0975  0.0955
  860POPE   C3A11797  10.981   1.821   7.977 -0.0637  0.1393  0.0463
  860POPE   C4A11798  10.931   1.648   8.254 -0.1014  0.1013  0.0044
  860POPE   C1B11799  11.811   1.762   7.216  0.0772 -0.0034  0.2532
  860POPE   C2B11800  12.227   1.716   7.462 -0.2186  0.2298 -0.1403
  860POPE   C3B11801  12.361   1.357   7.581 -0.2289  0.0319 -0.0711
  860POPE   C4B11802  12.220   1.133   7.911 -0.0274 -0.0773 -0.0404
  861POPE   NH311803  11.100  17.511   6.607  0.2201  0.2327  0.2485
  861POPE   PO411804  11.398  17.180   6.647 -0.2073 -0.1190  0.1838
  861POPE   GL111805  11.404  17.362   6.993 -0.2117  0.1902 -0.0351
  861POPE   GL211806  11.459  17.674   6.947 -0.0716 -0.1367  0.1283
  861POPE   C1A11807  11.334  17.433   7.481  0.1250  0.0004 -0.0574
  861POPE   D2A11808  11.267  17.491   7.870  0.2857 -0.0018  0.0959
  861POPE   C3A11809  10.978  17.602   8.132 -0.0115  0.1536  0.0469
  861POPE   C4A11810  10.642  17.798   8.477  0.0381  0.1544  0.1087
  861POPE   C1B11811  11.891  17.487   7.128  0.3365  0.0009  0.0558
  861POPE   C2B11812  12.235  17.276   7.305 -0.0245  0.1766  0.0804
  861POPE   C3B11813  12.587  17.271   7.659  0.1018  0.1407 -0.2016
  861POPE   C4B11814  12.634  17.162   8.038 -0.0182 -0.1897  0.2407
  862POPE   NH311815   3.372  14.721   6.016 -0.0022 -0.2624 -0.1753
  862POPE   PO411816   3.112  14.986   5.980  0.1048  0.1462 -0.0950
  862POPE   GL111817   3.078  14.912   6.476 -0.0011  0.1251  0.1224
  862POPE   GL211818   2.887  14.721   6.585  0.0459 -0.2187 -0.1931
  862POPE   C1A11819   3.289  14.785   6.874  0.0056  0.1406 -0.0067
  862POPE   D2A11820   3.247  14.661   7.241 -0.0255 -0.0885  0.1697
  862POPE   C3A11821   3.160  14.823   7.617 -0.1026  0.2003 -0.0676
  862POPE   C4A11822   3.001  14.793   8.061  0.0228  0.2715 -0.2833
  862POPE   C1B11823   2.813  14.863   6.947  0.1492 -0.1690  0.1950
  862POPE   C2B11824   2.766  14.925   7.318  0.1955  0.0911  0.1366
  862POPE   C3B11825   2.645  14.963   7.724  0.0053 -0.1620  0.0290
  862POPE   C4B11826   2.516  14.714   8.073 -0.1204 -0.2333 -0.3355
  863POPE   NH311827  16.622   3.778   6.026  0.0546 -0.0522  0.2084
  863POPE   PO411828  16.287   3.929   5.859 -0.4237 -0.0926 -0.3561
  863POPE   GL111829  16.280   4.047   6.276  0.4137 -0.0596 -0.1058
  863POPE   GL211830  16.432   3.875   6.498  0.0633 -0.2351  0.0182
  863POPE   C1A11831  16.264   4.522   6.430 -0.0909  0.2459  0.1551
  863POPE   D2A11832  16.333   4.582   6.809  0.1120 -0.1102 -0.3858
  863POPE   C3A11833  16.009   4.813   6.942 -0.0933 -0.0710 -0.1317
  863POPE   C4A11834  15.648   4.725   6.886 -0.0603  0.0946 -0.0835
  863POPE   C1B11835  16.321   4.046   6.913  0.0022 -0.0798  0.0724
  863POPE   C2B11836  16.224   3.910   7.277  0.0892  0.3331 -0.2053
  863POPE   C3B11837  16.280   3.721   7.718 -0.3662  0.0340  0.4527
  863POPE   C4B11838  16.595   3.710   8.124 -0.2280  0.0650  0.2178
  864POPE   NH311839   3.191  13.058   6.082  0.0973 -0.1662  0.0506
  864POPE   PO411840   2.742  13.229   5.948 -0.0056 -0.0284  0.0783
  864POPE   GL111841   2.783  13.312   6.341  0.0409 -0.0124  0.0523
  864POPE   GL211842   2.509  13.203   6.474 -0.0865  0.0583 -0.0896
  864POPE   C1A11843   2.855  13.427   6.799 -0.1212  0.0161  0.1876
  864POPE   D2A11844   3.113  13.378   7.224  0.1748  0.0789  0.0424
  864POPE   C3A11845   3.073  13.066   7.439  0.1601 -0.0016  0.4222
  864POPE   C4A11846   3.291  12.842   7.550  0.2233  0.0381 -0.1203
  864POPE   C1B11847   2.334  13.423   6.924  0.0813  0.0116  0.1908
  864POPE   C2B11848   2.212  13.426   7.314 -0.0235  0.0656  0.1117
  864POPE   C3B11849   2.187  13.181   7.616 -0.0428 -0.2055 -0.0693
  864POPE   C4B11850   2.221  12.891   7.958  0.0989 -0.3832  0.1489
  865POPE   NH311851   4.962   0.089   6.023  0.1993 -0.2902 -0.3152
  865POPE   PO411852   5.269  -0.180   6.248 -0.1666  0.1481  0.1468
  865POPE   GL111853   5.363  -0.231   6.696 -0.2379  0.1925  0.1108
  865POPE   GL211854   5.529  -0.529   6.860  0.1273  0.2177 -0.0420
  865POPE   C1A11855   5.291  -0.196   7.155  0.0085 -0.2393  0.4055
  865POPE   D2A11856   5.205   0.024   7.572  0.2791  0.2539 -0.1010
  865POPE   C3A11857   5.132  -0.271   7.900 -0.2753 -0.1106 -0.0215
  865POPE   C4A11858   5.319  -0.421   8.301  0.2089  0.1402 -0.2372
  865POPE   C1B11859   5.314  -0.705   7.228  0.0326  0.2547  0.1709
  865POPE   C2B11860   5.077  -0.837   7.575 -0.0886 -0.0440  0.0709
  865POPE   C3B11861   4.843  -0.988   7.966 -0.0736 -0.0340 -0.1698
  865POPE   C4B11862   4.668  -1.109   8.359 -0.0806 -0.2073  0.0696
  866POPE   NH311863  16.200   5.722   5.769 -0.2054 -0.0397  0.0390
  866POPE   PO411864  16.644   5.620   5.746 -0.3233 -0.0223  0.1716
  866POPE   GL111865  16.519   5.548   6.147 -0.0024  0.0056  0.1715
  866POPE   GL211866  16.262   5.313   6.074  0.3845 -0.1703 -0.2888
  866POPE   C1A11867  16.538   5.702   6.547 -0.1314 -0.1195  0.2238
  866POPE   D2A11868  16.678   5.964   6.855  0.2552 -0.3535 -0.3286
  866POPE   C3A11869  16.397   6.270   6.971 -0.2535  0.0989  0.0251
  866POPE   C4A11870  16.068   6.628   7.031  0.0498 -0.1437  0.0271
  866POPE   C1B11871  16.185   5.092   6.451  0.2874 -0.2616 -0.1901
  866POPE   C2B11872  16.405   5.107   6.826 -0.3280  0.0260 -0.0595
  866POPE   C3B11873  16.382   4.978   7.239  0.0205  0.2468  0.0022
  866POPE   C4B11874  16.375   4.937   7.731 -0.0772 -0.1433 -0.0770
  867POPE   NH311875  15.026   8.981   5.930  0.0792 -0.2317 -0.1051
  867POPE   PO411876  14.700   8.651   6.093  0.0551 -0.1236  0.2989
  867POPE   GL111877  14.908   8.767   6.501 -0.0986 -0.1669 -0.1776
  867POPE   GL211878  14.773   8.527   6.615 -0.0715 -0.2317 -0.1914
  867POPE   C1A11879  15.281   8.658   6.809 -0.2749 -0.2937 -0.1587
  867POPE   D2A11880  15.209   8.545   7.166 -0.3794 -0.2872 -0.1084
  867POPE   C3A11881  15.412   8.780   7.541  0.0673  0.2650 -0.0220
  867POPE   C4A11882  15.517   9.043   7.874  0.2796 -0.2976 -0.0538
  867POPE   C1B11883  14.777   8.833   6.993  0.2788 -0.3044 -0.2835
  867POPE   C2B11884  14.883   8.887   7.382  0.2890 -0.1895  0.1394
  867POPE   C3B11885  14.733   8.886   7.713  0.0963 -0.0216  0.0968
  867POPE   C4B11886  14.507   8.795   7.990  0.1253 -0.0036  0.0892
  868POPE   NH311887   6.309   0.609   6.162 -0.1553  0.0504  0.1199
  868POPE   PO411888   6.212   0.115   6.067 -0.1111  0.1947  0.0076
  868POPE   GL111889   6.183   0.208   6.486  0.1014 -0.3709  0.0398
  868POPE   GL211890   6.376   0.437   6.619 -0.1868  0.0769 -0.2801
  868POPE   C1A11891   6.145   0.274   6.971 -0.2477 -0.0840  0.1604
  868POPE   D2A11892   5.988   0.415   7.321 -0.1593 -0.0945 -0.0568
  868POPE   C3A11893   5.664   0.300   7.601  0.3110  0.4178  0.2668
  868POPE   C4A11894   5.639  -0.024   7.846  0.1133 -0.1708 -0.0864
  868POPE   C1B11895   6.637   0.319   6.883  0.0475  0.0953 -0.3256
  868POPE   C2B11896   6.551   0.306   7.338 -0.1004 -0.0138  0.0370
  868POPE   C3B11897   6.334   0.307   7.653  0.2320 -0.0154 -0.1591
  868POPE   C4B11898   6.070   0.277   7.916  0.2258 -0.2354 -0.1521
  869POPE   NH311899   8.230  10.026   6.293 -0.1521 -0.0330 -0.0039
  869POPE   PO411900   8.640  10.035   6.366 -0.1945  0.0537  0.2169
  869POPE   GL111901   8.715  10.130   6.809  0.0760  0.0428  0.0146
  869POPE   GL211902   8.894  10.326   6.844  0.1507 -0.0635 -0.0395
  869POPE   C1A11903   8.907   9.965   7.145  0.0828  0.1773 -0.1811
  869POPE   D2A11904   9.198  10.002   7.504  0.0454 -0.3055  0.2642
  869POPE   C3A11905   9.606  10.232   7.592  0.0848 -0.3299  0.1762
  869POPE   C4A11906   9.588  10.635   7.733 -0.0999  0.0200  0.1204
  869POPE   C1B11907   8.981  10.445   7.244 -0.1948 -0.0655  0.1185
  869POPE   C2B11908   9.024  10.468   7.731  0.0476  0.1579  0.0567
  869POPE   C3B11909   9.252  10.404   8.139 -0.0280  0.2549 -0.0750
  869POPE   C4B11910   9.652  10.573   8.233 -0.2744 -0.0936  0.1727
  870POPE   NH311911  16.989  12.428   5.706 -0.1503 -0.2326 -0.1849
  870POPE   PO411912  16.706  12.749   5.943  0.1176  0.0355  0.0075
  870POPE   GL111913  16.517  12.894   6.338  0.0103  0.0508  0.0445
  870POPE   GL211914  16.811  13.135   6.221  0.1829 -0.3314 -0.2395
  870POPE   C1A11915  16.461  12.845   6.749 -0.1376  0.1854 -0.2918
  870POPE   D2A11916  16.447  12.902   7.202  0.1394  0.0224  0.2709
  870POPE   C3A11917  16.406  12.438   7.336 -0.1559 -0.0517  0.0894
  870POPE   C4A11918  16.649  12.122   7.431 -0.1730  0.1566  0.3079
  870POPE   C1B11919  16.795  13.214   6.617  0.0671  0.0420 -0.1739
  870POPE   C2B11920  16.747  13.331   7.029 -0.0663 -0.1335 -0.1615
  870POPE   C3B11921  16.694  13.311   7.482 -0.0423  0.1657  0.0897
  870POPE   C4B11922  16.375  13.185   7.625 -0.0294  0.0908  0.2209
  871POPE   NH311923   8.172   4.580   6.511  0.0948  0.2855  0.1007
  871POPE   PO411924   8.462   4.604   6.265  0.0739 -0.1853 -0.0282
  871POPE   GL111925   8.619   4.831   6.640  0.0762  0.3271  0.1664
  871POPE   GL211926   8.297   5.060   6.709  0.0598 -0.0996  0.1536
  871POPE   C1A11927   8.829   4.999   6.953  0.1164 -0.1196  0.0635
  871POPE   D2A11928   8.845   5.084   7.318 -0.0176  0.2256  0.0390
  871POPE   C3A11929   9.106   4.882   7.578 -0.0835 -0.1088  0.2341
  871POPE   C4A11930   9.175   4.615   8.018  0.1862 -0.0511 -0.1924
  871POPE   C1B11931   8.325   5.041   7.152  0.1714  0.3725 -0.2722
  871POPE   C2B11932   8.399   4.935   7.477 -0.2178  0.1756 -0.1672
  871POPE   C3B11933   8.676   5.017   7.866  0.2258  0.4627 -0.1033
  871POPE   C4B11934   8.537   5.146   8.259  0.0322  0.2394 -0.2207
  872YOPE   NH311935   8.815   8.697   6.398  0.0561 -0.3304 -0.1631
  872YOPE   PO411936   8.546   8.353   6.142 -0.2235 -0.0931 -0.0659
  872YOPE   GL111937   8.690   8.201   6.509 -0.2102 -0.1615  0.0767
  872YOPE   GL211938   8.635   7.847   6.642 -0.0173 -0.4034  0.2697
  872YOPE   C1A11939   9.014   8.054   6.962  0.1947 -0.1928 -0.2661
  872YOPE   D2A11940   8.945   7.945   7.444 -0.1301 -0.0691 -0.3581
  872YOPE   C3A11941   8.540   7.861   7.655  0.0620  0.1480 -0.0097
  872YOPE   C4A11942   8.196   7.814   7.999  0.0515  0.0321 -0.1400
  872YOPE   C1B11943   8.510   8.158   6.985  0.0182  0.1159 -0.1537
  872YOPE   C2B11944   8.238   8.139   7.401  0.0572 -0.2388  0.1806
  872YOPE   D3B11945   7.989   8.016   7.590 -0.1380  0.1625  0.0211
  872YOPE   C4B11946   7.636   7.676   7.803 -0.2989 -0.3666 -0.0643
  873YOPE   NH311947  13.458   8.622   6.458 -0.0353 -0.2137 -0.1556
  873YOPE   PO411948  13.230   8.207   6.350  0.0812  0.1739  0.0461
  873YOPE   GL111949  13.039   8.211   6.714  0.2433 -0.1402  0.2297
  873YOPE   GL211950  13.107   8.480   6.811 -0.0705 -0.0752  0.1320
  873YOPE   C1A11951  12.898   8.049   7.073  0.0904  0.1431  0.1678
  873YOPE   D2A11952  12.712   8.097   7.526 -0.0550  0.1753 -0.2700
  873YOPE   C3A11953  12.894   8.237   8.004 -0.0516 -0.0082 -0.2770
  873YOPE   C4A11954  13.110   8.324   8.431  0.2402 -0.2647  0.1994
  873YOPE   C1B11955  12.840   8.499   7.188  0.2708  0.1694  0.0704
  873YOPE   C2B11956  12.851   8.630   7.570 -0.0573  0.0132 -0.0060
  873YOPE   D3B11957  12.995   8.693   8.010  0.0837  0.0002 -0.1099
  873YOPE   C4B11958  13.046   8.877   8.413 -0.2107  0.1379 -0.1247
  874YOPE   NH311959  15.049   8.316   6.175 -0.2657  0.1269  0.2344
  874YOPE   PO411960  15.369   8.117   6.045 -0.0252 -0.2482 -0.1481
  874YOPE   GL111961  15.457   8.250   6.500 -0.0260 -0.5024  0.0126
  874YOPE   GL211962  15.165   8.233   6.673  0.0432  0.1793  0.0915
  874YOPE   C1A11963  15.653   8.383   6.906  0.0920  0.0377 -0.1114
  874YOPE   D2A11964  15.797   8.464   7.337  0.2606  0.0131  0.2495
  874YOPE   C3A11965  15.883   8.611   7.686 -0.3316  0.0602  0.1870
  874YOPE   C4A11966  15.911   8.381   8.082  0.2401  0.0608  0.1057
  874YOPE   C1B11967  15.266   8.001   7.106 -0.0179 -0.2553  0.1764
  874YOPE   C2B11968  15.400   8.114   7.469 -0.1845 -0.1341 -0.1622
  874YOPE   D3B11969  15.450   8.374   7.937 -0.0331  0.0752 -0.2304
  874YOPE   C4B11970  15.380   8.668   8.284 -0.0517  0.1443 -0.1993
  875YOPE   NH311971   7.417   7.743   6.205 -0.1371 -0.0982  0.4045
  875YOPE   PO411972   7.186   8.141   6.273  0.3956 -0.0141 -0.0451
  875YOPE   GL111973   7.016   8.380   6.683 -0.3354  0.0689 -0.1269
  875YOPE   GL211974   7.302   8.634   6.693 -0.1563 -0.2015 -0.0961
  875YOPE   C1A11975   6.861   8.454   7.131  0.1257  0.0370 -0.2992
  875YOPE   D2A11976   6.798   8.411   7.592 -0.0466  0.0983 -0.1999
  875YOPE   C3A11977   6.988   8.044   7.885 -0.3850 -0.2757  0.0966
  875YOPE   C4A11978   7.278   7.942   8.197  0.0907  0.2033 -0.1775
  875YOPE   C1B11979   7.258   8.788   7.097  0.0796 -0.0208 -0.2410
  875YOPE   C2B11980   7.261   8.571   7.448  0.1453  0.0417 -0.1737
  875YOPE   D3B11981   7.258   8.510   7.901  0.0875  0.0573 -0.2532
  875YOPE   C4B11982   7.549   8.468   8.320  0.1983 -0.0754  0.3655
  876YOPE   NH311983   6.872   3.017   6.453 -0.0011 -0.0547 -0.2287
  876YOPE   PO411984   7.071   3.385   6.276  0.2308  0.0952  0.4508
  876YOPE   GL111985   7.345   3.288   6.621  0.0827 -0.1323 -0.1545
  876YOPE   GL211986   7.140   3.218   6.880 -0.0721  0.1665  0.2477
  876YOPE   C1A11987   7.810   3.388   6.842 -0.2492 -0.1023 -0.0208
  876YOPE   D2A11988   7.942   3.751   6.950  0.0688 -0.0112 -0.1018
  876YOPE   C3A11989   8.282   3.752   7.212  0.0693 -0.0088  0.0166
  876YOPE   C4A11990   8.472   3.997   7.520  0.1741 -0.0509  0.0922
  876YOPE   C1B11991   7.462   3.236   7.179  0.0057 -0.0089 -0.1258
  876YOPE   C2B11992   7.440   3.294   7.651 -0.1222 -0.0169  0.1858
  876YOPE   D3B11993   7.359   3.431   8.050  0.2063  0.1125  0.0240
  876YOPE   C4B11994   7.127   3.651   8.420 -0.0648  0.1478 -0.1818
  877YOPE   NH311995   0.023   5.477   5.677  0.0225  0.0005  0.0923
  877YOPE   PO411996   0.376   5.474   5.928  0.1102  0.1590 -0.2493
  877YOPE   GL111997   0.368   5.571   6.344  0.0646 -0.1154  0.0982
  877YOPE   GL211998   0.380   5.288   6.516  0.2884 -0.0283  0.0039
  877YOPE   C1A11999   0.552   5.837   6.594 -0.0413  0.0505  0.2997
  877YOPE   D2A12000   0.534   5.929   7.099 -0.0840 -0.1567 -0.1014
  877YOPE   C3A12001   0.684   6.279   7.289  0.0945 -0.0724  0.0029
  877YOPE   C4A12002   0.768   6.507   7.629 -0.0036  0.0955  0.2105
  877YOPE   C1B12003   0.370   5.511   6.895  0.0009 -0.0960 -0.2071
  877YOPE   C2B12004   0.035   5.697   7.045 -0.3388  0.0968 -0.3969
  877YOPE   D3B12005  -0.170   6.025   7.322  0.1119 -0.3691 -0.1049
  877YOPE   C4B12006  -0.510   6.082   7.603  0.1033  0.1417 -0.0825
  878YOPE   NH312007   2.899  14.474   6.090  0.0927  0.0324  0.1263
  878YOPE   PO412008   3.108  14.055   6.169  0.0490  0.0544  0.0823
  878YOPE   GL112009   3.187  14.065   6.563 -0.2511 -0.0215 -0.0667
  878YOPE   GL212010   3.271  14.428   6.569 -0.3449 -0.0591 -0.0565
  878YOPE   C1A12011   3.088  13.870   7.014 -0.0187  0.0905  0.0090
  878YOPE   D2A12012   2.998  13.876   7.480  0.3403 -0.2363  0.0963
  878YOPE   C3A12013   3.031  13.504   7.739 -0.1435  0.1993  0.0264
  878YOPE   C4A12014   3.137  13.105   8.028  0.2884 -0.0683  0.1348
  878YOPE   C1B12015   2.917  14.324   6.884  0.1648 -0.2691  0.2048
  878YOPE   C2B12016   2.832  14.392   7.260 -0.1507 -0.1008 -0.0268
  878YOPE   D3B12017   2.837  14.424   7.715  0.1626  0.0034  0.1474
  878YOPE   C4B12018   3.235  14.337   7.995  0.0957 -0.2176  0.0520
  879YOPE   NH312019  16.536  17.136   5.572  0.1652 -0.0067  0.2504
  879YOPE   PO412020  16.842  17.179   5.990  0.2022 -0.1360 -0.0110
  879YOPE   GL112021  16.950  17.245   6.368  0.1505  0.1507 -0.0163
  879YOPE   GL212022  17.102  17.465   6.476 -0.1994 -0.2639 -0.1849
  879YOPE   C1A12023  16.821  17.021   6.735 -0.0109 -0.1275 -0.1153
  879YOPE   D2A12024  16.647  16.704   7.150 -0.0607  0.1003  0.2262
  879YOPE   C3A12025  16.907  16.457   7.393 -0.1537  0.0073 -0.0595
  879YOPE   C4A12026  17.086  16.350   7.578  0.0840 -0.1859  0.2720
  879YOPE   C1B12027  17.093  17.487   6.912  0.0698  0.1812  0.0221
  879YOPE   C2B12028  17.264  17.353   7.265 -0.0160 -0.1467  0.1142
  879YOPE   D3B12029  17.290  17.176   7.618 -0.1239 -0.0125 -0.0882
  879YOPE   C4B12030  17.334  17.370   7.995 -0.1788 -0.0225  0.0128
  880YOPE   NH312031   8.481  15.456   6.589 -0.0492 -0.3007  0.0510
  880YOPE   PO412032   8.821  15.735   6.725  0.1035  0.0228  0.2501
  880YOPE   GL112033   8.948  15.927   7.088 -0.0600  0.0428  0.2203
  880YOPE   GL212034   8.597  16.105   7.226  0.1462  0.1171 -0.1266
  880YOPE   C1A12035   9.003  15.962   7.536  0.0360 -0.1617 -0.1750
  880YOPE   D2A12036   9.192  16.089   7.878  0.0467  0.3180  0.0429
  880YOPE   C3A12037   9.191  15.735   8.248 -0.1304 -0.1168 -0.1109
  880YOPE   C4A12038   9.395  15.446   8.591  0.3599 -0.1995 -0.2028
  880YOPE   C1B12039   8.321  16.089   7.474 -0.1180 -0.0343  0.2710
  880YOPE   C2B12040   8.055  16.305   7.606 -0.0314 -0.1662  0.1041
  880YOPE   D3B12041   7.988  16.236   8.082  0.0406 -0.1812 -0.0279
  880YOPE   C4B12042   8.215  16.159   8.455 -0.4738  0.0299 -0.2203
  881YOPE   NH312043   0.097   9.865   5.169 -0.0782 -0.0061  0.1777
  881YOPE   PO412044  -0.265   9.913   5.468  0.1408 -0.2456 -0.0825
  881YOPE   GL112045  -0.280   9.838   5.941 -0.0599 -0.1750 -0.0404
  881YOPE   GL212046  -0.203  10.147   5.960 -0.0467  0.1185 -0.1297
  881YOPE   C1A12047  -0.464   9.630   6.237  0.3453 -0.1066  0.2757
  881YOPE   D2A12048  -0.748   9.663   6.620  0.1318  0.1485  0.1107
  881YOPE   C3A12049  -0.608   9.512   7.085  0.1442 -0.4774  0.2277
  881YOPE   C4A12050  -0.704   9.508   7.504  0.1245 -0.1997 -0.1588
  881YOPE   C1B12051  -0.644  10.166   6.099  0.0667 -0.3617  0.2935
  881YOPE   C2B12052  -1.034  10.027   6.218 -0.1145 -0.3489 -0.0187
  881YOPE   D3B12053  -1.126   9.631   6.289 -0.0159 -0.0260 -0.0901
  881YOPE   C4B12054  -1.214   9.368   6.585  0.0309  0.0690  0.0661
  882YOPE   NH312055  15.386  10.051   5.824  0.0185 -0.2693 -0.0990
  882YOPE   PO412056  15.754  10.173   5.530  0.1490 -0.4607 -0.0051
  882YOPE   GL112057  15.779  10.256   5.976 -0.2482 -0.0479  0.1909
  882YOPE   GL212058  15.865  10.521   6.047 -0.3584 -0.2119  0.3614
  882YOPE   C1A12059  15.674  10.150   6.421 -0.1329  0.0540  0.0590
  882YOPE   D2A12060  15.706  10.219   6.861  0.2232  0.0878 -0.0028
  882YOPE   C3A12061  16.068  10.061   6.856  0.3843  0.2094  0.0759
  882YOPE   C4A12062  16.352  10.046   7.122  0.1187  0.0973  0.1954
  882YOPE   C1B12063  16.219  10.447   6.257  0.2969  0.0577  0.0652
  882YOPE   C2B12064  16.471  10.459   6.620 -0.0713 -0.1901 -0.0839
  882YOPE   D3B12065  16.712  10.460   6.978  0.2745  0.0926  0.1481
  882YOPE   C4B12066  17.111  10.440   7.247 -0.2526  0.0573  0.2678
  883YOPE   NH312067  16.098  16.158   5.833  0.0247 -0.0511 -0.2248
  883YOPE   PO412068  15.739  16.469   5.746  0.1339 -0.3080  0.0202
  883YOPE   GL112069  15.904  16.720   6.036  0.3605 -0.1766  0.0259
  883YOPE   GL212070  15.865  16.962   6.216 -0.2073 -0.2019  0.2464
  883YOPE   C1A12071  15.893  16.647   6.534  0.0819  0.1016 -0.0248
  883YOPE   D2A12072  15.926  16.805   6.979 -0.0903 -0.0328 -0.1657
  883YOPE   C3A12073  16.098  16.687   7.223 -0.4823  0.0403 -0.0808
  883YOPE   C4A12074  15.913  16.389   7.520  0.0228 -0.3961 -0.0054
  883YOPE   C1B12075  16.193  17.069   6.562  0.0914  0.0263 -0.1490
  883YOPE   C2B12076  16.341  17.106   7.037 -0.0731 -0.3023  0.0668
  883YOPE   D3B12077  16.355  16.985   7.481  0.3123  0.0237 -0.0247
  883YOPE   C4B12078  16.449  16.628   7.669  0.0485 -0.3114 -0.2566
  884YOPE   NH312079  14.033   3.674   5.361  0.2813 -0.0148  0.0430
  884YOPE   PO412080  13.999   3.684   5.801  0.1778 -0.0814  0.3377
  884YOPE   GL112081  14.161   3.584   6.172  0.1313 -0.1894  0.0779
  884YOPE   GL212082  14.059   3.811   6.425 -0.1002  0.1254 -0.0370
  884YOPE   C1A12083  14.274   3.317   6.528  0.1343  0.2150 -0.0568
  884YOPE   D2A12084  14.553   2.966   6.564 -0.0934 -0.1221 -0.0249
  884YOPE   C3A12085  14.359   2.674   6.730  0.3344 -0.0594  0.0487
  884YOPE   C4A12086  14.010   2.883   6.947  0.0220  0.5429 -0.0224
  884YOPE   C1B12087  14.229   3.682   6.837 -0.3502  0.0278  0.2174
  884YOPE   C2B12088  14.353   3.248   7.017 -0.2985  0.2044 -0.0386
  884YOPE   D3B12089  14.174   3.050   7.382 -0.0789  0.0399 -0.3738
  884YOPE   C4B12090  14.209   2.860   7.797 -0.2617 -0.1383 -0.0482
  885YOPE   NH312091   5.493   6.846   6.370 -0.0876 -0.0029 -0.1326
  885YOPE   PO412092   5.208   7.138   6.483  0.0811 -0.1348  0.2338
  885YOPE   GL112093   4.960   7.156   6.853  0.0046  0.0244 -0.1183
  885YOPE   GL212094   4.644   6.965   6.850 -0.1096  0.1278 -0.2187
  885YOPE   C1A12095   5.042   7.299   7.300 -0.2439  0.0163  0.0890
  885YOPE   D2A12096   5.273   7.409   7.711 -0.0349 -0.0941  0.0853
  885YOPE   C3A12097   5.421   6.954   7.876  0.1146 -0.4213  0.1950
  885YOPE   C4A12098   5.405   6.626   7.821 -0.1783 -0.0372  0.2261
  885YOPE   C1B12099   4.542   6.975   7.306 -0.1950  0.3431 -0.3878
  885YOPE   C2B12100   4.665   7.249   7.681 -0.1018 -0.1241  0.0168
  885YOPE   D3B12101   4.886   7.213   8.051  0.1880  0.1003 -0.2173
  885YOPE   C4B12102   4.745   6.843   8.374  0.0041 -0.1963 -0.1667
  886YOPE   NH312103  10.684   8.956   6.600 -0.0826  0.0982 -0.2323
  886YOPE   PO412104  11.055   9.181   6.515 -0.2042  0.0948  0.0823
  886YOPE   GL112105  11.146   8.876   6.823  0.0464 -0.0017 -0.2516
  886YOPE   GL212106  10.947   9.104   7.065  0.1084  0.0915 -0.1544
  886YOPE   C1A12107  10.978   8.585   7.109 -0.0249  0.1198 -0.1100
  886YOPE   D2A12108  10.934   8.572   7.494 -0.1020  0.0022 -0.1532
  886YOPE   C3A12109  11.166   8.210   7.685 -0.0454  0.1566 -0.0695
  886YOPE   C4A12110  11.567   8.052   7.815  0.2929  0.1932  0.2417
  886YOPE   C1B12111  10.680   9.033   7.449 -0.3305  0.2283  0.1980
  886YOPE   C2B12112  10.353   9.077   7.831 -0.2229  0.1494 -0.0083
  886YOPE   D3B12113  10.191   8.857   8.147  0.1871  0.0420 -0.1638
  886YOPE   C4B12114  10.407   8.696   8.542  0.2243 -0.0323  0.0539
  887YOPE   NH312115   5.268   7.457   6.069 -0.3147 -0.3363  0.1241
  887YOPE   PO412116   5.508   7.811   6.185  0.0386  0.2771 -0.0186
  887YOPE   GL112117   5.260   7.706   6.541  0.0266  0.0626 -0.3458
  887YOPE   GL212118   5.080   7.607   6.691 -0.2875 -0.3320 -0.0727
  887YOPE   C1A12119   5.486   7.665   6.972 -0.2323  0.1089  0.1996
  887YOPE   D2A12120   5.679   7.664   7.332  0.1089 -0.1343  0.1128
  887YOPE   C3A12121   5.522   7.811   7.748 -0.1110  0.0152 -0.2424
  887YOPE   C4A12122   5.145   7.849   7.926 -0.0085 -0.1286  0.0759
  887YOPE   C1B12123   5.095   8.046   6.939 -0.3083  0.2057 -0.1291
  887YOPE   C2B12124   4.772   8.219   7.248 -0.1421  0.1559 -0.1648
  887YOPE   D3B12125   4.847   8.249   7.656  0.0665  0.0014  0.0122
  887YOPE   C4B12126   4.712   8.534   7.889  0.1867 -0.2384  0.2101
  888YOPE   NH312127  12.410   9.128   6.502  0.0818 -0.1149  0.2141
  888YOPE   PO412128  12.754   9.384   6.622  0.0116 -0.1144  0.0450
  888YOPE   GL112129  12.629   9.465   6.960  0.0734  0.1050  0.0425
  888YOPE   GL212130  12.379   9.329   6.949 -0.0621 -0.1476  0.0143
  888YOPE   C1A12131  12.618   9.459   7.379  0.1701  0.1448 -0.2730
  888YOPE   D2A12132  12.563   9.808   7.772  0.1344  0.2899  0.0587
  888YOPE   C3A12133  12.760  10.232   7.770  0.1884  0.1482 -0.0248
  888YOPE   C4A12134  13.040  10.414   7.523  0.2534  0.2013 -0.1125
  888YOPE   C1B12135  12.466   9.028   7.256  0.3673  0.0366 -0.2492
  888YOPE   C2B12136  12.544   8.982   7.659  0.0732 -0.0116 -0.0521
  888YOPE   D3B12137  12.662   9.068   8.211  0.1786  0.0928  0.0832
  888YOPE   C4B12138  12.820   9.351   8.553 -0.1266 -0.0261  0.0043
  889YOPE   NH312139   2.029  10.338   5.702 -0.0504 -0.2373  0.0829
  889YOPE   PO412140   2.093  10.782   5.458  0.0492 -0.0026 -0.0721
  889YOPE   GL112141   2.160  10.820   5.896 -0.1426  0.2418 -0.1091
  889YOPE   GL212142   2.223  11.241   5.951  0.0774  0.0581  0.3122
  889YOPE   C1A12143   2.171  10.871   6.358  0.0136  0.0338 -0.2183
  889YOPE   D2A12144   2.357  10.653   6.679  0.0481  0.0040  0.1413
  889YOPE   C3A12145   2.534  10.714   7.091 -0.0674 -0.2421 -0.4168
  889YOPE   C4A12146   2.520  10.884   7.525  0.1774  0.4125 -0.0036
  889YOPE   C1B12147   1.737  11.092   5.932  0.2519  0.0986 -0.1287
  889YOPE   C2B12148   1.294  11.120   5.912 -0.1032 -0.0215 -0.0282
  889YOPE   D3B12149   0.963  11.246   6.178 -0.1181 -0.5465 -0.0729
  889YOPE   C4B12150   0.823  11.197   6.547 -0.1915 -0.0140 -0.2875
  890YOPE   NH312151  16.385   6.608   6.054  0.0605 -0.0211  0.1468
  890YOPE   PO412152  15.952   6.575   6.131 -0.0604 -0.1188  0.0094
  890YOPE   GL112153  15.686   6.483   6.539  0.2440 -0.3149  0.0710
  890YOPE   GL212154  15.421   6.337   6.568  0.0876  0.0543  0.2730
  890YOPE   C1A12155  15.828   6.216   6.898 -0.0683 -0.1698  0.0857
  890YOPE   D2A12156  15.984   6.159   7.270 -0.1627 -0.0075 -0.3614
  890YOPE   C3A12157  16.411   6.128   7.461  0.4817  0.0383 -0.0054
  890YOPE   C4A12158  16.513   5.817   7.827 -0.0623  0.0191 -0.1418
  890YOPE   C1B12159  15.379   6.121   7.019  0.1899  0.0000 -0.0293
  890YOPE   C2B12160  15.445   6.101   7.461 -0.0907  0.1183 -0.1534
  890YOPE   D3B12161  15.620   6.035   7.785 -0.0932  0.0974 -0.0355
  890YOPE   C4B12162  16.086   5.961   7.951  0.0099  0.1423 -0.0961
  891YOPE   NH312163   9.962  14.698   6.494 -0.0178 -0.0830  0.1980
  891YOPE   PO412164   9.552  14.542   6.428 -0.2712 -0.1843  0.1773
  891YOPE   GL112165   9.588  14.404   6.806 -0.0223 -0.0359  0.0642
  891YOPE   GL212166   9.247  14.546   6.892 -0.2031 -0.0310  0.3272
  891YOPE   C1A12167   9.747  14.114   7.025  0.0517 -0.0465  0.0767
  891YOPE   D2A12168   9.700  13.870   7.326 -0.2967  0.0477 -0.2135
  891YOPE   C3A12169   9.846  13.969   7.871 -0.2103  0.0890  0.2080
  891YOPE   C4A12170   9.753  13.920   8.290  0.0602  0.1573 -0.3330
  891YOPE   C1B12171   9.079  14.602   7.297 -0.1305 -0.0725  0.1032
  891YOPE   C2B12172   9.153  14.683   7.668  0.0970 -0.0326  0.3284
  891YOPE   D3B12173   9.105  14.685   8.038 -0.0394  0.0833 -0.0483
  891YOPE   C4B12174   9.380  14.431   8.379 -0.1005 -0.4793 -0.2163
  892YOPE   NH312175  13.533   2.141   6.162 -0.2304  0.0641  0.0792
  892YOPE   PO412176  13.649   2.665   6.016 -0.0441 -0.1477 -0.1584
  892YOPE   GL112177  13.315   2.626   6.364  0.1559 -0.2685 -0.1830
  892YOPE   GL212178  13.532   2.403   6.577  0.0608 -0.1127  0.0665
  892YOPE   C1A12179  13.140   2.791   6.714  0.0640  0.0836  0.0160
  892YOPE   D2A12180  13.159   2.876   7.207  0.0103  0.0227  0.1317
  892YOPE   C3A12181  13.303   2.639   7.415  0.1334  0.0808  0.0994
  892YOPE   C4A12182  13.452   2.288   7.514  0.0968  0.3531  0.1083
  892YOPE   C1B12183  13.599   2.657   6.899  0.3939 -0.1108  0.1170
  892YOPE   C2B12184  13.922   2.556   7.264  0.0931  0.1766  0.1112
  892YOPE   D3B12185  13.991   2.217   7.570 -0.3086 -0.0218  0.0078
  892YOPE   C4B12186  13.781   2.144   7.954  0.1712 -0.0325  0.2714
  893YOPE   NH312187   3.752   5.126   6.171 -0.1665  0.1073 -0.1046
  893YOPE   PO412188   4.099   4.792   6.244  0.3171 -0.1297 -0.2853
  893YOPE   GL112189   4.141   4.853   6.573 -0.1404 -0.1539 -0.0367
  893YOPE   GL212190   4.460   4.931   6.562  0.1769 -0.1840 -0.0592
  893YOPE   C1A12191   4.204   5.030   6.993  0.0543  0.0741 -0.0806
  893YOPE   D2A12192   4.216   4.971   7.536  0.1960 -0.2258  0.1189
  893YOPE   C3A12193   4.018   4.617   7.790  0.1742  0.0547 -0.0748
  893YOPE   C4A12194   4.082   4.521   8.216  0.1203  0.4630  0.1795
  893YOPE   C1B12195   4.498   4.685   6.947  0.1107  0.1282  0.0285
  893YOPE   C2B12196   4.526   4.692   7.355 -0.0762  0.1239 -0.1359
  893YOPE   D3B12197   4.545   4.700   7.813 -0.1404  0.2968 -0.3090
  893YOPE   C4B12198   4.265   4.997   8.015 -0.2383 -0.2798 -0.0018
  894YOPE   NH312199   4.196   9.523   5.595  0.0456  0.0216  0.1235
  894YOPE   PO412200   4.170   9.100   5.559  0.0521 -0.1819  0.2190
  894YOPE   GL112201   3.968   9.199   5.972  0.2529 -0.1534  0.0606
  894YOPE   GL212202   3.653   9.367   5.946 -0.1053  0.1739  0.1047
  894YOPE   C1A12203   4.055   9.012   6.525  0.2704  0.2608 -0.0326
  894YOPE   D2A12204   3.956   9.114   6.930  0.2125  0.0948 -0.0643
  894YOPE   C3A12205   4.349   9.077   7.175  0.1383 -0.3031 -0.0053
  894YOPE   C4A12206   4.544   8.909   7.593 -0.2240  0.1223 -0.2200
  894YOPE   C1B12207   3.754   9.421   6.352  0.2625  0.0916  0.0444
  894YOPE   C2B12208   3.760   9.579   6.823  0.1671 -0.3875 -0.0137
  894YOPE   D3B12209   4.065   9.539   7.148 -0.0520 -0.2934 -0.2516
  894YOPE   C4B12210   4.235   9.374   7.595 -0.1001 -0.1170 -0.2474
  895YOPE   NH312211   8.460   4.025   6.378 -0.3707 -0.1450 -0.0015
  895YOPE   PO412212   8.523   3.722   6.245  0.2282  0.2173  0.1219
  895YOPE   GL112213   8.462   3.678   6.729 -0.0428  0.0608 -0.0340
  895YOPE   GL212214   8.311   3.355   6.814  0.1601  0.1311 -0.2115
  895YOPE   C1A12215   8.725   3.803   7.053  0.1408 -0.0962 -0.2233
  895YOPE   D2A12216   8.943   3.737   7.344 -0.1643  0.3628 -0.1856
  895YOPE   C3A12217   8.982   3.937   7.738  0.2801  0.2889 -0.2145
  895YOPE   C4A12218   9.196   4.146   8.149  0.1887  0.0022 -0.1136
  895YOPE   C1B12219   8.101   3.250   7.265  0.1309  0.0249  0.0152
  895YOPE   C2B12220   7.932   3.150   7.621 -0.1103 -0.1915  0.1002
  895YOPE   D3B12221   7.852   3.259   8.029 -0.0303 -0.1757  0.0571
  895YOPE   C4B12222   7.940   3.383   8.396  0.1149  0.0598 -0.2843
  896YOPE   NH312223  12.997   6.094   6.290 -0.0915 -0.0996 -0.4015
  896YOPE   PO412224  13.069   6.563   6.201  0.0037  0.1095 -0.0152
  896YOPE   GL112225  13.058   6.569   6.602  0.0500 -0.2291  0.0410
  896YOPE   GL212226  12.809   6.382   6.738  0.3820 -0.1915  0.1822
  896YOPE   C1A12227  13.030   6.753   6.970 -0.0641  0.0640 -0.1283
  896YOPE   D2A12228  12.981   6.622   7.435  0.1639 -0.2852  0.1622
  896YOPE   C3A12229  12.839   6.922   7.590  0.2291  0.1990  0.2237
  896YOPE   C4A12230  12.840   7.261   7.727 -0.1909  0.3021 -0.2910
  896YOPE   C1B12231  12.684   6.222   7.209 -0.0961  0.0212  0.0927
  896YOPE   C2B12232  12.690   5.797   7.526 -0.2028 -0.1004  0.2396
  896YOPE   D3B12233  12.730   5.849   7.967 -0.1535  0.1084 -0.0456
  896YOPE   C4B12234  13.078   5.948   8.242  0.1201 -0.0668  0.0536
  897YOPE   NH312235   8.734   9.826   5.948  0.1816  0.1808  0.4342
  897YOPE   PO412236   8.458   9.595   6.108  0.2247 -0.2162  0.0296
  897YOPE   GL112237   8.438   9.556   6.521 -0.1049 -0.0742 -0.0833
  897YOPE   GL212238   8.324   9.642   6.732 -0.0732 -0.2581  0.1813
  897YOPE   C1A12239   8.771   9.483   6.853 -0.3127  0.2824 -0.1738
  897YOPE   D2A12240   9.004   9.507   7.310  0.1440 -0.1875  0.1689
  897YOPE   C3A12241   8.868   9.638   7.629  0.0220  0.1581 -0.0223
  897YOPE   C4A12242   8.876   9.393   8.036  0.1434  0.1240 -0.1255
  897YOPE   C1B12243   8.413   9.797   7.145  0.0463  0.1532 -0.2520
  897YOPE   C2B12244   8.316   9.748   7.576 -0.2865 -0.0543  0.1849
  897YOPE   D3B12245   8.366   9.742   8.039  0.2567 -0.0595 -0.1483
  897YOPE   C4B12246   8.188   9.467   8.404  0.1997 -0.0485  0.2412
  898YOPE   NH312247   7.220   2.264   6.544 -0.1192  0.1822  0.1880
  898YOPE   PO412248   7.378   2.692   6.535  0.3286 -0.2725  0.1339
  898YOPE   GL112249   7.027   2.671   6.793 -0.1296 -0.2738 -0.1502
  898YOPE   GL212250   7.110   2.338   7.031  0.0246  0.0022  0.0292
  898YOPE   C1A12251   6.956   2.776   7.188  0.2699 -0.3108 -0.0027
  898YOPE   D2A12252   7.066   3.083   7.437 -0.1889  0.1133  0.1945
  898YOPE   C3A12253   6.897   3.224   7.702 -0.3332 -0.1511 -0.1036
  898YOPE   C4A12254   6.936   3.713   7.875 -0.1057 -0.2178  0.0001
  898YOPE   C1B12255   7.474   2.512   7.176 -0.2490  0.0657  0.2117
  898YOPE   C2B12256   7.638   2.320   7.549  0.0166 -0.1426  0.2822
  898YOPE   D3B12257   7.805   2.113   7.879 -0.1592 -0.1178  0.0746
  898YOPE   C4B12258   7.872   1.712   8.117  0.0383  0.1992 -0.1832
  899YOPE   NH312259  14.094  16.176   6.329 -0.0530 -0.2032  0.0856
  899YOPE   PO412260  14.082  15.716   6.370  0.0487  0.0198  0.0559
  899YOPE   GL112261  13.999  15.719   6.844  0.1502  0.1804  0.1535
  899YOPE   GL212262  14.266  15.776   6.980  0.2356  0.0331 -0.0678
  899YOPE   C1A12263  13.940  15.585   7.270  0.1591 -0.1416 -0.1439
  899YOPE   D2A12264  14.233  15.287   7.164  0.0059 -0.0041  0.0707
  899YOPE   C3A12265  14.692  15.289   7.444  0.3565 -0.0237  0.0546
  899YOPE   C4A12266  14.943  15.393   7.792  0.0341 -0.3167 -0.1877
  899YOPE   C1B12267  14.421  15.792   7.413 -0.1975 -0.2629 -0.0967
  899YOPE   C2B12268  14.461  15.841   7.809  0.0848  0.1851  0.0983
  899YOPE   D3B12269  14.648  16.002   8.236 -0.0145  0.2506  0.2788
  899YOPE   C4B12270  14.921  16.173   8.493  0.2232  0.1876  0.1077
  900YOPE   NH312271   0.199  14.213   5.732  0.0437 -0.3101 -0.3754
  900YOPE   PO412272   0.313  13.763   5.800 -0.1855 -0.0512 -0.1760
  900YOPE   GL112273   0.528  13.940   6.153  0.1080  0.0307  0.1387
  900YOPE   GL212274   0.717  13.785   6.309 -0.2193 -0.0671 -0.1305
  900YOPE   C1A12275   0.329  14.022   6.540 -0.3325 -0.1961 -0.0522
  900YOPE   D2A12276   0.209  13.988   6.861  0.0054  0.0001  0.1967
  900YOPE   C3A12277   0.406  14.305   7.170  0.0252 -0.0524  0.1480
  900YOPE   C4A12278   0.713  14.387   7.494 -0.1827  0.2680 -0.0289
  900YOPE   C1B12279   0.784  14.025   6.715  0.2152  0.0131  0.0866
  900YOPE   C2B12280   0.738  13.960   7.187  0.0399 -0.1335  0.1024
  900YOPE   D3B12281   0.726  13.771   7.542  0.2771 -0.0120 -0.1264
  900YOPE   C4B12282   1.072  13.738   7.766 -0.2846 -0.1139  0.1310
  901YOPE   NH312283  11.178   6.108   6.325 -0.0148  0.1658  0.0078
  901YOPE   PO412284  10.834   5.842   6.244  0.1006  0.2047 -0.0913
  901YOPE   GL112285  10.715   5.954   6.678  0.0575 -0.1542  0.0678
  901YOPE   GL212286  10.453   6.092   6.796 -0.0667 -0.0610  0.1845
  901YOPE   C1A12287  10.765   5.701   7.026 -0.1985  0.2578  0.1251
  901YOPE   D2A12288  10.764   5.589   7.489  0.1633  0.0259  0.2871
  901YOPE   C3A12289  10.850   5.716   7.798 -0.1452  0.0950  0.2454
  901YOPE   C4A12290  10.801   5.670   8.291  0.0146  0.2843 -0.3143
  901YOPE   C1B12291  10.370   5.952   7.278 -0.2812  0.0771 -0.2136
  901YOPE   C2B12292  10.378   5.963   7.730 -0.3458  0.0435 -0.1949
  901YOPE   D3B12293  10.415   5.962   8.249 -0.1780  0.2676 -0.2435
  901YOPE   C4B12294  10.732   6.100   8.518 -0.3134 -0.1099  0.2534
  902YOPE   NH312295  14.594  13.012   5.991  0.1762 -0.0360 -0.1012
  902YOPE   PO412296  14.377  13.432   6.255  0.0447  0.3844  0.0098
  902YOPE   GL112297  14.693  13.207   6.477 -0.1463 -0.1337 -0.0838
  902YOPE   GL212298  14.973  13.317   6.204  0.2019  0.1506 -0.0146
  902YOPE   C1A12299  14.676  13.055   6.938  0.0483  0.0007 -0.0350
  902YOPE   D2A12300  14.639  12.699   7.205 -0.0749  0.2838 -0.3054
  902YOPE   C3A12301  14.375  12.751   7.468  0.0123 -0.2860  0.0952
  902YOPE   C4A12302  14.029  12.980   7.601 -0.2557  0.1294  0.4506
  902YOPE   C1B12303  15.238  13.593   6.382 -0.0619 -0.1006  0.0302
  902YOPE   C2B12304  15.286  13.835   6.729  0.0708 -0.1005 -0.0189
  902YOPE   D3B12305  15.114  14.011   7.113  0.0139  0.0019 -0.4592
  902YOPE   C4B12306  14.970  13.975   7.518 -0.0165  0.0779  0.3536
  903YOPE   NH312307   0.139   1.747   6.113 -0.0485 -0.0289  0.1518
  903YOPE   PO412308   0.422   1.454   6.174 -0.0419 -0.2688 -0.1440
  903YOPE   GL112309   0.354   1.451   6.580  0.3818 -0.1663  0.0743
  903YOPE   GL212310   0.115   1.634   6.693  0.1973 -0.2027  0.1391
  903YOPE   C1A12311   0.418   1.302   7.002  0.0064 -0.0562 -0.2060
  903YOPE   D2A12312   0.639   1.278   7.367 -0.0065 -0.0236 -0.1712
  903YOPE   C3A12313   0.668   1.144   7.775 -0.0818 -0.2105  0.1858
  903YOPE   C4A12314   0.612   1.154   8.178  0.1789 -0.1241  0.3794
  903YOPE   C1B12315   0.144   1.632   7.197  0.0031 -0.2614 -0.0592
  903YOPE   C2B12316  -0.140   1.485   7.481  0.3091 -0.3746 -0.0380
  903YOPE   D3B12317  -0.180   1.477   7.923  0.3326 -0.1283  0.0661
  903YOPE   C4B12318   0.015   1.077   8.060  0.1341 -0.0007 -0.0415
  904YOPE   NH312319  14.291  15.377   6.110 -0.1915  0.1622 -0.0410
  904YOPE   PO412320  14.625  15.559   6.180  0.1467  0.2073 -0.0987
  904YOPE   GL112321  14.662  15.886   6.585  0.1210 -0.1171  0.0351
  904YOPE   GL212322  14.420  16.111   6.665 -0.0821 -0.3145 -0.0343
  904YOPE   C1A12323  14.931  16.085   6.793 -0.0097  0.0228  0.1573
  904YOPE   D2A12324  15.049  16.297   7.169  0.0424 -0.0337  0.1087
  904YOPE   C3A12325  15.235  16.285   7.582  0.0672 -0.1371 -0.0668
  904YOPE   C4A12326  15.546  16.258   7.786  0.1081 -0.1929 -0.0165
  904YOPE   C1B12327  14.390  16.210   7.136 -0.2046 -0.1217 -0.1283
  904YOPE   C2B12328  14.646  16.296   7.509 -0.0978 -0.2663  0.0538
  904YOPE   D3B12329  14.799  16.326   7.916  0.1731 -0.0222 -0.0463
  904YOPE   C4B12330  15.136  16.468   8.068 -0.0110  0.1953 -0.3083
  905YOPE   NH312331   8.534  10.525   6.522  0.0598 -0.1217  0.0482
  905YOPE   PO412332   7.980  10.521   6.455  0.1643 -0.3648  0.1492
  905YOPE   GL112333   8.189  10.277   6.848 -0.1100  0.2910  0.2297
  905YOPE   GL212334   8.033  10.019   6.849 -0.0058 -0.0072 -0.1888
  905YOPE   C1A12335   8.464  10.312   7.217  0.2065  0.0677 -0.1134
  905YOPE   D2A12336   8.663  10.157   7.583 -0.0990  0.4314 -0.0210
  905YOPE   C3A12337   8.773   9.995   7.978  0.0499 -0.3307 -0.0323
  905YOPE   C4A12338   8.944   9.857   8.310  0.2016 -0.0229  0.1274
  905YOPE   C1B12339   7.995  10.055   7.368  0.0647  0.1452  0.2491
  905YOPE   C2B12340   8.208  10.224   7.642 -0.0375 -0.0289  0.1763
  905YOPE   D3B12341   8.266  10.279   8.044  0.4431  0.1439  0.2897
  905YOPE   C4B12342   8.325  10.538   8.482 -0.0206  0.1982  0.1605
  906YOPE   NH312343  10.968  10.411   6.469  0.2264  0.1192  0.1048
  906YOPE   PO412344  11.320  10.740   6.265 -0.0948 -0.0513 -0.0508
  906YOPE   GL112345  11.192  10.894   6.666  0.1251 -0.0894  0.2747
  906YOPE   GL212346  11.524  10.868   6.795  0.0754 -0.2067  0.0567
  906YOPE   C1A12347  10.997  10.945   6.981 -0.0288  0.1075 -0.0780
  906YOPE   D2A12348  10.556  10.946   7.183 -0.1284 -0.0487 -0.0266
  906YOPE   C3A12349  10.383  11.296   7.069  0.2737  0.1512  0.2551
  906YOPE   C4A12350  10.035  11.527   6.911 -0.0195  0.1878 -0.2453
  906YOPE   C1B12351  11.509  10.649   7.208 -0.0408  0.0385 -0.2270
  906YOPE   C2B12352  11.311  10.624   7.705 -0.1062 -0.1933 -0.0089
  906YOPE   D3B12353  11.017  10.887   7.808 -0.2278 -0.1555 -0.2245
  906YOPE   C4B12354  10.886  10.936   8.205 -0.0016 -0.0240 -0.2757
  907YOPE   NH312355   3.736   2.594   6.109 -0.0469  0.0792  0.1845
  907YOPE   PO412356   3.882   3.008   6.161 -0.1748  0.1172 -0.2440
  907YOPE   GL112357   3.982   2.950   6.512  0.1997 -0.2407 -0.0227
  907YOPE   GL212358   4.164   2.632   6.482  0.1648 -0.1448  0.1519
  907YOPE   C1A12359   3.928   3.127   6.885  0.2434  0.0562  0.2946
  907YOPE   D2A12360   3.645   3.027   7.305  0.0847  0.2319 -0.3645
  907YOPE   C3A12361   3.636   3.324   7.678 -0.2273  0.0191  0.1829
  907YOPE   C4A12362   3.716   3.581   7.959  0.0168 -0.2014  0.0473
  907YOPE   C1B12363   4.075   2.662   6.870 -0.0946  0.0701  0.0202
  907YOPE   C2B12364   4.034   2.772   7.273  0.2023  0.0073  0.1128
  907YOPE   D3B12365   3.945   2.739   7.685  0.1404 -0.1002  0.1972
  907YOPE   C4B12366   3.780   2.709   8.167 -0.0438 -0.2174 -0.2675
  908YOPE   NH312367  14.131   4.858   6.193  0.2459  0.3151  0.0721
  908YOPE   PO412368  14.541   4.536   6.110  0.1235 -0.0751  0.2133
  908YOPE   GL112369  14.683   4.194   6.365 -0.2623 -0.0459  0.0571
  908YOPE   GL212370  15.042   4.239   6.378  0.0842  0.2821  0.0161
  908YOPE   C1A12371  14.736   3.797   6.644  0.2027 -0.1294 -0.0203
  908YOPE   D2A12372  14.767   3.456   6.936 -0.0194  0.2150 -0.0247
  908YOPE   C3A12373  14.845   3.386   7.397  0.0283 -0.0153  0.4084
  908YOPE   C4A12374  14.919   3.193   7.827  0.0777  0.3318  0.0314
  908YOPE   C1B12375  14.852   4.296   6.818 -0.3357  0.0831  0.0559
  908YOPE   C2B12376  14.791   4.362   7.225 -0.1196 -0.0287 -0.1796
  908YOPE   D3B12377  15.019   4.309   7.579  0.0811 -0.5074  0.1366
  908YOPE   C4B12378  15.313   4.491   7.870  0.4660 -0.0885 -0.1081
  909YOPE   NH312379  13.907   0.268   5.843  0.2907  0.2995  0.1246
  909YOPE   PO412380  14.185   0.613   5.873 -0.2834  0.1111  0.1290
  909YOPE   GL112381  13.939   0.741   6.187 -0.4716 -0.2948  0.0539
  909YOPE   GL212382  14.132   0.589   6.376  0.0599  0.2105  0.1282
  909YOPE   C1A12383  13.719   0.731   6.546  0.2079  0.0390 -0.2363
  909YOPE   D2A12384  13.660   0.720   6.959 -0.1638 -0.1809 -0.0733
  909YOPE   C3A12385  13.741   0.790   7.337  0.0679  0.2111  0.3277
  909YOPE   C4A12386  13.665   0.941   7.714 -0.0028  0.1207 -0.0115
  909YOPE   C1B12387  14.158   0.721   6.832 -0.1149 -0.2179  0.3560
  909YOPE   C2B12388  14.187   0.671   7.315 -0.1049 -0.0578 -0.1239
  909YOPE   D3B12389  14.200   0.469   7.683 -0.1010  0.3499  0.2496
  909YOPE   C4B12390  13.934   0.496   7.946 -0.0785  0.0921 -0.2564
  910YOPE   NH312391   2.576   1.843   5.582 -0.2630 -0.0622 -0.0925
  910YOPE   PO412392   2.128   1.848   5.476 -0.0935 -0.0906  0.0461
  910YOPE   GL112393   2.077   1.996   5.852 -0.1646  0.5228  0.1068
  910YOPE   GL212394   2.282   2.153   5.895  0.0533 -0.2714 -0.1356
  910YOPE   C1A12395   1.923   2.050   6.278 -0.0947  0.3881  0.1498
  910YOPE   D2A12396   1.923   2.138   6.712  0.1977 -0.0041  0.0387
  910YOPE   C3A12397   1.588   1.915   6.967 -0.1582  0.0300  0.0700
  910YOPE   C4A12398   1.443   1.912   7.455  0.0098  0.1044 -0.2074
  910YOPE   C1B12399   2.337   2.279   6.391 -0.1755 -0.2134 -0.0810
  910YOPE   C2B12400   2.373   2.265   6.844 -0.2452 -0.0273 -0.3177
  910YOPE   D3B12401   2.342   2.227   7.244 -0.1472  0.0497 -0.1539
  910YOPE   C4B12402   2.551   2.133   7.588  0.2897 -0.2373  0.2808
  911YOPE   NH312403   2.844   8.861   5.844  0.1567  0.1503 -0.2136
  911YOPE   PO412404   2.469   8.835   5.728 -0.0435  0.1420 -0.3270
  911YOPE   GL112405   2.517   8.636   6.106  0.1379 -0.2770 -0.1439
  911YOPE   GL212406   2.879   8.823   6.336 -0.2783  0.0028 -0.0885
  911YOPE   C1A12407   2.451   8.759   6.516  0.0469 -0.0511 -0.1689
  911YOPE   D2A12408   2.408   8.828   6.842  0.0072  0.0167 -0.3519
  911YOPE   C3A12409   2.213   9.022   7.212  0.0010  0.1097 -0.0221
  911YOPE   C4A12410   2.036   8.992   7.563  0.3291  0.0410  0.1325
  911YOPE   C1B12411   2.978   8.954   6.772  0.0482  0.0770 -0.1323
  911YOPE   C2B12412   2.983   9.049   7.150  0.0309  0.2483  0.1139
  911YOPE   D3B12413   3.302   8.983   7.481 -0.2659 -0.0393 -0.3367
  911YOPE   C4B12414   3.742   8.844   7.582 -0.2879  0.5504 -0.0578
  912YOPE   NH312415  15.922  17.084   5.641  0.3341  0.4257 -0.0689
  912YOPE   PO412416  15.733  17.349   5.924 -0.2545 -0.1639  0.1443
  912YOPE   GL112417  15.957  17.520   6.277  0.1949  0.0985  0.3452
  912YOPE   GL212418  15.762  17.401   6.499 -0.0493  0.1389 -0.1126
  912YOPE   C1A12419  16.244  17.659   6.593 -0.1659  0.1403  0.1294
  912YOPE   D2A12420  16.613  17.507   6.869  0.1182  0.1738 -0.0792
  912YOPE   C3A12421  16.737  17.273   7.248  0.0563 -0.2302 -0.3370
  912YOPE   C4A12422  16.836  16.940   7.518 -0.0186 -0.1282 -0.0041
  912YOPE   C1B12423  15.945  17.391   6.892 -0.0218  0.0371  0.1726
  912YOPE   C2B12424  16.205  17.554   7.277  0.2405 -0.2085 -0.1947
  912YOPE   D3B12425  16.234  17.478   7.707  0.1606  0.0964 -0.2264
  912YOPE   C4B12426  16.445  17.660   8.104 -0.1792  0.3040 -0.0137
  913YOPE   NH312427   4.309   6.362   6.106  0.0993  0.1176 -0.3419
  913YOPE   PO412428   3.968   6.531   6.226 -0.2543 -0.1048 -0.1143
  913YOPE   GL112429   3.774   6.602   6.506 -0.3157 -0.1418 -0.2264
  913YOPE   GL212430   3.548   6.313   6.512  0.1984  0.3904  0.1197
  913YOPE   C1A12431   3.583   6.687   6.876  0.1588 -0.1717  0.0766
  913YOPE   D2A12432   3.428   6.697   7.200  0.0786  0.3460 -0.0824
  913YOPE   C3A12433   3.449   6.675   7.578  0.0280  0.0817  0.1477
  913YOPE   C4A12434   3.315   6.691   8.026  0.1759 -0.2722  0.1347
  913YOPE   C1B12435   3.262   6.287   6.892 -0.1541  0.2829  0.2619
  913YOPE   C2B12436   3.181   6.246   7.272  0.0558 -0.0350  0.0044
  913YOPE   D3B12437   3.101   6.144   7.632  0.0840  0.0004 -0.3631
  913YOPE   C4B12438   3.060   5.793   7.972 -0.0010  0.1074 -0.1187
  914YOPE   NH312439   9.507   7.788   6.377  0.2412 -0.1029 -0.0166
  914YOPE   PO412440   9.095   7.661   6.292 -0.2733 -0.1721  0.1299
  914YOPE   GL112441   9.051   7.472   6.723  0.1535  0.1540  0.2151
  914YOPE   GL212442   9.302   7.714   6.845 -0.1432 -0.1814 -0.4291
  914YOPE   C1A12443   8.786   7.583   7.071  0.1383  0.0904 -0.1000
  914YOPE   D2A12444   8.836   7.412   7.436  0.1564 -0.0571 -0.0364
  914YOPE   C3A12445   8.664   7.415   7.845 -0.4382 -0.0249 -0.1095
  914YOPE   C4A12446   8.673   7.074   8.164 -0.2030  0.0770  0.1665
  914YOPE   C1B12447   9.322   7.625   7.293  0.1047 -0.0337  0.1891
  914YOPE   C2B12448   9.181   7.550   7.755  0.1209 -0.0801 -0.1105
  914YOPE   D3B12449   9.110   7.478   8.192 -0.2483 -0.1137  0.1871
  914YOPE   C4B12450   8.640   7.521   8.428 -0.2099 -0.0558  0.2965
  915YOPE   NH312451   3.831   1.782   6.290 -0.0122 -0.1173  0.0462
  915YOPE   PO412452   3.618   2.089   6.054 -0.2795 -0.3520 -0.0142
  915YOPE   GL112453   3.447   2.067   6.449 -0.1250  0.1368  0.0514
  915YOPE   GL212454   3.584   1.802   6.772  0.2025 -0.3940  0.0717
  915YOPE   C1A12455   3.277   2.297   6.817 -0.1308 -0.1959  0.2333
  915YOPE   D2A12456   3.189   2.131   7.146 -0.1800 -0.2108  0.2906
  915YOPE   C3A12457   3.043   2.298   7.465 -0.3257 -0.0193 -0.0812
  915YOPE   C4A12458   2.946   2.594   7.893  0.0066  0.0916  0.2048
  915YOPE   C1B12459   3.518   1.748   7.195 -0.0912  0.0514 -0.1996
  915YOPE   C2B12460   3.430   2.022   7.609 -0.0700  0.0833 -0.0530
  915YOPE   D3B12461   3.405   2.440   7.828 -0.0978  0.0355 -0.5351
  915YOPE   C4B12462   3.480   2.847   7.732 -0.0299 -0.2635  0.1444
  916YOPE   NH312463  13.151   9.063   6.452  0.2219  0.0199  0.0442
  916YOPE   PO412464  13.606   9.147   6.502 -0.1307  0.1636  0.0951
  916YOPE   GL112465  13.615   9.022   6.897 -0.2887  0.0982 -0.2177
  916YOPE   GL212466  13.733   8.722   6.893  0.2111 -0.2478  0.1873
  916YOPE   C1A12467  13.606   9.185   7.290  0.3168  0.1901  0.2202
  916YOPE   D2A12468  13.590   9.401   7.669 -0.1523  0.0482  0.1193
  916YOPE   C3A12469  13.818   9.431   8.004  0.3737 -0.1534  0.1123
  916YOPE   C4A12470  13.976   9.364   8.417  0.2430 -0.0177  0.0292
  916YOPE   C1B12471  13.836   8.634   7.291  0.0172  0.1643  0.2402
  916YOPE   C2B12472  13.962   8.641   7.762  0.1289  0.1942 -0.0559
  916YOPE   D3B12473  14.003   8.853   8.102  0.0643  0.3156 -0.0166
  916YOPE   C4B12474  13.673   8.984   8.402  0.0516  0.0921 -0.1204
  917YOPE   NH312475  12.430   3.357   6.282 -0.2899 -0.0786  0.1578
  917YOPE   PO412476  12.465   3.675   6.580  0.0355 -0.1491  0.1288
  917YOPE   GL112477  12.456   3.481   6.945  0.0059  0.0607 -0.0664
  917YOPE   GL212478  12.317   3.252   6.802 -0.0689 -0.0830  0.0725
  917YOPE   C1A12479  12.471   3.615   7.419 -0.0467  0.0014 -0.1209
  917YOPE   D2A12480  12.379   3.896   7.717  0.2002  0.0106  0.0481
  917YOPE   C3A12481  12.679   4.078   7.916 -0.3029  0.1845 -0.1732
  917YOPE   C4A12482  12.689   4.285   8.299  0.1232 -0.2306  0.0071
  917YOPE   C1B12483  12.296   3.081   7.304 -0.4027 -0.2076  0.1427
  917YOPE   C2B12484  12.318   2.902   7.797 -0.0491  0.0953  0.0834
  917YOPE   D3B12485  12.293   3.216   8.177 -0.0468  0.3617 -0.2346
  917YOPE   C4B12486  12.060   3.518   8.485  0.0648  0.0352 -0.0859
  918YOPE   NH312487   3.690  12.770   6.100 -0.2635  0.0857 -0.0688
  918YOPE   PO412488   3.818  12.355   5.938  0.0366 -0.0462  0.0409
  918YOPE   GL112489   3.889  12.285   6.291  0.1411 -0.2263 -0.0317
  918YOPE   GL212490   3.579  12.346   6.422 -0.0762  0.0471 -0.1976
  918YOPE   C1A12491   3.900  12.098   6.711  0.3772 -0.1358 -0.0783
  918YOPE   D2A12492   3.858  12.112   7.133  0.1937  0.0063  0.2090
  918YOPE   C3A12493   3.642  12.251   7.490 -0.2015 -0.1533 -0.2696
  918YOPE   C4A12494   3.634  12.601   7.827 -0.1737 -0.1057  0.2026
  918YOPE   C1B12495   3.556  12.373   6.919  0.1927 -0.1449 -0.1931
  918YOPE   C2B12496   3.343  11.956   7.121  0.3621 -0.0974  0.2184
  918YOPE   D3B12497   3.056  11.561   7.325 -0.1721 -0.0808 -0.0912
  918YOPE   C4B12498   2.747  11.334   7.503 -0.0433  0.0027 -0.0960
  919YOPE   NH312499  13.039   3.765   6.477 -0.0937  0.1369 -0.1249
  919YOPE   PO412500  13.413   3.844   6.433 -0.2484 -0.2161 -0.0507
  919YOPE   GL112501  13.446   3.905   6.890 -0.0208 -0.0933  0.2017
  919YOPE   GL212502  13.312   3.626   6.917 -0.0134  0.2338  0.0825
  919YOPE   C1A12503  13.556   3.770   7.282 -0.3361  0.0482 -0.1411
  919YOPE   D2A12504  13.636   3.431   7.563  0.0546 -0.0088  0.1638
  919YOPE   C3A12505  13.993   3.418   7.768 -0.1519  0.1507  0.1239
  919YOPE   C4A12506  14.461   3.295   7.807 -0.1714 -0.1875  0.1915
  919YOPE   C1B12507  13.263   3.362   7.184 -0.0584  0.2261 -0.3379
  919YOPE   C2B12508  13.205   3.201   7.649 -0.2615  0.2807 -0.1217
  919YOPE   D3B12509  13.442   2.982   7.934  0.3185 -0.1894 -0.2261
  919YOPE   C4B12510  13.885   2.968   8.150 -0.0879 -0.1472 -0.1114
  920YOPE   NH312511  14.374  17.523   5.931  0.1604 -0.2051  0.0521
  920YOPE   PO412512  13.900  17.549   5.855  0.0517 -0.2064 -0.0282
  920YOPE   GL112513  13.917  17.467   6.327  0.2843  0.2479 -0.0669
  920YOPE   GL212514  13.969  17.257   6.492 -0.1129 -0.1484  0.1449
  920YOPE   C1A12515  13.948  17.574   6.824  0.2945  0.1592 -0.0450
  920YOPE   D2A12516  13.734  17.589   7.323  0.0031  0.1786  0.0692
  920YOPE   C3A12517  13.818  17.909   7.643 -0.1785 -0.0756  0.1949
  920YOPE   C4A12518  13.563  18.196   7.621  0.7409  0.0376 -0.0271
  920YOPE   C1B12519  14.373  17.169   6.577  0.1153 -0.0238  0.1321
  920YOPE   C2B12520  14.639  17.063   6.961  0.4439  0.0199  0.0906
  920YOPE   D3B12521  14.541  16.796   7.240  0.0573 -0.1975 -0.1695
  920YOPE   C4B12522  14.547  16.993   7.598 -0.0064 -0.1616 -0.2882
  921YOPE   NH312523   7.902  12.135   6.104  0.2504  0.1511  0.0191
  921YOPE   PO412524   7.963  11.681   6.301 -0.0661 -0.3330 -0.0725
  921YOPE   GL112525   7.906  12.014   6.631 -0.3445  0.1021  0.1573
  921YOPE   GL212526   7.580  12.003   6.530  0.0132  0.2052 -0.1907
  921YOPE   C1A12527   7.843  12.151   6.992  0.1042  0.2707  0.1345
  921YOPE   D2A12528   7.877  12.093   7.506  0.0330 -0.0731 -0.1907
  921YOPE   C3A12529   7.636  12.077   7.916  0.1726  0.0663 -0.2663
  921YOPE   C4A12530   7.476  12.286   8.275 -0.1837  0.0125  0.1123
  921YOPE   C1B12531   7.366  11.977   6.917  0.1795 -0.1963  0.1879
  921YOPE   C2B12532   7.357  12.062   7.302 -0.0713  0.2466  0.1282
  921YOPE   D3B12533   7.153  12.155   7.702  0.2362  0.0087  0.0865
  921YOPE   C4B12534   7.139  11.987   8.071 -0.0583 -0.0529  0.1164
  922YOPE   NH312535   4.829  17.352   6.061  0.0464  0.1413 -0.0450
  922YOPE   PO412536   4.674  16.905   6.014 -0.0158 -0.2031 -0.1701
  922YOPE   GL112537   4.554  16.670   6.364  0.3254 -0.0120 -0.1583
  922YOPE   GL212538   4.769  16.433   6.542 -0.0549 -0.1268  0.1929
  922YOPE   C1A12539   4.405  16.736   6.730 -0.1871  0.0749 -0.1018
  922YOPE   D2A12540   4.256  16.591   7.123 -0.1608 -0.0201  0.0397
  922YOPE   C3A12541   4.382  16.196   7.263 -0.1925 -0.0377 -0.0360
  922YOPE   C4A12542   4.493  15.852   7.002  0.3183 -0.0458 -0.3318
  922YOPE   C1B12543   4.758  16.425   6.981  0.2296  0.0086  0.1864
  922YOPE   C2B12544   4.796  16.431   7.465 -0.2119 -0.1287 -0.2943
  922YOPE   D3B12545   4.633  16.332   7.704  0.4319 -0.0234  0.1919
  922YOPE   C4B12546   4.671  16.164   8.117  0.2032 -0.0093 -0.1137
  923YOPE   NH312547  14.882  14.543   5.834  0.0642 -0.0320  0.1764
  923YOPE   PO412548  14.583  14.911   5.922 -0.2077 -0.1086  0.0130
  923YOPE   GL112549  14.413  14.923   6.375 -0.2449  0.1120 -0.4358
  923YOPE   GL212550  14.690  14.648   6.490 -0.0154  0.4823  0.1082
  923YOPE   C1A12551  14.360  14.838   6.879  0.1801  0.3978 -0.1753
  923YOPE   D2A12552  14.462  14.802   7.320 -0.2390 -0.0573  0.0480
  923YOPE   C3A12553  14.449  14.871   7.696  0.1756  0.2082 -0.0159
  923YOPE   C4A12554  14.398  14.607   8.070 -0.1335  0.1258  0.0982
  923YOPE   C1B12555  14.627  14.416   6.941  0.0310  0.1796 -0.0317
  923YOPE   C2B12556  14.540  14.091   7.251  0.0123  0.1043  0.2329
  923YOPE   D3B12557  14.518  13.834   7.563  0.2434  0.1406  0.1575
  923YOPE   C4B12558  14.512  13.680   7.971 -0.2308  0.0057  0.0197
  924YOPE   NH312559   0.104  11.370   5.150 -0.1240 -0.0368  0.0614
  924YOPE   PO412560  -0.015  11.224   5.453 -0.2746 -0.0475  0.0778
  924YOPE   GL112561   0.220  11.209   5.868  0.2474 -0.1458  0.0750
  924YOPE   GL212562   0.480  11.466   5.999 -0.1536 -0.0692  0.2046
  924YOPE   C1A12563   0.157  11.005   6.177 -0.4233 -0.1757 -0.3921
  924YOPE   D2A12564  -0.033  10.913   6.570  0.0261  0.0806  0.0164
  924YOPE   C3A12565   0.223  10.539   6.817  0.3139  0.0173 -0.0315
  924YOPE   C4A12566   0.557  10.768   7.093 -0.0963  0.2009  0.3480
  924YOPE   C1B12567   0.360  11.381   6.451  0.0808  0.2388 -0.0819
  924YOPE   C2B12568   0.370  11.054   6.765  0.2873 -0.0988 -0.0982
  924YOPE   D3B12569   0.096  10.909   7.063 -0.2247 -0.0291 -0.1630
  924YOPE   C4B12570   0.010  10.602   7.287 -0.0988 -0.0546 -0.2934
  925YOPE   NH312571   2.950   5.217   5.666 -0.2485  0.0118  0.1763
  925YOPE   PO412572   3.307   5.138   5.929 -0.1453 -0.0518 -0.0399
  925YOPE   GL112573   3.361   5.365   6.354  0.1915  0.0130 -0.1677
  925YOPE   GL212574   3.448   5.669   6.383 -0.1195  0.2912  0.1698
  925YOPE   C1A12575   3.264   5.442   6.789  0.3849 -0.2737  0.1292
  925YOPE   D2A12576   3.098   5.449   7.279 -0.0211  0.0756  0.0123
  925YOPE   C3A12577   3.192   5.097   7.474  0.0965 -0.0208 -0.1811
  925YOPE   C4A12578   3.239   4.959   7.891 -0.0981  0.0233 -0.0420
  925YOPE   C1B12579   3.552   5.833   6.759 -0.0437  0.0073 -0.0541
  925YOPE   C2B12580   3.525   5.741   7.166 -0.0493 -0.1864 -0.2107
  925YOPE   D3B12581   3.411   5.750   7.559  0.3024  0.0393  0.0695
  925YOPE   C4B12582   3.389   5.434   7.861  0.2319  0.1073 -0.1116
  926YOPE   NH312583  10.635  17.672   6.420  0.0685 -0.1714 -0.0721
  926YOPE   PO412584  10.479  17.986   6.501 -0.2584 -0.1536  0.3724
  926YOPE   GL112585  10.669  18.058   6.858  0.0074 -0.0323 -0.0882
  926YOPE   GL212586  10.532  18.361   6.924 -0.2985 -0.0179 -0.0500
  926YOPE   C1A12587  10.572  17.896   7.288 -0.1953  0.0034  0.0513
  926YOPE   D2A12588  10.601  17.716   7.702 -0.0591  0.1272 -0.1107
  926YOPE   C3A12589  10.772  18.033   8.093  0.0890  0.0299  0.1792
  926YOPE   C4A12590  10.903  18.321   8.399 -0.0799 -0.0656  0.0340
  926YOPE   C1B12591  10.367  18.393   7.324 -0.0909 -0.1730  0.1567
  926YOPE   C2B12592  10.070  18.442   7.586 -0.0067 -0.0328  0.0393
  926YOPE   D3B12593  10.090  18.561   8.055  0.0638  0.1598  0.1774
  926YOPE   C4B12594  10.043  18.554   8.560 -0.0594  0.1703  0.1566
  927YOPE   NH312595   2.206  11.719   5.796  0.0648 -0.1455  0.1077
  927YOPE   PO412596   2.629  11.577   5.960 -0.2015 -0.2299  0.0483
  927YOPE   GL112597   2.726  11.062   5.927  0.1120 -0.1187  0.2677
  927YOPE   GL212598   3.054  10.919   5.993  0.0891 -0.2940 -0.1366
  927YOPE   C1A12599   2.590  10.631   6.084 -0.3402  0.2654  0.3725
  927YOPE   D2A12600   2.208  10.397   6.162 -0.3683  0.2087 -0.5142
  927YOPE   C3A12601   2.183  10.080   6.487 -0.3053 -0.2508  0.0021
  927YOPE   C4A12602   2.072  10.164   6.902  0.0782  0.1898  0.0007
  927YOPE   C1B12603   2.870  10.867   6.334  0.2071 -0.0973 -0.2811
  927YOPE   C2B12604   2.944  10.793   6.699  0.2801 -0.0471  0.0822
  927YOPE   D3B12605   3.004  10.533   6.936  0.2699 -0.0471 -0.0064
  927YOPE   C4B12606   2.856  10.342   7.264  0.2045 -0.0673  0.1647
  928YOPE   NH312607   4.280  12.175   5.972 -0.1636  0.1319 -0.2808
  928YOPE   PO412608   4.325  12.487   5.794  0.2438 -0.0328  0.1409
  928YOPE   GL112609   4.237  12.644   6.307 -0.0836 -0.1959 -0.2361
  928YOPE   GL212610   4.486  12.837   6.552 -0.2110 -0.1038  0.0158
  928YOPE   C1A12611   3.952  12.605   6.729 -0.1991  0.0933  0.1108
  928YOPE   D2A12612   3.961  12.598   7.119  0.3355  0.0570  0.1164
  928YOPE   C3A12613   3.651  12.749   7.254 -0.3480 -0.0890 -0.1153
  928YOPE   C4A12614   3.306  12.965   6.970 -0.2458 -0.1840 -0.2431
  928YOPE   C1B12615   4.385  12.755   6.976  0.1116  0.2358  0.1418
  928YOPE   C2B12616   4.345  12.758   7.339 -0.0415 -0.0415 -0.1381
  928YOPE   D3B12617   4.119  12.567   7.655  0.0033 -0.0508 -0.1050
  928YOPE   C4B12618   4.145  12.642   8.107  0.1038 -0.0073 -0.0544
  929YOPE   NH312619  17.190   4.744   5.840  0.2621 -0.1791  0.0232
  929YOPE   PO412620  17.356   5.074   5.790 -0.1119  0.1686 -0.2945
  929YOPE   GL112621  17.375   5.230   6.178  0.1073 -0.0361 -0.2585
  929YOPE   GL212622  17.700   5.179   6.147  0.0073 -0.0924  0.2588
  929YOPE   C1A12623  17.256   5.021   6.543  0.4263  0.1287  0.0102
  929YOPE   D2A12624  17.229   5.056   6.939 -0.1280  0.3387  0.1024
  929YOPE   C3A12625  17.104   4.821   7.227  0.2155 -0.0724  0.0639
  929YOPE   C4A12626  16.810   4.812   7.507  0.0721 -0.1539  0.1587
  929YOPE   C1B12627  17.675   5.263   6.641  0.1501  0.2591 -0.2096
  929YOPE   C2B12628  17.823   5.147   7.028  0.0148  0.0301  0.1978
  929YOPE   D3B12629  17.566   5.104   7.352 -0.1105 -0.0795 -0.2424
  929YOPE   C4B12630  17.267   5.060   7.704  0.0565 -0.0458  0.1186
  930YOPE   NH312631  17.076   1.950   6.114 -0.0496  0.0514 -0.0402
  930YOPE   PO412632  17.480   1.953   6.063 -0.0353  0.0631 -0.0029
  930YOPE   GL112633  17.456   2.162   6.413 -0.1555 -0.0805 -0.1628
  930YOPE   GL212634  17.772   2.144   6.582  0.0710  0.1062  0.0633
  930YOPE   C1A12635  17.271   1.987   6.812 -0.0492  0.0650 -0.0016
  930YOPE   D2A12636  17.468   1.724   7.078 -0.3046 -0.1440 -0.0733
  930YOPE   C3A12637  17.462   1.923   7.479  0.0279  0.0365  0.0141
  930YOPE   C4A12638  17.902   1.939   7.581 -0.0869  0.1825  0.0809
  930YOPE   C1B12639  17.592   2.248   7.056 -0.0435  0.0703  0.2542
  930YOPE   C2B12640  17.742   2.368   7.441 -0.1438 -0.1138  0.2457
  930YOPE   D3B12641  18.040   2.422   7.822  0.1921  0.3886 -0.0242
  930YOPE   C4B12642  18.480   2.535   7.871 -0.1523 -0.1591  0.0364
  931YOPE   NH312643  16.861   5.240   5.575 -0.0841 -0.0316  0.1166
  931YOPE   PO412644  16.336   5.136   5.610 -0.2140 -0.0836 -0.1298
  931YOPE   GL112645  16.702   4.948   5.957 -0.1079  0.0762 -0.3138
  931YOPE   GL212646  16.923   5.144   6.080 -0.2502  0.1184  0.0561
  931YOPE   C1A12647  16.776   4.768   6.359 -0.0291  0.0615  0.0870
  931YOPE   D2A12648  16.843   4.853   6.792  0.1647 -0.1602  0.4322
  931YOPE   C3A12649  16.723   4.579   7.093 -0.0571  0.1110  0.0754
  931YOPE   C4A12650  16.383   4.424   7.333  0.0093 -0.3390 -0.0438
  931YOPE   C1B12651  16.744   5.261   6.488 -0.1020 -0.2560  0.1685
  931YOPE   C2B12652  16.816   5.320   6.997 -0.1104  0.0197  0.0587
  931YOPE   D3B12653  16.987   5.263   7.402 -0.0328  0.1059 -0.0779
  931YOPE   C4B12654  16.989   5.592   7.810  0.0750 -0.1068 -0.0709
  932YOPE   NH312655   9.853   7.024   6.638 -0.1901  0.0395  0.1219
  932YOPE   PO412656   9.510   7.316   6.475  0.1621  0.0407  0.3453
  932YOPE   GL112657   9.374   7.171   6.945  0.2561 -0.3148 -0.0700
  932YOPE   GL212658   9.518   6.810   7.042  0.1187 -0.2187  0.1745
  932YOPE   C1A12659   9.383   7.145   7.422  0.3006 -0.1885 -0.1325
  932YOPE   D2A12660   9.447   7.107   7.794  0.0221 -0.0305 -0.3932
  932YOPE   C3A12661   9.836   7.203   8.042 -0.4155  0.1373 -0.0268
  932YOPE   C4A12662   9.880   7.135   8.508  0.1588  0.2144 -0.1130
  932YOPE   C1B12663   9.473   6.697   7.474 -0.1834 -0.0711 -0.0724
  932YOPE   C2B12664   9.588   6.672   7.908 -0.1145  0.0787 -0.0375
  932YOPE   D3B12665   9.691   6.668   8.328 -0.1183 -0.3080 -0.0273
  932YOPE   C4B12666  10.011   6.497   8.473  0.1262  0.0325  0.3388
  933YOPE   NH312667   9.770   6.476   6.161 -0.0901 -0.1717 -0.1917
  933YOPE   PO412668   9.481   6.802   6.407 -0.0886 -0.0895 -0.1523
  933YOPE   GL112669   9.129   6.797   6.672  0.1568  0.1409  0.4757
  933YOPE   GL212670   9.139   6.528   6.849  0.1843 -0.0680  0.1599
  933YOPE   C1A12671   8.884   7.026   7.056  0.1323 -0.0704 -0.3005
  933YOPE   D2A12672   8.898   6.955   7.584  0.1968  0.0963 -0.3700
  933YOPE   C3A12673   8.608   6.628   7.896  0.0181 -0.2287 -0.0344
  933YOPE   C4A12674   8.592   6.548   8.292 -0.0024 -0.2341  0.0449
  933YOPE   C1B12675   9.442   6.187   7.073 -0.1043 -0.1936  0.2395
  933YOPE   C2B12676   9.498   6.105   7.551 -0.1366 -0.0450 -0.0991
  933YOPE   D3B12677   9.495   6.166   8.013 -0.1114 -0.1815  0.3101
  933YOPE   C4B12678   9.624   6.061   8.396  0.0325  0.1550 -0.1653
  934YOPE   NH312679  12.028  15.796   6.403  0.0053 -0.1270 -0.0935
  934YOPE   PO412680  11.910  15.427   6.524  0.3753  0.0969 -0.0481
  934YOPE   GL112681  12.164  15.609   6.851 -0.0163 -0.0669  0.2785
  934YOPE   GL212682  12.380  15.877   6.734 -0.1521 -0.3099 -0.2387
  934YOPE   C1A12683  12.313  15.582   7.268 -0.2500 -0.1064  0.0845
  934YOPE   D2A12684  12.487  15.303   7.523 -0.2193  0.1829 -0.1808
  934YOPE   C3A12685  12.393  15.199   8.032  0.0388 -0.1033  0.0275
  934YOPE   C4A12686  12.197  15.008   8.428  0.0690 -0.1859  0.1935
  934YOPE   C1B12687  12.497  16.007   7.171  0.2663  0.0862  0.1175
  934YOPE   C2B12688  12.684  15.904   7.563 -0.2230  0.0531 -0.2932
  934YOPE   D3B12689  12.570  16.184   7.807 -0.0808  0.0521 -0.1513
  934YOPE   C4B12690  12.677  16.294   8.292  0.2685 -0.0845 -0.3977
  935YOPE   NH312691   1.925   0.646   5.415 -0.0070 -0.0822  0.2663
  935YOPE   PO412692   1.979   1.024   5.402  0.1492  0.0186  0.0818
  935YOPE   GL112693   2.193   1.159   5.884  0.1101  0.2541 -0.1332
  935YOPE   GL212694   2.286   1.551   5.909  0.5718  0.0755 -0.1710
  935YOPE   C1A12695   2.366   1.182   6.399  0.1791 -0.1837  0.3447
  935YOPE   D2A12696   2.416   1.050   6.833  0.2635 -0.0169  0.0913
  935YOPE   C3A12697   2.055   1.174   7.131 -0.0074 -0.1018  0.0205
  935YOPE   C4A12698   1.957   1.072   7.531 -0.2565  0.1675  0.0915
  935YOPE   C1B12699   1.999   1.572   6.201 -0.5760 -0.1118  0.0361
  935YOPE   C2B12700   1.665   1.701   6.498 -0.6208 -0.1888  0.2552
  935YOPE   D3B12701   1.206   1.870   6.541 -0.2514  0.4030 -0.2145
  935YOPE   C4B12702   1.088   1.764   6.987  0.0990 -0.0555  0.2623
  936YOPE   NH312703  11.707  13.906   6.525  0.4855  0.0423  0.0551
  936YOPE   PO412704  11.679  14.356   6.456  0.1910  0.4385 -0.1585
  936YOPE   GL112705  11.728  14.336   6.796 -0.2966 -0.2881 -0.0757
  936YOPE   GL212706  11.597  14.111   6.971 -0.0676  0.0929 -0.0032
  936YOPE   C1A12707  11.742  14.575   7.181  0.1262  0.1630  0.0001
  936YOPE   D2A12708  11.619  14.615   7.584  0.0731  0.0835  0.0669
  936YOPE   C3A12709  11.630  14.312   7.966 -0.2654 -0.0071 -0.1524
  936YOPE   C4A12710  11.505  14.074   8.353 -0.1176  0.1980 -0.0284
  936YOPE   C1B12711  11.742  14.162   7.427 -0.0041  0.0539 -0.0788
  936YOPE   C2B12712  11.477  13.885   7.747  0.2421  0.1777  0.0348
  936YOPE   D3B12713  11.228  13.994   8.004  0.1113 -0.1627  0.1611
  936YOPE   C4B12714  11.064  13.846   8.350 -0.2863  0.1244  0.0892
  937YOPE   NH312715   1.137   0.010   6.147  0.0769 -0.2729  0.0792
  937YOPE   PO412716   0.906   0.228   5.887 -0.0385  0.0393 -0.2201
  937YOPE   GL112717   0.680   0.308   6.280  0.2088 -0.0871 -0.0352
  937YOPE   GL212718   0.785  -0.023   6.552 -0.1503 -0.3998 -0.0975
  937YOPE   C1A12719   0.446   0.293   6.675 -0.0766 -0.1168 -0.0908
  937YOPE   D2A12720   0.025   0.297   6.773  0.1216 -0.0272 -0.1060
  937YOPE   C3A12721  -0.184  -0.099   6.916  0.1750 -0.2073 -0.0184
  937YOPE   C4A12722  -0.168  -0.596   7.002 -0.0043  0.1998 -0.0835
  937YOPE   C1B12723   0.763  -0.006   6.902  0.0876 -0.0076  0.4117
  937YOPE   C2B12724   0.734  -0.351   7.131  0.1144 -0.0148 -0.1278
  937YOPE   D3B12725   0.976  -0.463   7.481 -0.0022 -0.2576  0.0382
  937YOPE   C4B12726   0.973  -0.578   7.910 -0.3212 -0.2624 -0.0676
  938YOPE   NH312727   3.925   4.329   6.092 -0.1824 -0.2743  0.0600
  938YOPE   PO412728   4.382   4.012   6.099 -0.1344 -0.2261  0.2977
  938YOPE   GL112729   4.525   4.193   6.466 -0.0277 -0.0043  0.0071
  938YOPE   GL212730   4.396   4.406   6.493 -0.4683 -0.0240  0.0070
  938YOPE   C1A12731   4.583   4.249   6.998  0.1831 -0.1220  0.0720
  938YOPE   D2A12732   4.797   4.201   7.467 -0.1789 -0.0388  0.0669
  938YOPE   C3A12733   4.650   3.914   7.777  0.1758 -0.1182  0.1280
  938YOPE   C4A12734   4.728   3.766   8.219 -0.2056 -0.1467  0.0104
  938YOPE   C1B12735   4.111   4.443   6.849 -0.1513 -0.1945 -0.1235
  938YOPE   C2B12736   4.098   4.539   7.303 -0.2409  0.1519  0.1496
  938YOPE   D3B12737   4.251   4.264   7.579 -0.0297  0.2156  0.3049
  938YOPE   C4B12738   4.003   4.093   7.933 -0.3976 -0.0200 -0.0166
  939YOPE   NH312739   5.543   8.595   5.992 -0.0227  0.1012  0.1529
  939YOPE   PO412740   5.750   8.265   6.063 -0.0440  0.1261 -0.1864
  939YOPE   GL112741   5.655   8.148   6.574 -0.0359 -0.4263 -0.1212
  939YOPE   GL212742   6.003   8.177   6.770 -0.0723  0.0879  0.2489
  939YOPE   C1A12743   5.577   8.185   7.023  0.2541  0.0880 -0.0841
  939YOPE   D2A12744   5.722   8.268   7.422  0.0955  0.0447  0.0701
  939YOPE   C3A12745   5.491   8.323   7.734  0.1188 -0.0067 -0.2301
  939YOPE   C4A12746   5.190   8.544   7.969  0.2748 -0.0439  0.3301
  939YOPE   C1B12747   6.107   8.013   7.185 -0.0136  0.1173 -0.2475
  939YOPE   C2B12748   6.058   7.816   7.594  0.0025  0.0378  0.2537
  939YOPE   D3B12749   6.147   7.578   8.029  0.0894  0.0693  0.0249
  939YOPE   C4B12750   6.236   7.571   8.515 -0.1598 -0.1013 -0.4169
  940YOPE   NH312751   6.291   9.181   6.166  0.1497  0.1161  0.0225
  940YOPE   PO412752   5.813   9.063   6.049  0.1661 -0.0513  0.0211
  940YOPE   GL112753   5.862   9.208   6.493  0.1117  0.2017  0.1970
  940YOPE   GL212754   6.034   9.140   6.591 -0.0496 -0.0385 -0.2737
  940YOPE   C1A12755   5.733   9.495   6.720  0.3359 -0.3165 -0.0952
  940YOPE   D2A12756   5.509   9.653   6.966  0.0963  0.0567 -0.1078
  940YOPE   C3A12757   5.610   9.736   7.416 -0.2387  0.4025  0.0636
  940YOPE   C4A12758   5.854   9.956   7.721 -0.1737  0.2595 -0.1421
  940YOPE   C1B12759   6.042   9.254   7.009 -0.1048 -0.2241 -0.0387
  940YOPE   C2B12760   5.839   9.295   7.326  0.0083  0.0958 -0.0002
  940YOPE   D3B12761   5.777   9.362   7.724 -0.0068  0.0558  0.0706
  940YOPE   C4B12762   5.629   9.366   8.049 -0.1830  0.1064  0.0506
  941YOPE   NH312763  11.564   9.127   6.527  0.0446  0.1201 -0.2771
  941YOPE   PO412764  11.943   9.362   6.632 -0.2368 -0.1959 -0.1870
  941YOPE   GL112765  12.000   9.019   6.900  0.2203 -0.0667 -0.0729
  941YOPE   GL212766  11.710   8.795   6.923  0.1537  0.0145 -0.3998
  941YOPE   C1A12767  11.804   9.200   7.271 -0.0471 -0.1204  0.2449
  941YOPE   D2A12768  11.603   9.264   7.709  0.1669 -0.1723 -0.1111
  941YOPE   C3A12769  11.690   9.449   8.105 -0.3455  0.0589 -0.0950
  941YOPE   C4A12770  11.647   9.851   8.404 -0.1128 -0.1495  0.1487
  941YOPE   C1B12771  11.990   8.763   7.325  0.1210 -0.0172  0.1381
  941YOPE   C2B12772  12.070   8.872   7.736 -0.0769  0.0390  0.0512
  941YOPE   D3B12773  11.775   8.914   8.055  0.3224 -0.0878  0.0986
  941YOPE   C4B12774  11.447   8.968   8.297  0.0526  0.2156  0.1306
  942POPC   NC312775  10.433   3.909   6.187  0.1225  0.0753  0.0098
  942POPC   PO412776  10.293   3.471   6.061 -0.3106  0.1382  0.0070
  942POPC   GL112777  10.528   3.491   6.456 -0.0510 -0.0696 -0.1021
  942POPC   GL212778  10.451   3.705   6.760 -0.3315 -0.1207  0.1126
  942POPC   C1A12779  10.602   3.225   6.796 -0.1357 -0.1477 -0.2195
  942POPC   D2A12780  10.943   3.178   7.054 -0.1312  0.2292 -0.2146
  942POPC   C3A12781  10.938   3.473   7.459 -0.0276  0.0701  0.0270
  942POPC   C4A12782  10.480   3.635   7.684 -0.0556 -0.1876  0.1271
  942POPC   C1B12783  10.520   3.822   7.169  0.0781  0.3231 -0.3028
  942POPC   C2B12784  10.334   4.015   7.458 -0.0306 -0.0156 -0.1731
  942POPC   C3B12785  10.122   4.048   7.816 -0.2685 -0.1250  0.0690
  942POPC   C4B12786  10.099   4.400   8.039 -0.0730  0.0120 -0.2054
  943POPC   NC312787   3.350   3.420   5.881  0.0451  0.0121 -0.0434
  943POPC   PO412788   3.397   2.947   5.983 -0.0927 -0.4541  0.1266
  943POPC   GL112789   3.351   2.828   6.442 -0.2034 -0.1999 -0.3192
  943POPC   GL212790   3.622   2.611   6.571 -0.0610 -0.0051  0.2200
  943POPC   C1A12791   3.024   2.721   6.747 -0.2973  0.0969 -0.2741
  943POPC   D2A12792   2.835   2.449   7.049  0.1206 -0.0404  0.0978
  943POPC   C3A12793   2.644   2.612   7.403 -0.1132 -0.1590 -0.2097
  943POPC   C4A12794   2.297   2.486   7.789  0.1076 -0.0882 -0.3312
  943POPC   C1B12795   3.506   2.700   6.966 -0.1895 -0.1179  0.3738
  943POPC   C2B12796   3.255   2.738   7.259  0.0931  0.0018 -0.3095
  943POPC   C3B12797   3.060   2.948   7.540 -0.4005  0.1627 -0.1020
  943POPC   C4B12798   2.940   3.220   7.887 -0.0881  0.0879 -0.0168
  944POPC   NC312799  14.707   4.850   5.797 -0.0755  0.1313 -0.4063
  944POPC   PO412800  14.559   5.092   6.193 -0.2373 -0.3105  0.1223
  944POPC   GL112801  14.521   4.831   6.519 -0.2406 -0.1784  0.1172
  944POPC   GL212802  14.389   4.958   6.861 -0.0372 -0.4841  0.2461
  944POPC   C1A12803  14.806   4.778   6.806  0.0744  0.1494 -0.0961
  944POPC   D2A12804  15.193   4.763   7.054  0.2485 -0.2648  0.0599
  944POPC   C3A12805  15.447   4.619   7.351 -0.0570  0.2098 -0.1592
  944POPC   C4A12806  15.570   4.231   7.585  0.3710 -0.3992 -0.1360
  944POPC   C1B12807  14.597   4.875   7.310 -0.0741 -0.0884 -0.2119
  944POPC   C2B12808  14.953   4.833   7.547  0.0488  0.2715 -0.1365
  944POPC   C3B12809  15.314   4.950   7.739  0.2911 -0.2800 -0.2835
  944POPC   C4B12810  15.790   5.065   7.809  0.0804  0.1901  0.1425
  945POPC   NC312811  16.258   2.131   5.898  0.0797  0.0867  0.1667
  945POPC   PO412812  16.588   1.861   6.103  0.0359 -0.1212  0.2420
  945POPC   GL112813  16.407   1.867   6.429  0.0147  0.1354 -0.2148
  945POPC   GL212814  16.277   2.164   6.387  0.2684 -0.2917 -0.1025
  945POPC   C1A12815  16.169   1.871   6.848  0.2196  0.0602 -0.1265
  945POPC   D2A12816  15.965   1.616   7.059  0.3023  0.0561  0.0287
  945POPC   C3A12817  15.734   1.878   7.382  0.1458  0.0290 -0.0031
  945POPC   C4A12818  15.565   1.872   7.809 -0.1408 -0.3581 -0.0116
  945POPC   C1B12819  16.302   2.330   6.768  0.0762 -0.0626  0.1952
  945POPC   C2B12820  16.499   2.520   7.139 -0.0841  0.0201 -0.1130
  945POPC   C3B12821  16.726   2.496   7.500  0.0441 -0.0773 -0.0746
  945POPC   C4B12822  16.837   2.258   7.856 -0.0724  0.0619 -0.0556
  946POPC   NC312823   6.310  12.139   6.056  0.3971 -0.0645 -0.0831
  946POPC   PO412824   6.579  11.729   6.142 -0.0058  0.2013  0.1179
  946POPC   GL112825   6.279  11.760   6.432  0.0127  0.1796  0.0511
  946POPC   GL212826   6.386  12.083   6.570 -0.0116  0.3613 -0.0675
  946POPC   C1A12827   5.987  11.778   6.781 -0.0825 -0.1613 -0.0365
  946POPC   D2A12828   5.884  11.610   7.076 -0.0750 -0.1359  0.0366
  946POPC   C3A12829   5.895  11.581   7.459  0.1652 -0.1610 -0.2207
  946POPC   C4A12830   5.813  11.444   7.974 -0.2569  0.1641 -0.1576
  946POPC   C1B12831   6.307  12.118   7.073 -0.1891  0.4006  0.1512
  946POPC   C2B12832   6.014  12.059   7.357 -0.1026  0.2213  0.1253
  946POPC   C3B12833   5.754  12.101   7.674  0.0596  0.0184 -0.0120
  946POPC   C4B12834   5.618  11.993   8.002  0.3075  0.2560 -0.0851
  947POPC   NC312835   4.171  16.531   6.114 -0.2951 -0.0682 -0.1104
  947POPC   PO412836   3.761  16.420   6.003 -0.0029  0.1373  0.0971
  947POPC   GL112837   3.628  16.734   6.234 -0.2837  0.0513 -0.2442
  947POPC   GL212838   3.836  16.753   6.458 -0.1686  0.1538  0.0737
  947POPC   C1A12839   3.373  16.805   6.552 -0.0964 -0.2650  0.1566
  947POPC   D2A12840   3.107  16.766   6.816 -0.0050 -0.1773 -0.2370
  947POPC   C3A12841   2.686  16.732   6.846 -0.1269  0.1619 -0.3115
  947POPC   C4A12842   2.372  16.463   6.699 -0.2406 -0.3210 -0.2870
  947POPC   C1B12843   3.810  16.847   6.904  0.1586  0.1021  0.0503
  947POPC   C2B12844   3.826  16.814   7.324  0.0835  0.1470  0.1022
  947POPC   C3B12845   3.677  16.921   7.704 -0.0431  0.0648 -0.4268
  947POPC   C4B12846   3.789  17.051   8.136  0.1864 -0.1256 -0.0257
  948POPC   NC312847   5.556   3.087   6.169  0.1150 -0.2577 -0.0809
  948POPC   PO412848   6.033   3.220   6.385 -0.3132  0.0400  0.3275
  948POPC   GL112849   6.172   3.240   6.814 -0.0755  0.0052 -0.2564
  948POPC   GL212850   6.116   3.121   7.110 -0.1406  0.0943  0.1759
  948POPC   C1A12851   6.118   3.624   7.208  0.0956  0.2326  0.1640
  948POPC   D2A12852   6.043   3.671   7.704 -0.0512  0.1107 -0.1163
  948POPC   C3A12853   6.328   3.422   7.939 -0.1100 -0.1941  0.4252
  948POPC   C4A12854   6.348   3.387   8.345  0.1342  0.1286  0.0832
  948POPC   C1B12855   6.039   3.166   7.523  0.0310  0.4147 -0.0604
  948POPC   C2B12856   5.988   3.036   8.018 -0.1886  0.0576  0.1719
  948POPC   C3B12857   5.966   3.081   8.487  0.2732  0.0963  0.1215
  948POPC   C4B12858   5.770   3.079   8.950 -0.0677 -0.1895  0.0252
  949POPC   NC312859   0.547  12.528   4.998 -0.1563  0.0287  0.0830
  949POPC   PO412860   0.493  12.415   5.419 -0.0212  0.0397  0.0313
  949POPC   GL112861   0.419  12.441   5.862  0.0375  0.2045 -0.0906
  949POPC   GL212862   0.139  12.429   5.994 -0.1903  0.1290 -0.1010
  949POPC   C1A12863   0.574  12.640   6.266 -0.1643  0.1456 -0.0514
  949POPC   D2A12864   0.598  12.908   6.615 -0.2152 -0.0346 -0.1342
  949POPC   C3A12865   0.848  13.086   6.652 -0.0229  0.1032 -0.2001
  949POPC   C4A12866   1.238  13.155   6.837  0.3700 -0.2065  0.1570
  949POPC   C1B12867   0.121  12.484   6.414  0.1029  0.1190  0.2104
  949POPC   C2B12868   0.159  12.671   6.768 -0.0942  0.0944  0.1233
  949POPC   C3B12869   0.374  12.925   7.072 -0.2924 -0.0641 -0.3730
  949POPC   C4B12870   0.522  12.820   7.516  0.0257 -0.4214  0.0314
  950POPC   NC312871   0.438   0.067   5.941 -0.0316 -0.1591 -0.2522
  950POPC   PO412872  -0.013  -0.001   5.973  0.1924 -0.0819 -0.0870
  950POPC   GL112873   0.230  -0.095   6.388 -0.0180 -0.1233 -0.2113
  950POPC   GL212874   0.265  -0.440   6.367  0.1621 -0.0364 -0.1398
  950POPC   C1A12875   0.307  -0.199   6.836 -0.1847  0.1950  0.1135
  950POPC   D2A12876   0.237  -0.269   7.232 -0.2303 -0.1631  0.0946
  950POPC   C3A12877   0.440  -0.397   7.626 -0.0041  0.0493  0.1223
  950POPC   C4A12878   0.542  -0.337   8.017  0.3345 -0.0931 -0.3444
  950POPC   C1B12879  -0.174  -0.546   6.502 -0.2707 -0.4150  0.0308
  950POPC   C2B12880  -0.464  -0.827   6.574  0.0109  0.0973  0.3507
  950POPC   C3B12881  -0.551  -0.926   6.968 -0.1741  0.1504  0.1136
  950POPC   C4B12882  -0.475  -0.998   7.313  0.2510  0.0357  0.1118
  951POPC   NC312883  11.203   0.738   6.474  0.2062 -0.1294  0.2737
  951POPC   PO412884  11.540   0.524   6.690  0.2519  0.1841  0.1802
  951POPC   GL112885  11.679   0.586   7.095  0.0198 -0.0002  0.0975
  951POPC   GL212886  11.590   0.350   7.244  0.1569  0.0367 -0.0392
  951POPC   C1A12887  11.661   0.539   7.638  0.3749 -0.1965 -0.1192
  951POPC   D2A12888  11.685   0.507   7.975  0.3892  0.0468 -0.0379
  951POPC   C3A12889  11.873   0.620   8.263  0.2352  0.2438 -0.0694
  951POPC   C4A12890  12.149   0.806   8.453 -0.0534  0.2270  0.1202
  951POPC   C1B12891  11.657   0.006   7.520 -0.4206  0.3664  0.0136
  951POPC   C2B12892  11.717  -0.042   7.892 -0.0465 -0.2675 -0.2869
  951POPC   C3B12893  11.895   0.092   8.222  0.0118  0.2852  0.1565
  951POPC   C4B12894  12.208   0.318   8.346  0.0375 -0.0744 -0.1414
  952POPC   NC312895   1.965   6.899   5.531 -0.0699  0.0262  0.0496
  952POPC   PO412896   1.932   6.480   5.640  0.0463  0.1176  0.2073
  952POPC   GL112897   1.770   6.516   5.966  0.0444 -0.2634  0.0287
  952POPC   GL212898   1.691   6.113   6.028 -0.0866 -0.1937  0.1316
  952POPC   C1A12899   1.661   6.434   6.479 -0.1311  0.0428 -0.0960
  952POPC   D2A12900   1.626   6.550   6.978 -0.0479  0.1580 -0.1499
  952POPC   C3A12901   1.597   6.532   7.410 -0.2518 -0.0823  0.0586
  952POPC   C4A12902   1.256   6.522   7.682 -0.0772 -0.1413  0.3182
  952POPC   C1B12903   1.687   5.945   6.432 -0.0309  0.0926 -0.1661
  952POPC   C2B12904   1.503   6.032   6.805 -0.1092  0.1400 -0.0923
  952POPC   C3B12905   1.562   6.042   7.205 -0.1419  0.1501 -0.1769
  952POPC   C4B12906   1.842   5.776   7.295 -0.0888 -0.0452  0.1974
  953POPC   NC312907   2.664   8.121   5.228  0.1383 -0.0696  0.2853
  953POPC   PO412908   2.794   7.860   5.547 -0.1026  0.0530 -0.2778
  953POPC   GL112909   2.529   7.908   6.005  0.0051 -0.1076  0.0421
  953POPC   GL212910   2.253   7.681   6.032 -0.0151 -0.1490 -0.5624
  953POPC   C1A12911   2.387   8.256   6.386  0.0952 -0.1320  0.0408
  953POPC   D2A12912   2.375   8.365   6.786  0.0279  0.0114  0.3053
  953POPC   C3A12913   2.555   8.082   7.178 -0.1067  0.0516  0.1617
  953POPC   C4A12914   2.653   7.855   7.542  0.1385  0.3459  0.0906
  953POPC   C1B12915   2.029   7.782   6.422  0.2495 -0.1827 -0.2497
  953POPC   C2B12916   1.753   8.007   6.668 -0.2620  0.0562  0.1558
  953POPC   C3B12917   1.620   8.184   7.049  0.1146 -0.1946  0.0965
  953POPC   C4B12918   1.642   8.090   7.451  0.0370 -0.2872 -0.2555
  954POPC   NC312919  10.758  10.874   5.968 -0.0716  0.1049  0.0462
  954POPC   PO412920  10.621  10.469   6.084 -0.2813 -0.1534 -0.5027
  954POPC   GL112921  10.417  10.388   6.471  0.1955 -0.0816 -0.1361
  954POPC   GL212922  10.528  10.469   6.734 -0.0928  0.0697 -0.0680
  954POPC   C1A12923  10.166  10.135   6.843 -0.4817  0.0635  0.1077
  954POPC   D2A12924   9.858  10.147   7.129 -0.0885 -0.0575 -0.0048
  954POPC   C3A12925   9.962   9.863   7.511  0.1443 -0.1750  0.2428
  954POPC   C4A12926   9.807   9.687   7.956  0.0373 -0.1556  0.0394
  954POPC   C1B12927  10.322  10.456   7.222  0.3085  0.1641 -0.3960
  954POPC   C2B12928   9.922  10.609   7.358  0.4823 -0.2256  0.1441
  954POPC   C3B12929   9.499  10.559   7.234  0.2500  0.2423  0.1260
  954POPC   C4B12930   9.304  10.204   7.014  0.0038  0.0037  0.3368
  955POPC   NC312931  13.351  14.270   5.810 -0.1390  0.1085  0.2648
  955POPC   PO412932  13.099  14.390   6.231 -0.1512  0.1091  0.0553
  955POPC   GL112933  13.282  14.465   6.659  0.0903 -0.1084 -0.1878
  955POPC   GL212934  13.625  14.433   6.618  0.1142  0.1684 -0.3557
  955POPC   C1A12935  13.585  14.342   7.089 -0.0929  0.1152 -0.2472
  955POPC   D2A12936  13.683  14.166   7.429 -0.0145  0.1465 -0.2445
  955POPC   C3A12937  13.930  14.052   7.787  0.2091 -0.3180  0.0002
  955POPC   C4A12938  14.359  14.107   7.890  0.2011 -0.2849  0.1507
  955POPC   C1B12939  13.865  14.756   6.917 -0.0590  0.2247 -0.3023
  955POPC   C2B12940  13.784  15.141   7.338  0.1504  0.0986  0.0780
  955POPC   C3B12941  14.133  15.296   7.621 -0.3371 -0.1208 -0.2113
  955POPC   C4B12942  14.434  15.329   7.967 -0.2901 -0.0412  0.1249
  956POPC   NC312943   1.295  13.249   5.223  0.1205  0.1820  0.0541
  956POPC   PO412944   1.313  13.485   5.634 -0.1315 -0.0157  0.0954
  956POPC   GL112945   1.238  13.664   6.027  0.0329 -0.0692  0.0696
  956POPC   GL212946   1.521  13.946   5.932  0.0392  0.0690 -0.0011
  956POPC   C1A12947   1.216  13.966   6.325  0.0315  0.4359  0.2047
  956POPC   D2A12948   1.123  14.376   6.412  0.2385 -0.0268  0.0641
  956POPC   C3A12949   1.278  14.533   6.731  0.3731 -0.0385 -0.0657
  956POPC   C4A12950   1.281  14.554   7.219 -0.0472 -0.0419 -0.0912
  956POPC   C1B12951   1.666  13.788   6.298  0.0958  0.3452 -0.1896
  956POPC   C2B12952   1.438  13.561   6.632 -0.3099 -0.0049 -0.0716
  956POPC   C3B12953   1.450  13.731   7.079  0.0991  0.0137  0.1415
  956POPC   C4B12954   1.498  13.748   7.477 -0.0346 -0.0127 -0.0060
  957POPC   NC312955   8.247  14.816   6.030 -0.1845 -0.0533  0.4074
  957POPC   PO412956   8.135  14.707   6.488 -0.2085 -0.0455 -0.1785
  957POPC   GL112957   8.381  14.627   6.893 -0.3049 -0.0975 -0.1684
  957POPC   GL212958   8.695  14.836   6.981 -0.1161  0.0924  0.2110
  957POPC   C1A12959   8.557  14.546   7.338  0.2338 -0.3249 -0.0455
  957POPC   D2A12960   8.678  14.645   7.759 -0.2263  0.0363  0.0798
  957POPC   C3A12961   8.561  14.481   8.099 -0.0489  0.1918  0.0055
  957POPC   C4A12962   8.791  14.097   8.213 -0.2606  0.0654 -0.3450
  957POPC   C1B12963   8.807  15.003   7.304  0.0481  0.2446  0.0461
  957POPC   C2B12964   8.840  15.101   7.749 -0.2273 -0.2681 -0.0456
  957POPC   C3B12965   8.649  15.029   8.120  0.1754  0.1445 -0.1250
  957POPC   C4B12966   8.606  14.906   8.590  0.0668 -0.0541  0.2707
  958POPC   NC312967  13.004  10.062   5.899  0.1295 -0.2987  0.0613
  958POPC   PO412968  12.896  10.485   6.058 -0.0253  0.1021 -0.2653
  958POPC   GL112969  13.136  10.396   6.460  0.0623  0.0283  0.1545
  958POPC   GL212970  13.272  10.731   6.501 -0.0506  0.1760 -0.0863
  958POPC   C1A12971  13.303  10.468   6.930  0.0052 -0.1191 -0.2232
  958POPC   D2A12972  13.443  10.630   7.330 -0.3264  0.1663 -0.2673
  958POPC   C3A12973  13.514  10.510   7.677  0.0177 -0.1690 -0.0573
  958POPC   C4A12974  13.313  10.324   7.983  0.0885 -0.1929 -0.2987
  958POPC   C1B12975  13.419  10.930   6.867  0.1440 -0.1615  0.2827
  958POPC   C2B12976  13.628  11.153   7.321  0.2300 -0.0718 -0.1873
  958POPC   C3B12977  13.778  10.974   7.797  0.0988  0.1726  0.2696
  958POPC   C4B12978  13.825  10.646   8.069 -0.2960  0.0988  0.0215
  959POPC   NC312979   9.794  17.280   6.060  0.1524 -0.1129 -0.2095
  959POPC   PO412980   9.614  17.683   6.335 -0.0256 -0.1220  0.1764
  959POPC   GL112981   9.590  17.651   6.798  0.0172  0.1762  0.0374
  959POPC   GL212982   9.331  17.419   6.946  0.0514 -0.1412  0.1369
  959POPC   C1A12983   9.663  17.721   7.265 -0.0395 -0.1518  0.1341
  959POPC   D2A12984   9.666  17.597   7.635  0.1841 -0.0142 -0.0773
  959POPC   C3A12985   9.743  17.790   7.969  0.2019 -0.1722  0.2768
  959POPC   C4A12986   9.848  18.141   8.224 -0.3198 -0.0982 -0.0274
  959POPC   C1B12987   9.347  17.328   7.326 -0.0919 -0.1496 -0.2471
  959POPC   C2B12988   9.062  17.246   7.696  0.2269  0.0187 -0.1834
  959POPC   C3B12989   9.028  17.160   8.164  0.1826 -0.1501 -0.0672
  959POPC   C4B12990   8.857  17.019   8.588  0.1488  0.3143 -0.3196
  960POPC   NC312991   9.110   1.016   6.554  0.2185 -0.1914 -0.0137
  960POPC   PO412992   8.699   1.178   6.679  0.0427  0.1630  0.1134
  960POPC   GL112993   8.430   1.001   6.928 -0.2530  0.2015  0.1432
  960POPC   GL212994   8.241   1.104   7.023  0.0722  0.1196 -0.0387
  960POPC   C1A12995   8.506   0.684   7.221 -0.1681 -0.2089  0.2069
  960POPC   D2A12996   8.751   0.846   7.580  0.1969  0.3032  0.0841
  960POPC   C3A12997   8.746   0.830   7.981 -0.0229 -0.0653  0.2778
  960POPC   C4A12998   8.886   0.627   8.312 -0.2160  0.0284 -0.0553
  960POPC   C1B12999   8.284   1.080   7.499  0.0157  0.1079  0.5360
  960POPC   C2B13000   8.172   0.987   7.888  0.1443  0.2504 -0.2898
  960POPC   C3B13001   8.283   1.063   8.247 -0.3101 -0.1009  0.2026
  960POPC   C4B13002   8.350   1.072   8.691 -0.2479 -0.0754  0.0516
  961POPC   NC313003  17.427   0.373   6.110 -0.0393  0.0593  0.1437
  961POPC   PO413004  17.151   0.689   6.144 -0.1754 -0.0340 -0.1554
  961POPC   GL113005  17.426   0.769   6.562 -0.3844  0.0943 -0.2092
  961POPC   GL213006  17.671   0.794   6.359 -0.2685  0.1771 -0.2628
  961POPC   C1A13007  17.583   0.719   6.876 -0.0593 -0.3627  0.1576
  961POPC   D2A13008  17.386   0.713   7.180  0.0842  0.0239  0.0554
  961POPC   C3A13009  17.258   0.593   7.615 -0.1134  0.1540  0.1898
  961POPC   C4A13010  16.928   0.632   7.908 -0.0687 -0.2460  0.2472
  961POPC   C1B13011  18.021   0.750   6.688 -0.3287  0.0026 -0.0376
  961POPC   C2B13012  18.064   0.658   7.095 -0.1747  0.0482  0.0527
  961POPC   C3B13013  17.788   0.638   7.543 -0.0316  0.0368 -0.0963
  961POPC   C4B13014  17.788   0.420   7.978  0.0151  0.0534 -0.0119
  962POPC   NC313015  13.654   5.317   6.188 -0.3068 -0.0373  0.1767
  962POPC   PO413016  14.075   5.286   5.858 -0.1634  0.0544  0.0520
  962POPC   GL113017  14.189   5.372   6.359  0.1614  0.1264  0.2654
  962POPC   GL213018  13.981   5.241   6.567 -0.0035  0.2499  0.0739
  962POPC   C1A13019  14.338   5.707   6.610 -0.0982 -0.3165  0.0082
  962POPC   D2A13020  14.257   5.873   7.065  0.0724 -0.0873 -0.0315
  962POPC   C3A13021  14.502   5.902   7.472  0.0533  0.0837  0.1815
  962POPC   C4A13022  14.670   5.899   7.873  0.1102  0.0913  0.0171
  962POPC   C1B13023  13.961   5.452   6.972  0.3027  0.2846 -0.2139
  962POPC   C2B13024  14.035   5.590   7.436  0.2318  0.0346  0.3782
  962POPC   C3B13025  14.091   5.782   7.867  0.0454  0.0722  0.1979
  962POPC   C4B13026  14.052   5.896   8.344  0.3168  0.0959  0.1435
  963POPC   NC313027  15.879   3.101   5.388  0.0602 -0.3813  0.1872
  963POPC   PO413028  15.971   2.845   5.648 -0.1981 -0.1185  0.1980
  963POPC   GL113029  16.046   3.055   5.995 -0.1161 -0.0530 -0.1983
  963POPC   GL213030  15.788   3.096   6.129  0.1046 -0.2374  0.2287
  963POPC   C1A13031  16.242   2.912   6.404 -0.2214 -0.0255 -0.0971
  963POPC   D2A13032  16.217   2.911   6.923  0.1485  0.0431  0.1755
  963POPC   C3A13033  15.848   2.973   7.143 -0.3683 -0.0540  0.1755
  963POPC   C4A13034  15.683   2.885   7.537 -0.0755 -0.1346 -0.0395
  963POPC   C1B13035  15.389   3.037   6.327 -0.2633 -0.1864 -0.1513
  963POPC   C2B13036  15.048   2.926   6.549  0.1430 -0.2179  0.1558
  963POPC   C3B13037  14.860   2.902   7.017  0.0800 -0.1686  0.2167
  963POPC   C4B13038  14.665   2.940   7.363 -0.0253  0.1816  0.1144
  964POPC   NC313039   3.937  12.737   5.530  0.1451 -0.2141  0.0324
  964POPC   PO413040   4.080  12.988   5.884  0.0755  0.0532 -0.0827
  964POPC   GL113041   4.117  13.172   6.326  0.1301  0.0613  0.0501
  964POPC   GL213042   4.250  13.241   6.687 -0.1501 -0.4688 -0.0150
  964POPC   C1A13043   3.959  13.643   6.631  0.0745 -0.0548 -0.3349
  964POPC   D2A13044   3.916  13.797   6.983  0.1436 -0.0716  0.1547
  964POPC   C3A13045   4.226  13.807   7.324  0.2193  0.5673  0.0351
  964POPC   C4A13046   4.266  14.046   7.786  0.3418  0.0778  0.0768
  964POPC   C1B13047   4.269  13.376   7.076 -0.0197  0.1695  0.1766
  964POPC   C2B13048   4.275  13.264   7.446  0.0520  0.1633  0.0487
  964POPC   C3B13049   3.884  13.020   7.673 -0.1085  0.0709 -0.0098
  964POPC   C4B13050   3.632  12.988   8.102  0.2922  0.0358 -0.0626
  965POPC   NC313051   5.902  16.710   5.690  0.1244 -0.1689 -0.1817
  965POPC   PO413052   5.660  16.706   5.994 -0.3773  0.2331  0.1240
  965POPC   GL113053   5.464  16.727   6.424  0.0546  0.3341 -0.3315
  965POPC   GL213054   5.676  16.713   6.634  0.0134  0.0534  0.0441
  965POPC   C1A13055   5.302  16.356   6.678 -0.0533 -0.1156 -0.0834
  965POPC   D2A13056   5.362  15.904   6.564 -0.1248 -0.1020  0.0527
  965POPC   C3A13057   5.352  15.635   6.880  0.0271 -0.3607  0.2104
  965POPC   C4A13058   5.418  15.409   7.223  0.1111 -0.1043  0.1350
  965POPC   C1B13059   5.597  16.728   7.005 -0.1952 -0.0601 -0.2411
  965POPC   C2B13060   5.552  16.788   7.509 -0.1063 -0.1573  0.0101
  965POPC   C3B13061   5.787  16.715   7.886 -0.1240  0.0469 -0.0306
  965POPC   C4B13062   5.620  16.708   8.246 -0.3723  0.1098  0.1754
  966POPC   NC313063  10.930   5.227   6.190 -0.1450 -0.1239  0.0141
  966POPC   PO413064  11.233   5.474   6.252 -0.0347 -0.3475  0.2148
  966POPC   GL113065  11.101   5.683   6.673  0.1671  0.0672 -0.1761
  966POPC   GL213066  11.288   5.912   6.815 -0.1632  0.0215 -0.0516
  966POPC   C1A13067  11.114   5.344   6.952  0.0134  0.0207  0.1196
  966POPC   D2A13068  11.477   5.419   7.150  0.0562 -0.0296  0.0459
  966POPC   C3A13069  11.672   5.779   7.380  0.1377  0.1419  0.1213
  966POPC   C4A13070  11.701   5.845   7.902 -0.0252 -0.5447 -0.2862
  966POPC   C1B13071  11.180   5.792   7.243  0.1154  0.2601  0.2566
  966POPC   C2B13072  11.299   5.667   7.674  0.0709  0.0457  0.0373
  966POPC   C3B13073  11.319   5.533   8.162 -0.1047 -0.0769  0.1053
  966POPC   C4B13074  11.160   5.321   8.540  0.2023  0.0026  0.1764
  967POPC   NC313075   6.126   2.434   6.485  0.0138 -0.0069  0.4229
  967POPC   PO413076   5.615   2.726   6.455 -0.0513 -0.3274  0.2929
  967POPC   GL113077   5.813   2.903   6.764 -0.3386 -0.2138 -0.0249
  967POPC   GL213078   5.995   2.619   6.985 -0.2891 -0.1428 -0.0772
  967POPC   C1A13079   5.640   2.925   7.205  0.1024  0.0500  0.0172
  967POPC   D2A13080   5.531   2.941   7.662  0.1792  0.1705  0.1551
  967POPC   C3A13081   5.647   2.728   7.986  0.1978  0.2163  0.2295
  967POPC   C4A13082   5.977   2.608   8.254 -0.0687  0.0990  0.0004
  967POPC   C1B13083   5.975   2.675   7.458 -0.0525 -0.1143 -0.1681
  967POPC   C2B13084   6.044   2.431   7.784 -0.2960 -0.0978 -0.0949
  967POPC   C3B13085   6.275   2.284   8.058  0.0596 -0.3273  0.0960
  967POPC   C4B13086   6.489   2.353   8.368 -0.0585  0.5632  0.1099
  968POPC   NC313087   0.762   7.820   5.449 -0.2770 -0.0440  0.1009
  968POPC   PO413088   0.685   7.419   5.469 -0.0352  0.2013 -0.1245
  968POPC   GL113089   0.967   7.103   5.660 -0.0072  0.2180 -0.0484
  968POPC   GL213090   1.222   7.357   5.940 -0.0291 -0.1847  0.1860
  968POPC   C1A13091   0.893   6.758   6.024  0.0307 -0.0405 -0.0497
  968POPC   D2A13092   1.125   6.493   6.255  0.0188  0.3285 -0.1336
  968POPC   C3A13093   1.240   6.455   6.652  0.0674  0.3072  0.0773
  968POPC   C4A13094   1.268   6.917   6.914  0.2068  0.0921 -0.0744
  968POPC   C1B13095   0.921   7.363   6.136  0.1906 -0.1623  0.1202
  968POPC   C2B13096   0.654   7.637   6.090 -0.1244 -0.0512 -0.0666
  968POPC   C3B13097   0.389   7.946   6.341  0.0018  0.1064  0.0357
  968POPC   C4B13098   0.369   8.396   6.640  0.0691  0.0823  0.1013
  969POPC   NC313099   6.441   7.391   5.946 -0.0032 -0.0372  0.1182
  969POPC   PO413100   6.685   7.321   6.256 -0.2210  0.1152  0.0241
  969POPC   GL113101   6.921   7.248   6.600  0.2722  0.0557 -0.0836
  969POPC   GL213102   6.979   6.882   6.570 -0.4409  0.1960 -0.0798
  969POPC   C1A13103   7.135   7.353   7.019  0.2917  0.0422 -0.0855
  969POPC   D2A13104   7.333   7.055   7.416  0.1052  0.4830  0.1831
  969POPC   C3A13105   7.326   7.249   7.764 -0.0488  0.0711 -0.0154
  969POPC   C4A13106   7.164   7.529   7.960  0.0905 -0.0368  0.1314
  969POPC   C1B13107   6.916   6.643   6.955 -0.2392 -0.3270  0.0855
  969POPC   C2B13108   6.863   6.665   7.391 -0.2265  0.0539 -0.2127
  969POPC   C3B13109   6.684   6.694   7.847 -0.1116  0.0319 -0.0216
  969POPC   C4B13110   6.623   6.611   8.283  0.0527  0.0673  0.0192
  970POPC   NC313111   7.487  11.756   6.076 -0.0305  0.1539 -0.0965
  970POPC   PO413112   7.086  11.746   5.918 -0.1099 -0.1901  0.1716
  970POPC   GL113113   7.023  11.833   6.363  0.2790 -0.1833 -0.2118
  970POPC   GL213114   7.203  11.586   6.422  0.2013  0.0832  0.1089
  970POPC   C1A13115   6.856  11.968   6.733  0.0958  0.1143  0.4082
  970POPC   D2A13116   6.920  11.854   7.110  0.1139 -0.0785  0.0200
  970POPC   C3A13117   6.749  12.026   7.393 -0.1522  0.0917 -0.0653
  970POPC   C4A13118   6.659  12.037   7.849 -0.0134  0.1887  0.1076
  970POPC   C1B13119   7.250  11.375   6.678  0.1625 -0.0991 -0.1782
  970POPC   C2B13120   7.344  11.449   7.053 -0.0176 -0.3381  0.0651
  970POPC   C3B13121   7.365  11.266   7.435 -0.3129  0.1674  0.0878
  970POPC   C4B13122   7.681  11.100   7.764  0.1264  0.1445  0.1167
  971POPC   NC313123   9.155   1.985   6.621  0.2850 -0.1245  0.0036
  971POPC   PO413124   8.999   1.562   6.630 -0.1976 -0.0264  0.1368
  971POPC   GL113125   9.245   1.431   6.940  0.0382  0.1970  0.0919
  971POPC   GL213126   9.296   1.675   7.132 -0.1455 -0.0919 -0.1345
  971POPC   C1A13127   9.206   1.183   7.244  0.1517 -0.1028 -0.0960
  971POPC   D2A13128   9.212   0.737   7.321  0.2264  0.3564  0.1908
  971POPC   C3A13129   9.191   0.625   7.792 -0.0337 -0.1045 -0.0901
  971POPC   C4A13130   9.395   0.654   8.206 -0.0419 -0.0372 -0.2064
  971POPC   C1B13131   9.330   1.554   7.592 -0.1013  0.1410  0.1892
  971POPC   C2B13132   9.211   1.564   7.994  0.0227 -0.1486  0.2706
  971POPC   C3B13133   8.993   1.699   8.312 -0.0366  0.0213 -0.0706
  971POPC   C4B13134   8.737   1.755   8.662  0.4739  0.1013 -0.0973
  972POPC   NC313135   8.552   0.699   6.562 -0.0760  0.1016  0.0895
  972POPC   PO413136   8.754   0.449   6.673 -0.1528 -0.4774 -0.1661
  972POPC   GL113137   8.973   0.361   7.109  0.0751 -0.2317  0.1650
  972POPC   GL213138   9.223   0.105   7.079  0.0265 -0.1763  0.3185
  972POPC   C1A13139   8.819   0.352   7.557  0.1230  0.1053 -0.0045
  972POPC   D2A13140   8.823   0.269   8.015 -0.2745 -0.1158  0.0266
  972POPC   C3A13141   8.914  -0.145   8.160 -0.1900  0.2328  0.1316
  972POPC   C4A13142   9.375  -0.320   8.056  0.1298  0.0773 -0.0093
  972POPC   C1B13143   9.184  -0.013   7.481  0.2343  0.0437  0.1521
  972POPC   C2B13144   9.248   0.097   7.860  0.0591 -0.0180 -0.1987
  972POPC   C3B13145   9.347   0.191   8.257  0.0216  0.1367  0.0281
  972POPC   C4B13146   9.049   0.169   8.560 -0.3659  0.2717  0.1992
  973POPC   NC313147   2.402  14.936   5.219 -0.1066  0.0410  0.0018
  973POPC   PO413148   2.573  15.061   5.683 -0.1258  0.0214 -0.1337
  973POPC   GL113149   2.403  15.216   6.068  0.0068 -0.0073 -0.1147
  973POPC   GL213150   2.640  14.955   6.207 -0.0696 -0.1850  0.2734
  973POPC   C1A13151   2.454  15.597   6.341 -0.0946 -0.2640  0.2676
  973POPC   D2A13152   2.268  15.805   6.697  0.1595  0.2500  0.1290
  973POPC   C3A13153   2.202  15.700   7.083  0.0307  0.0377 -0.2197
  973POPC   C4A13154   1.923  15.614   7.441 -0.0000  0.0340 -0.1343
  973POPC   C1B13155   2.470  15.017   6.584 -0.1141 -0.0707  0.0553
  973POPC   C2B13156   2.312  15.031   6.988  0.0943  0.0994  0.1409
  973POPC   C3B13157   2.087  15.070   7.327 -0.0955  0.1250  0.0480
  973POPC   C4B13158   1.762  15.190   7.591  0.1412 -0.1433 -0.1964
  974POPC   NC313159  11.258   4.208   6.482 -0.0915 -0.0446 -0.1158
  974POPC   PO413160  11.555   3.800   6.545 -0.0989 -0.4586  0.3114
  974POPC   GL113161  11.750   3.696   6.846 -0.2468 -0.2676  0.0840
  974POPC   GL213162  11.833   3.980   7.018  0.1126  0.1872  0.1832
  974POPC   C1A13163  12.024   3.492   7.185  0.1358 -0.1906 -0.1813
  974POPC   D2A13164  12.156   3.360   7.695  0.1871 -0.1368 -0.2546
  974POPC   C3A13165  11.904   3.117   7.916  0.0486 -0.1743  0.1317
  974POPC   C4A13166  11.965   2.863   8.361 -0.1142 -0.0037  0.1749
  974POPC   C1B13167  11.533   3.864   7.327 -0.0854  0.3223 -0.2498
  974POPC   C2B13168  11.286   3.773   7.703  0.2668  0.2814  0.0335
  974POPC   C3B13169  11.142   3.946   8.004  0.2628 -0.1055 -0.1353
  974POPC   C4B13170  10.875   4.131   8.388 -0.1286 -0.0723 -0.3074
  975POPC   NC313171   7.290   1.503   6.186 -0.2051 -0.0359  0.0728
  975POPC   PO413172   7.186   1.808   6.357  0.0090 -0.1812 -0.0073
  975POPC   GL113173   7.226   1.857   6.807  0.1671  0.3408 -0.0903
  975POPC   GL213174   6.975   1.767   7.012  0.1616  0.0272 -0.0543
  975POPC   C1A13175   7.396   1.974   7.280 -0.0474  0.0333  0.1681
  975POPC   D2A13176   7.207   2.014   7.640 -0.4265 -0.3369 -0.1046
  975POPC   C3A13177   7.336   2.356   8.022  0.2566 -0.2579 -0.0243
  975POPC   C4A13178   7.573   2.534   8.230 -0.2065  0.1473 -0.2722
  975POPC   C1B13179   6.780   1.738   7.385 -0.0743  0.0653  0.1727
  975POPC   C2B13180   6.796   1.786   7.845 -0.1701 -0.0035  0.1790
  975POPC   C3B13181   6.734   1.726   8.184  0.0623 -0.0175 -0.3659
  975POPC   C4B13182   7.122   1.459   8.414 -0.2921  0.0268  0.2213
  976POPC   NC313183   4.138  17.731   5.724  0.2312 -0.1782 -0.4859
  976POPC   PO413184   4.472  17.806   5.930 -0.0136  0.0680 -0.0599
  976POPC   GL113185   4.533  17.835   6.378 -0.0234 -0.1900 -0.3002
  976POPC   GL213186   4.814  17.696   6.484  0.1051 -0.2713  0.1905
  976POPC   C1A13187   4.284  17.792   6.764  0.2048 -0.0225  0.1198
  976POPC   D2A13188   4.374  17.724   7.243  0.0647  0.5477 -0.0225
  976POPC   C3A13189   4.337  17.532   7.562  0.0355  0.1507  0.1167
  976POPC   C4A13190   4.071  17.186   7.715 -0.1963  0.1457 -0.0525
  976POPC   C1B13191   4.828  17.752   6.950  0.2374  0.3939  0.1137
  976POPC   C2B13192   4.771  17.421   7.312 -0.0501  0.1955 -0.2876
  976POPC   C3B13193   4.732  17.274   7.802  0.2396  0.4080 -0.1505
  976POPC   C4B13194   4.735  17.354   8.259 -0.3098  0.2712 -0.0033
  977POPC   NC313195  12.209   2.440   6.149  0.1295 -0.1071 -0.1430
  977POPC   PO413196  12.500   2.860   6.208  0.0118 -0.0211 -0.1314
  977POPC   GL113197  12.798   2.595   6.383 -0.2472  0.0053  0.1947
  977POPC   GL213198  12.551   2.534   6.659 -0.1153 -0.0470 -0.3545
  977POPC   C1A13199  13.041   2.186   6.500 -0.0961 -0.4235 -0.0604
  977POPC   D2A13200  13.390   1.962   6.609  0.2600  0.0209 -0.2311
  977POPC   C3A13201  13.606   1.667   7.015  0.1816 -0.2503  0.2133
  977POPC   C4A13202  13.698   1.802   7.437  0.1989 -0.0593 -0.1672
  977POPC   C1B13203  12.809   2.257   6.955 -0.1897  0.0330 -0.0474
  977POPC   C2B13204  13.249   2.303   7.046  0.1304  0.2028  0.0836
  977POPC   C3B13205  13.657   2.159   7.014 -0.1906 -0.1302  0.0194
  977POPC   C4B13206  14.014   2.310   6.803 -0.2193 -0.0737 -0.0709
  978POPC   NC313207   9.673  11.449   6.263  0.3084 -0.0682 -0.0866
  978POPC   PO413208  10.081  11.330   6.117  0.0448 -0.1775 -0.1999
  978POPC   GL113209   9.872  11.089   6.562 -0.1042  0.2329  0.3712
  978POPC   GL213210   9.503  11.119   6.673 -0.0687  0.0500  0.0337
  978POPC   C1A13211   9.816  11.044   7.030 -0.1073 -0.0057  0.0491
  978POPC   D2A13212   9.580  11.125   7.436  0.0758  0.1052 -0.0270
  978POPC   C3A13213   9.684  11.273   7.821 -0.0871  0.0731 -0.0864
  978POPC   C4A13214   9.872  11.130   8.150  0.2491  0.0597  0.1421
  978POPC   C1B13215   9.224  10.959   7.104 -0.1459 -0.1049  0.0312
  978POPC   C2B13216   9.133  10.853   7.512  0.0576 -0.0524  0.2223
  978POPC   C3B13217   9.311  10.891   8.047  0.1068 -0.0736 -0.1539
  978POPC   C4B13218   9.436  10.934   8.495  0.0724  0.1717 -0.0164
  979POPC   NC313219   7.393  13.128   5.983  0.0130  0.2615  0.1876
  979POPC   PO413220   7.229  12.737   6.196 -0.0010 -0.3915  0.2237
  979POPC   GL113221   7.312  12.880   6.632 -0.0737  0.2390 -0.0306
  979POPC   GL213222   7.350  13.204   6.525  0.0102 -0.0415  0.3074
  979POPC   C1A13223   7.180  12.858   6.987 -0.0983  0.0686 -0.1116
  979POPC   D2A13224   6.840  12.951   7.048 -0.0508  0.0849  0.0258
  979POPC   C3A13225   6.566  12.629   7.222 -0.1227 -0.1639  0.0213
  979POPC   C4A13226   6.384  12.362   7.499 -0.1148  0.0854 -0.0297
  979POPC   C1B13227   6.981  13.326   6.699  0.1310  0.1998  0.3274
  979POPC   C2B13228   6.699  13.441   6.934 -0.2496 -0.1372  0.0041
  979POPC   C3B13229   6.571  13.561   7.327 -0.0970 -0.1131  0.4959
  979POPC   C4B13230   6.291  13.477   7.678 -0.3445  0.0293  0.0144
  980POPC   NC313231   6.682  15.796   6.295 -0.0241  0.0572 -0.2575
  980POPC   PO413232   6.941  16.160   6.399  0.1230  0.4555  0.0859
  980POPC   GL113233   6.804  16.001   6.722  0.0732  0.4437 -0.0290
  980POPC   GL213234   6.584  16.265   6.908 -0.0167  0.0076 -0.1538
  980POPC   C1A13235   6.519  15.769   7.012 -0.1143  0.0567 -0.0169
  980POPC   D2A13236   6.343  15.574   7.330 -0.3160 -0.3088 -0.2275
  980POPC   C3A13237   6.259  15.585   7.757  0.0146  0.0767 -0.1887
  980POPC   C4A13238   6.339  15.434   8.138 -0.0760 -0.1455  0.0668
  980POPC   C1B13239   6.198  16.089   7.150  0.1163 -0.2249 -0.0710
  980POPC   C2B13240   6.023  16.109   7.532 -0.1672  0.1343  0.0067
  980POPC   C3B13241   5.755  15.788   7.759  0.3884  0.2821  0.0725
  980POPC   C4B13242   5.569  15.846   8.174  0.4637 -0.1127  0.0628
  981POPC   NC313243   5.630  14.384   6.251  0.0420  0.4180  0.0829
  981POPC   PO413244   6.096  14.329   6.195 -0.0456 -0.2720 -0.4655
  981POPC   GL113245   6.084  14.466   6.576 -0.0892 -0.3140 -0.0310
  981POPC   GL213246   6.289  14.355   6.806 -0.1705 -0.2998  0.2671
  981POPC   C1A13247   5.741  14.555   6.842 -0.0094 -0.0559  0.1268
  981POPC   D2A13248   5.557  14.465   7.215 -0.0325 -0.1387 -0.1191
  981POPC   C3A13249   5.664  14.142   7.460 -0.0201 -0.0617  0.0482
  981POPC   C4A13250   5.784  14.090   7.803  0.2775  0.0758 -0.2207
  981POPC   C1B13251   6.202  14.763   6.976 -0.0075  0.0703 -0.2577
  981POPC   C2B13252   6.245  15.112   7.271  0.1107  0.1715 -0.0804
  981POPC   C3B13253   6.223  15.101   7.736 -0.0232  0.2452 -0.2549
  981POPC   C4B13254   6.516  14.908   7.980 -0.2475 -0.4577  0.2302
  982YOPC   NC313255  12.263  16.794   6.593 -0.3760  0.2608 -0.3362
  982YOPC   PO413256  12.178  16.304   6.512 -0.2262  0.0760 -0.0168
  982YOPC   GL113257  12.182  16.325   6.873  0.1707 -0.2811  0.0119
  982YOPC   GL213258  12.537  16.406   6.930  0.2312 -0.0163 -0.1077
  982YOPC   C1A13259  12.116  16.554   7.229  0.1155 -0.0568 -0.0372
  982YOPC   D2A13260  12.377  16.796   7.475  0.1770 -0.2249  0.1026
  982YOPC   C3A13261  12.688  16.960   7.255 -0.1200  0.0202 -0.1181
  982YOPC   C4A13262  13.039  16.768   7.113  0.2229  0.2196  0.1416
  982YOPC   C1B13263  12.675  16.412   7.365  0.0221 -0.2085  0.2230
  982YOPC   C2B13264  13.096  16.284   7.556 -0.1484  0.1349  0.0320
  982YOPC   D3B13265  13.520  16.240   7.723  0.0135  0.2317  0.1336
  982YOPC   C4B13266  13.803  16.419   8.012 -0.1934  0.0953 -0.0727
  983YOPC   NC313267  17.368   6.889   6.059  0.1869  0.4104  0.0584
  983YOPC   PO413268  17.740   6.734   5.709  0.1583 -0.2778  0.0012
  983YOPC   GL113269  17.914   7.039   5.962 -0.0936  0.0854  0.0767
  983YOPC   GL213270  18.239   7.049   5.846 -0.0658  0.0542 -0.1100
  983YOPC   C1A13271  18.017   7.385   6.174  0.2094 -0.0631 -0.1712
  983YOPC   D2A13272  17.946   7.552   6.588 -0.0847  0.0946 -0.0994
  983YOPC   C3A13273  18.265   7.725   6.768 -0.1111 -0.1855 -0.1250
  983YOPC   C4A13274  18.623   7.715   6.997 -0.0866 -0.0733 -0.1213
  983YOPC   C1B13275  18.240   6.924   6.326  0.1597  0.1150 -0.0173
  983YOPC   C2B13276  18.237   6.725   6.728 -0.1914 -0.1301  0.0704
  983YOPC   D3B13277  18.299   6.778   7.215  0.2078 -0.0305 -0.1330
  983YOPC   C4B13278  18.699   6.868   7.377  0.2702 -0.2104 -0.0457
  984YOPC   NC313279  15.682  13.397   5.867 -0.1072 -0.1347  0.1534
  984YOPC   PO413280  15.862  12.981   5.883 -0.0084 -0.2470  0.0306
  984YOPC   GL113281  15.910  12.985   6.308 -0.1078 -0.1450  0.0012
  984YOPC   GL213282  15.745  12.696   6.331  0.1357  0.0959 -0.1195
  984YOPC   C1A13283  15.789  13.015   6.765 -0.0777 -0.0885 -0.0124
  984YOPC   D2A13284  15.675  12.997   7.228 -0.2144 -0.2749  0.2472
  984YOPC   C3A13285  15.427  13.307   7.571  0.0215 -0.1908  0.0556
  984YOPC   C4A13286  15.475  13.441   7.986  0.1455 -0.0889  0.0011
  984YOPC   C1B13287  15.789  12.463   6.721  0.2338 -0.1985  0.2919
  984YOPC   C2B13288  15.753  12.309   7.062  0.0052 -0.0149 -0.1717
  984YOPC   D3B13289  15.688  12.566   7.428 -0.0242 -0.0457 -0.2446
  984YOPC   C4B13290  15.530  12.822   7.772  0.0581  0.2068 -0.1247
  985YOPC   NC313291   8.897   6.206   5.949 -0.2284 -0.0117 -0.1610
  985YOPC   PO413292   8.807   5.805   6.283  0.1445 -0.0294 -0.2809
  985YOPC   GL113293   8.822   5.981   6.721 -0.4748 -0.2502 -0.0617
  985YOPC   GL213294   8.450   6.013   6.882 -0.0739  0.1093 -0.4603
  985YOPC   C1A13295   8.924   6.082   7.124  0.2630 -0.1146  0.1124
  985YOPC   D2A13296   9.003   6.496   7.348  0.1405  0.5303 -0.0883
  985YOPC   C3A13297   9.105   6.518   7.751 -0.1592  0.1634 -0.1133
  985YOPC   C4A13298   9.032   6.713   8.145 -0.2498 -0.2205 -0.1152
  985YOPC   C1B13299   8.527   6.156   7.448 -0.4403 -0.0606  0.1876
  985YOPC   C2B13300   8.539   6.028   7.777  0.0681 -0.1557 -0.0097
  985YOPC   D3B13301   8.347   6.176   8.147 -0.1335  0.1962  0.1115
  985YOPC   C4B13302   8.083   6.416   8.401  0.3198  0.0238 -0.0206
  986YOPC   NC313303   6.357   3.590   5.986  0.0640 -0.1879  0.0003
  986YOPC   PO413304   6.575   3.343   6.330 -0.2779 -0.0322 -0.3784
  986YOPC   GL113305   6.658   3.451   6.648  0.0236 -0.0757 -0.1372
  986YOPC   GL213306   6.997   3.641   6.707  0.0773 -0.0653 -0.0386
  986YOPC   C1A13307   6.593   3.302   7.064 -0.0910  0.0100 -0.0439
  986YOPC   D2A13308   6.554   3.329   7.408  0.3332  0.0878  0.0975
  986YOPC   C3A13309   6.525   3.700   7.566  0.0955 -0.3209 -0.0956
  986YOPC   C4A13310   6.448   3.977   7.967 -0.1811  0.2785  0.2814
  986YOPC   C1B13311   7.442   3.731   6.963  0.0649  0.0426 -0.3549
  986YOPC   C2B13312   7.693   3.616   7.345  0.1570 -0.2390 -0.0767
  986YOPC   D3B13313   7.554   3.757   7.721 -0.2163 -0.1697  0.0566
  986YOPC   C4B13314   7.305   3.953   8.038  0.3904 -0.0357  0.0459
  987YOPC   NC313315   7.056   9.555   6.001 -0.3560 -0.1897  0.0459
  987YOPC   PO413316   7.421   9.724   6.203  0.1970 -0.0856  0.0395
  987YOPC   GL113317   7.319   9.613   6.560  0.1135 -0.0273 -0.1311
  987YOPC   GL213318   7.038   9.458   6.537 -0.0065  0.1983 -0.1352
  987YOPC   C1A13319   7.495   9.800   6.923 -0.0551 -0.0165 -0.2024
  987YOPC   D2A13320   7.574   9.792   7.369  0.2173 -0.0962 -0.0634
  987YOPC   C3A13321   7.315   9.748   7.766  0.0460  0.2834  0.1042
  987YOPC   C4A13322   7.260   9.931   8.107  0.0965  0.0329 -0.1612
  987YOPC   C1B13323   7.035   9.526   6.969 -0.1752 -0.0839  0.2865
  987YOPC   C2B13324   7.064   9.551   7.356 -0.1502  0.0367  0.0863
  987YOPC   D3B13325   6.753   9.859   7.639 -0.2117  0.2679 -0.1299
  987YOPC   C4B13326   6.794   9.859   8.060  0.0589 -0.1182  0.1038
  988YOPC   NC313327   6.397   5.230   6.358  0.0432  0.1554 -0.1444
  988YOPC   PO413328   6.389   4.771   6.325 -0.0397  0.1815 -0.1420
  988YOPC   GL113329   6.163   4.703   6.719 -0.1717 -0.0087  0.0200
  988YOPC   GL213330   5.898   4.525   6.633  0.0033  0.1182  0.0617
  988YOPC   C1A13331   6.004   4.972   7.042 -0.2360  0.0966 -0.3632
  988YOPC   D2A13332   5.985   5.168   7.392 -0.3359 -0.1288 -0.1308
  988YOPC   C3A13333   5.980   5.005   7.768  0.0949  0.0598  0.2625
  988YOPC   C4A13334   5.776   4.796   8.128  0.2390 -0.0663 -0.0392
  988YOPC   C1B13335   5.667   4.524   6.985 -0.1650  0.1322 -0.2592
  988YOPC   C2B13336   5.600   4.369   7.380 -0.0204 -0.1154  0.0870
  988YOPC   D3B13337   5.278   4.201   7.414  0.3861  0.0845  0.3037
  988YOPC   C4B13338   5.052   4.493   7.704 -0.3822 -0.0485  0.0745
  989YOPC   NC313339  14.485   5.577   5.952  0.3709 -0.1637 -0.4012
  989YOPC   PO413340  14.861   5.530   5.798 -0.1492  0.0793  0.2096
  989YOPC   GL113341  14.956   5.372   6.168  0.1431  0.0391 -0.1952
  989YOPC   GL213342  14.763   5.473   6.364  0.0239 -0.1690 -0.1053
  989YOPC   C1A13343  15.149   5.119   6.469  0.1135  0.1564  0.2407
  989YOPC   D2A13344  15.353   4.781   6.487 -0.1374  0.4973  0.4026
  989YOPC   C3A13345  15.401   4.381   6.701 -0.0212  0.1789  0.1121
  989YOPC   C4A13346  15.256   4.227   7.111  0.0465 -0.0770 -0.2800
  989YOPC   C1B13347  14.839   5.417   6.705 -0.0405  0.2017  0.2270
  989YOPC   C2B13348  15.029   5.245   7.032 -0.4812  0.1912 -0.0338
  989YOPC   D3B13349  15.007   5.337   7.463  0.1861 -0.2303 -0.2653
  989YOPC   C4B13350  14.953   5.497   7.952  0.0866  0.0383  0.0220
  990YOPC   NC313351   6.578   6.802   6.257 -0.0472 -0.1819 -0.0658
  990YOPC   PO413352   6.811   6.461   6.333 -0.0531  0.1007  0.3046
  990YOPC   GL113353   7.043   6.167   6.552 -0.0842 -0.0180  0.0971
  990YOPC   GL213354   6.970   5.882   6.681  0.1240  0.2135 -0.3011
  990YOPC   C1A13355   7.158   6.165   7.044  0.2854 -0.0137  0.1020
  990YOPC   D2A13356   7.243   5.986   7.340  0.2683  0.0548 -0.2437
  990YOPC   C3A13357   7.002   5.564   7.386  0.0347 -0.1251  0.2994
  990YOPC   C4A13358   6.811   5.283   7.648 -0.0221  0.2876 -0.1059
  990YOPC   C1B13359   6.654   5.746   7.049  0.0003  0.1192 -0.1251
  990YOPC   C2B13360   6.469   5.460   7.338 -0.0566  0.0345 -0.1692
  990YOPC   D3B13361   6.309   5.439   7.702  0.3427 -0.0300  0.0144
  990YOPC   C4B13362   6.119   5.326   8.176 -0.3332 -0.1570  0.0043
  991YOPC   NC313363  17.205   8.540   5.496 -0.0378 -0.0036  0.3178
  991YOPC   PO413364  17.003   8.032   5.621 -0.2599 -0.0981  0.4033
  991YOPC   GL113365  16.806   7.972   5.975  0.1656 -0.1406 -0.2209
  991YOPC   GL213366  16.877   7.720   6.120  0.5215  0.3022 -0.0491
  991YOPC   C1A13367  17.045   8.005   6.440  0.1237  0.2155  0.0831
  991YOPC   D2A13368  17.324   8.094   6.767  0.0199 -0.1929  0.0768
  991YOPC   C3A13369  17.258   7.939   7.192  0.1522 -0.1821  0.0047
  991YOPC   C4A13370  17.278   7.814   7.562  0.2185 -0.2127 -0.0671
  991YOPC   C1B13371  16.980   7.503   6.401  0.1200  0.1151  0.2781
  991YOPC   C2B13372  17.070   7.665   6.789 -0.0773 -0.1789  0.1131
  991YOPC   D3B13373  17.137   7.453   7.117  0.0715  0.3188 -0.0665
  991YOPC   C4B13374  16.863   7.496   7.473 -0.2365  0.0498  0.1500
  992YOPC   NC313375   1.576   7.202   5.517 -0.0172  0.2434  0.1390
  992YOPC   PO413376   1.455   6.789   5.642  0.0221  0.0909 -0.1260
  992YOPC   GL113377   1.377   6.929   6.021  0.1790 -0.1064 -0.2633
  992YOPC   GL213378   1.674   6.949   6.172 -0.0059  0.0096 -0.2498
  992YOPC   C1A13379   1.206   6.974   6.397 -0.0802  0.2033 -0.0927
  992YOPC   D2A13380   0.878   6.913   6.609  0.0443  0.3078  0.1650
  992YOPC   C3A13381   0.782   7.344   6.616  0.0585 -0.0402 -0.0615
  992YOPC   C4A13382   0.904   7.756   6.482  0.1289 -0.0768 -0.0589
  992YOPC   C1B13383   1.688   6.936   6.656  0.2039  0.0743 -0.1379
  992YOPC   C2B13384   1.680   7.210   7.049 -0.0717 -0.0180  0.0410
  992YOPC   D3B13385   1.520   7.026   7.382 -0.2325 -0.0730  0.0852
  992YOPC   C4B13386   1.342   7.026   7.657  0.2055  0.1242 -0.3475
  993YOPC   NC313387   5.620  11.005   5.995  0.1059 -0.1292  0.2279
  993YOPC   PO413388   5.981  10.882   6.094 -0.1126  0.0008  0.1757
  993YOPC   GL113389   6.051  10.809   6.461 -0.0497 -0.1657 -0.2475
  993YOPC   GL213390   6.111  10.518   6.531  0.2371  0.1940  0.3742
  993YOPC   C1A13391   5.801  10.947   6.848 -0.2572  0.0019  0.0644
  993YOPC   D2A13392   5.928  11.111   7.229 -0.1535 -0.0955 -0.5429
  993YOPC   C3A13393   6.002  11.031   7.640  0.0430  0.3776  0.0069
  993YOPC   C4A13394   5.867  10.879   8.002  0.2055  0.1866  0.0277
  993YOPC   C1B13395   5.654  10.453   6.619 -0.0687  0.1491 -0.1745
  993YOPC   C2B13396   5.320  10.660   6.942 -0.0258  0.3473 -0.1135
  993YOPC   D3B13397   5.399  11.018   7.177 -0.1626 -0.3262 -0.0048
  993YOPC   C4B13398   5.562  11.182   7.555  0.2235  0.2281 -0.0717
  994YOPC   NC313399  17.373  10.391   5.573  0.1699  0.2442 -0.1467
  994YOPC   PO413400  17.048  10.783   5.572  0.1270 -0.1804 -0.0764
  994YOPC   GL113401  17.171  10.669   5.919 -0.0805 -0.1509 -0.0410
  994YOPC   GL213402  17.070  11.019   6.099 -0.0014 -0.0032  0.1662
  994YOPC   C1A13403  17.394  10.650   6.231 -0.0815  0.3602 -0.1258
  994YOPC   D2A13404  17.421  10.532   6.620 -0.0711 -0.2370  0.2108
  994YOPC   C3A13405  17.456  10.691   6.950  0.2853  0.1388 -0.0141
  994YOPC   C4A13406  17.317  10.834   7.446 -0.0006  0.1708  0.4432
  994YOPC   C1B13407  17.000  10.822   6.605  0.3265 -0.0453 -0.1833
  994YOPC   C2B13408  16.932  10.948   7.029 -0.1059  0.0074  0.2359
  994YOPC   D3B13409  16.807  10.804   7.423  0.1308 -0.1647 -0.3218
  994YOPC   C4B13410  16.833  10.875   7.856 -0.0958 -0.3074 -0.2311
  995YOPC   NC313411   8.222  10.812   6.137  0.0500  0.1415  0.1238
  995YOPC   PO413412   8.303  10.946   6.550 -0.0873 -0.0922  0.4151
  995YOPC   GL113413   8.054  10.750   6.909  0.1736  0.0235  0.0262
  995YOPC   GL213414   7.832  10.975   6.813  0.0911  0.1874 -0.2630
  995YOPC   C1A13415   8.021  10.563   7.246 -0.2400  0.0899 -0.1361
  995YOPC   D2A13416   7.978  10.711   7.616  0.1148 -0.2063  0.1037
  995YOPC   C3A13417   7.685  10.604   7.866  0.0650  0.1274  0.0342
  995YOPC   C4A13418   7.614  10.709   8.377  0.1305 -0.2701  0.2399
  995YOPC   C1B13419   7.776  10.970   7.228  0.2520  0.0472  0.1671
  995YOPC   C2B13420   7.403  10.716   7.390  0.1110 -0.0962 -0.0691
  995YOPC   D3B13421   7.183  10.817   7.747 -0.0076  0.0855 -0.1543
  995YOPC   C4B13422   6.929  10.791   7.984 -0.4512 -0.2053 -0.1074
  996YOPC   NC313423   8.186   5.978   6.391 -0.0221  0.0214 -0.0627
  996YOPC   PO413424   8.242   5.605   6.284  0.1547 -0.4789  0.1494
  996YOPC   GL113425   8.039   5.478   6.597  0.1855  0.1031 -0.1772
  996YOPC   GL213426   7.653   5.449   6.713 -0.1777 -0.0561 -0.0593
  996YOPC   C1A13427   8.022   5.389   6.999 -0.1565 -0.2353 -0.1081
  996YOPC   D2A13428   7.992   5.325   7.449  0.4197 -0.1177 -0.1700
  996YOPC   C3A13429   7.777   5.383   7.827  0.1814 -0.0195  0.0860
  996YOPC   C4A13430   7.660   5.332   8.147  0.0667  0.0421  0.3510
  996YOPC   C1B13431   7.548   5.196   7.136 -0.2435  0.0208 -0.0334
  996YOPC   C2B13432   7.374   5.226   7.601  0.0007  0.1638  0.1274
  996YOPC   D3B13433   7.508   4.917   7.908  0.0219 -0.1565 -0.0414
  996YOPC   C4B13434   7.807   4.588   8.184  0.2773 -0.2193  0.1574
  997YOPC   NC313435  13.894   3.165   5.996  0.0858 -0.3032 -0.0324
  997YOPC   PO413436  13.709   3.503   6.275 -0.1557  0.1596 -0.1089
  997YOPC   GL113437  13.751   3.434   6.771 -0.1718 -0.0106  0.3169
  997YOPC   GL213438  13.631   3.148   6.886 -0.0763  0.1281  0.3349
  997YOPC   C1A13439  13.933   3.494   7.211  0.0268 -0.2827 -0.1899
  997YOPC   D2A13440  14.321   3.590   7.388 -0.3454 -0.1526  0.0135
  997YOPC   C3A13441  14.390   3.731   7.923 -0.1895  0.1834  0.4368
  997YOPC   C4A13442  14.466   3.870   8.305  0.2695 -0.1266  0.1479
  997YOPC   C1B13443  13.658   2.955   7.446  0.1018 -0.1264  0.0851
  997YOPC   C2B13444  13.766   2.623   7.774  0.2735  0.0820 -0.0204
  997YOPC   D3B13445  13.436   2.505   8.018 -0.0227 -0.0444 -0.1334
  997YOPC   C4B13446  13.355   2.269   8.382  0.0126  0.2065 -0.1874
  998YOPC   NC313447   7.319  14.221   6.261  0.1773 -0.2202 -0.0541
  998YOPC   PO413448   6.985  14.101   6.266 -0.0498  0.0674  0.2741
  998YOPC   GL113449   7.142  13.949   6.649 -0.2241  0.1521 -0.1308
  998YOPC   GL213450   6.898  13.930   6.834  0.2280  0.1178 -0.2357
  998YOPC   C1A13451   7.358  13.549   6.921  0.0486 -0.2413 -0.2685
  998YOPC   D2A13452   7.065  13.338   7.212 -0.0165  0.1347 -0.1658
  998YOPC   C3A13453   7.194  13.142   7.650  0.2395 -0.1379 -0.0610
  998YOPC   C4A13454   7.074  13.064   8.115 -0.0838 -0.2591  0.1955
  998YOPC   C1B13455   7.003  13.828   7.212  0.2102  0.2829 -0.0582
  998YOPC   C2B13456   6.917  13.758   7.639  0.4499 -0.0110  0.1610
  998YOPC   D3B13457   6.556  13.918   7.683  0.3194  0.1710 -0.3990
  998YOPC   C4B13458   6.173  14.041   7.509  0.2527  0.0888 -0.1080
  999YOPC   NC313459  13.114  17.088   6.411 -0.1685 -0.0122 -0.1138
  999YOPC   PO413460  13.012  17.354   6.158  0.1858 -0.3416  0.1042
  999YOPC   GL113461  12.990  17.542   6.609 -0.1868  0.0530 -0.2404
  999YOPC   GL213462  12.897  17.859   6.665 -0.3033  0.0676  0.1531
  999YOPC   C1A13463  13.302  17.532   7.039  0.0106 -0.2110 -0.1680
  999YOPC   D2A13464  13.189  17.688   7.429 -0.1095  0.0048 -0.1744
  999YOPC   C3A13465  13.390  17.530   7.668  0.0511  0.1188  0.0851
  999YOPC   C4A13466  13.724  17.431   7.928  0.2097 -0.3482 -0.2635
  999YOPC   C1B13467  12.987  17.929   7.052  0.0672 -0.2341  0.0645
  999YOPC   C2B13468  12.963  18.167   7.391  0.1767 -0.0986  0.2231
  999YOPC   D3B13469  13.125  18.012   7.846 -0.0514  0.1708 -0.0449
  999YOPC   C4B13470  13.180  17.927   8.343 -0.0826  0.1027  0.2529
 1000YOPC   NC313471  14.490  16.076   6.078  0.1051  0.1833  0.0826
 1000YOPC   PO413472  14.854  16.276   5.796  0.0310 -0.0187  0.2398
 1000YOPC   GL113473  14.867  16.348   6.301  0.1098 -0.3253  0.1745
 1000YOPC   GL213474  14.586  16.536   6.313 -0.0859  0.1233 -0.1973
 1000YOPC   C1A13475  15.289  16.431   6.562  0.2618  0.3330  0.1845
 1000YOPC   D2A13476  15.521  16.377   6.846 -0.0248 -0.0024 -0.1870
 1000YOPC   C3A13477  15.507  16.601   7.239 -0.0093 -0.0503  0.3132
 1000YOPC   C4A13478  15.551  16.731   7.681 -0.0798  0.0872  0.0120
 1000YOPC   C1B13479  14.851  16.834   6.437 -0.0476 -0.0574  0.1145
 1000YOPC   C2B13480  15.341  16.905   6.381 -0.1870  0.0163 -0.0520
 1000YOPC   D3B13481  15.492  16.979   6.737 -0.1490 -0.1685  0.0789
 1000YOPC   C4B13482  15.520  17.099   7.063 -0.0401  0.1954  0.1168
 1001YOPC   NC313483   3.771  10.282   5.872  0.0746  0.2043 -0.0473
 1001YOPC   PO413484   3.523  10.565   5.677 -0.1419 -0.1123  0.0749
 1001YOPC   GL113485   3.632  10.756   6.084  0.0347  0.2302  0.0698
 1001YOPC   GL213486   3.844  10.677   6.229 -0.4399  0.3144  0.2444
 1001YOPC   C1A13487   3.426  10.933   6.373 -0.1474  0.0739  0.2596
 1001YOPC   D2A13488   3.655  11.197   6.664 -0.0724 -0.0269  0.4143
 1001YOPC   C3A13489   3.917  11.165   7.071  0.1042  0.1667  0.1156
 1001YOPC   C4A13490   4.042  10.860   7.403 -0.0421  0.0891  0.0146
 1001YOPC   C1B13491   4.004  10.325   6.478 -0.2674  0.0053 -0.0838
 1001YOPC   C2B13492   4.377  10.218   6.678  0.0511 -0.1626  0.4062
 1001YOPC   D3B13493   4.491   9.849   6.849 -0.1893 -0.0614  0.2359
 1001YOPC   C4B13494   4.591   9.676   7.225 -0.1953  0.2646  0.2612
 1002YOPC   NC313495   1.872  15.805   6.089  0.0403 -0.1406  0.3964
 1002YOPC   PO413496   1.595  16.112   5.890 -0.0567 -0.2131 -0.2938
 1002YOPC   GL113497   1.519  16.287   6.320 -0.3376 -0.1235 -0.1281
 1002YOPC   GL213498   1.845  16.169   6.483 -0.2203  0.0133 -0.1289
 1002YOPC   C1A13499   1.507  16.502   6.687  0.0907  0.0191  0.2549
 1002YOPC   D2A13500   1.598  16.605   7.084  0.1712  0.0555 -0.0986
 1002YOPC   C3A13501   1.637  16.526   7.457 -0.2116  0.0130 -0.0827
 1002YOPC   C4A13502   1.959  16.469   7.568 -0.3189 -0.1817 -0.2537
 1002YOPC   C1B13503   1.912  16.306   6.827 -0.2673  0.1580 -0.0058
 1002YOPC   C2B13504   2.174  16.203   7.065  0.2473 -0.0852  0.3621
 1002YOPC   D3B13505   2.172  16.054   7.546  0.0957 -0.0698 -0.0600
 1002YOPC   C4B13506   2.150  15.861   7.914  0.0501 -0.0150  0.1081
 1003YOPC   NC313507   8.151   6.801   6.183  0.0721 -0.1610 -0.5699
 1003YOPC   PO413508   8.150   6.434   6.264 -0.2089  0.1475  0.0183
 1003YOPC   GL113509   8.131   6.407   6.776 -0.0827  0.1524  0.1349
 1003YOPC   GL213510   7.927   6.638   6.729 -0.1258 -0.0371 -0.2228
 1003YOPC   C1A13511   8.128   6.358   7.140 -0.1852 -0.0830 -0.2221
 1003YOPC   D2A13512   8.188   6.429   7.652 -0.0805 -0.0296 -0.3851
 1003YOPC   C3A13513   7.919   6.373   7.898  0.0885 -0.0008  0.1551
 1003YOPC   C4A13514   7.602   6.334   8.241 -0.3325  0.0453 -0.1002
 1003YOPC   C1B13515   8.248   6.865   6.883  0.2024  0.1653  0.1468
 1003YOPC   C2B13516   8.375   7.189   7.261 -0.2542  0.0226 -0.1059
 1003YOPC   D3B13517   8.373   7.047   7.648  0.1594 -0.0157  0.1134
 1003YOPC   C4B13518   8.175   6.831   7.997  0.3979 -0.0879  0.1276
 1004YOPC   NC313519   3.026   7.440   5.590 -0.2212 -0.0634 -0.0148
 1004YOPC   PO413520   2.549   7.426   5.669 -0.0938 -0.0837  0.1418
 1004YOPC   GL113521   2.504   7.276   6.113 -0.1731  0.0700  0.0145
 1004YOPC   GL213522   2.741   7.081   6.121 -0.0885 -0.2500 -0.0838
 1004YOPC   C1A13523   2.307   7.208   6.502  0.2478  0.0141  0.1811
 1004YOPC   D2A13524   2.145   7.184   6.894 -0.0996 -0.1810  0.0502
 1004YOPC   C3A13525   2.089   7.238   7.356  0.0048 -0.0207 -0.1440
 1004YOPC   C4A13526   1.898   7.253   7.645 -0.0365  0.1248 -0.2284
 1004YOPC   C1B13527   2.946   7.169   6.498  0.2664 -0.1587 -0.3173
 1004YOPC   C2B13528   3.172   7.096   6.948  0.0767 -0.1183 -0.0414
 1004YOPC   D3B13529   2.967   7.072   7.286  0.1347  0.3084 -0.2163
 1004YOPC   C4B13530   2.659   7.265   7.513 -0.1249  0.0424  0.0826
 1005YOPC   NC313531  11.809   1.590   6.523 -0.1280 -0.1023  0.2903
 1005YOPC   PO413532  12.278   1.679   6.543 -0.0581  0.0786 -0.0313
 1005YOPC   GL113533  12.213   1.847   6.920 -0.1458  0.1786  0.1461
 1005YOPC   GL213534  12.140   2.153   6.916 -0.0821 -0.2162  0.2708
 1005YOPC   C1A13535  12.546   2.080   7.269  0.1833 -0.0803  0.1565
 1005YOPC   D2A13536  12.916   2.304   7.432 -0.0518  0.0141 -0.0889
 1005YOPC   C3A13537  12.859   2.215   7.820  0.3855 -0.1549  0.2095
 1005YOPC   C4A13538  12.754   1.927   8.118 -0.1018 -0.1100  0.0383
 1005YOPC   C1B13539  12.006   2.280   7.357 -0.2136  0.2716 -0.0370
 1005YOPC   C2B13540  11.638   2.216   7.531 -0.0126 -0.3034  0.0480
 1005YOPC   D3B13541  11.467   1.920   7.860  0.1349  0.1795  0.2511
 1005YOPC   C4B13542  11.364   1.886   8.325  0.2044  0.0053  0.0721
 1006YOPC   NC313543  14.306  10.174   6.047 -0.0340 -0.1879  0.2785
 1006YOPC   PO413544  14.007  10.036   6.335  0.3538 -0.2299 -0.1070
 1006YOPC   GL113545  13.790  10.115   6.633 -0.3097 -0.2172 -0.0142
 1006YOPC   GL213546  13.889   9.994   6.843  0.0194 -0.0314  0.1868
 1006YOPC   C1A13547  13.784  10.491   6.817  0.0043  0.0972 -0.1833
 1006YOPC   D2A13548  13.927  10.717   7.202  0.1028 -0.1905 -0.1934
 1006YOPC   C3A13549  14.153  10.777   7.544 -0.1027  0.0612 -0.3783
 1006YOPC   C4A13550  14.311  10.848   8.002 -0.0011 -0.1856 -0.1354
 1006YOPC   C1B13551  13.868  10.193   7.275  0.0242  0.1915 -0.0376
 1006YOPC   C2B13552  14.017  10.265   7.634 -0.0590  0.0710 -0.0187
 1006YOPC   D3B13553  13.790  10.092   7.990  0.0063 -0.2655 -0.0138
 1006YOPC   C4B13554  13.813   9.908   8.336 -0.0364  0.0134  0.0733
 1007YOPC   NC313555   6.570  17.679   6.353  0.0484 -0.1557 -0.1006
 1007YOPC   PO413556   6.242  17.401   6.112 -0.1205  0.0131  0.0331
 1007YOPC   GL113557   6.056  17.513   6.525  0.1077  0.1049  0.0485
 1007YOPC   GL213558   6.260  17.577   6.776 -0.0444 -0.2194  0.1223
 1007YOPC   C1A13559   5.765  17.613   6.991 -0.4740  0.0643  0.0751
 1007YOPC   D2A13560   5.775  17.535   7.422  0.1551  0.1195  0.0284
 1007YOPC   C3A13561   5.555  17.276   7.623  0.1024  0.1049 -0.2009
 1007YOPC   C4A13562   5.340  16.993   7.978 -0.1808 -0.1552 -0.0463
 1007YOPC   C1B13563   6.271  17.635   7.255  0.0544 -0.1029 -0.2915
 1007YOPC   C2B13564   6.125  17.627   7.708  0.2995 -0.0600 -0.0469
 1007YOPC   D3B13565   6.209  17.540   8.085 -0.0544  0.0878  0.0307
 1007YOPC   C4B13566   6.218  17.503   8.571  0.1339  0.1720  0.2076
 1008YOPC   NC313567   7.221  10.876   5.965 -0.0394  0.2456 -0.0507
 1008YOPC   PO413568   7.424  11.259   6.088 -0.1243 -0.3344 -0.0363
 1008YOPC   GL113569   7.376  10.984   6.451 -0.0717 -0.1045  0.0529
 1008YOPC   GL213570   7.504  10.713   6.484 -0.2975  0.0255 -0.0549
 1008YOPC   C1A13571   7.149  10.982   6.917 -0.2992  0.0554  0.1111
 1008YOPC   D2A13572   6.901  10.833   7.379 -0.3482  0.2349  0.1291
 1008YOPC   C3A13573   6.890  11.173   7.622  0.2772 -0.3906  0.0310
 1008YOPC   C4A13574   7.057  11.620   7.538  0.4183  0.2771 -0.0481
 1008YOPC   C1B13575   7.451  10.561   6.873 -0.2002  0.0324 -0.0172
 1008YOPC   C2B13576   7.638  10.275   7.070  0.0252  0.2195 -0.3781
 1008YOPC   D3B13577   7.588  10.297   7.485  0.1194  0.2457 -0.2502
 1008YOPC   C4B13578   7.640  10.106   7.801 -0.1236 -0.0879  0.0928
 1009YOPC   NC313579   5.818   4.043   5.830  0.0843 -0.0872 -0.4103
 1009YOPC   PO413580   6.245   4.041   6.040 -0.3270 -0.3844  0.0089
 1009YOPC   GL113581   6.273   4.238   6.495 -0.0967  0.1296  0.1666
 1009YOPC   GL213582   6.580   4.264   6.540 -0.0358  0.2939 -0.1626
 1009YOPC   C1A13583   6.316   4.364   6.975 -0.4112  0.2743 -0.4088
 1009YOPC   D2A13584   6.112   4.628   7.413 -0.0327  0.0495 -0.1134
 1009YOPC   C3A13585   5.949   4.498   7.731 -0.1693 -0.0421  0.0675
 1009YOPC   C4A13586   5.975   4.109   7.949  0.0980 -0.0065  0.2576
 1009YOPC   C1B13587   6.785   4.300   6.922 -0.2853  0.0496  0.2156
 1009YOPC   C2B13588   6.885   4.418   7.329  0.2536 -0.1093  0.2605
 1009YOPC   D3B13589   6.463   4.166   7.379 -0.0465  0.1183  0.0805
 1009YOPC   C4B13590   6.052   4.084   7.456 -0.0110  0.1179 -0.1973
 1010YOPC   NC313591  14.917  12.767   5.402 -0.3342 -0.1989  0.1957
 1010YOPC   PO413592  14.657  12.524   5.718  0.1555 -0.1494 -0.1921
 1010YOPC   GL113593  14.802  12.471   6.158  0.1047  0.0140  0.3987
 1010YOPC   GL213594  14.847  12.741   6.312 -0.1494 -0.1910  0.0272
 1010YOPC   C1A13595  14.941  12.170   6.493 -0.2240 -0.1026 -0.3869
 1010YOPC   D2A13596  15.287  12.226   6.749  0.1730 -0.0153  0.2833
 1010YOPC   C3A13597  15.266  12.121   7.200 -0.1350 -0.1287 -0.4212
 1010YOPC   C4A13598  15.416  12.159   7.586 -0.1455 -0.0773 -0.3076
 1010YOPC   C1B13599  14.895  12.598   6.783 -0.0303 -0.0429  0.0005
 1010YOPC   C2B13600  14.837  12.235   7.012 -0.2832  0.3365 -0.1223
 1010YOPC   D3B13601  14.879  12.033   7.481 -0.4965  0.2665 -0.0385
 1010YOPC   C4B13602  14.946  12.049   7.872  0.0087 -0.1237 -0.1498
 1011YOPC   NC313603   9.649   4.202   5.985 -0.0454  0.1508 -0.0404
 1011YOPC   PO413604  10.008   4.234   6.278  0.0625  0.0243 -0.0362
 1011YOPC   GL113605  10.166   4.150   6.567  0.4260 -0.1805 -0.0489
 1011YOPC   GL213606   9.965   4.052   6.748  0.1386 -0.0985  0.0360
 1011YOPC   C1A13607  10.152   4.335   7.099 -0.0048 -0.0396  0.1035
 1011YOPC   D2A13608   9.973   4.661   7.267 -0.2404  0.0693 -0.0334
 1011YOPC   C3A13609  10.010   4.717   7.668  0.0927 -0.0239 -0.2771
 1011YOPC   C4A13610  10.281   4.974   7.967 -0.1028  0.2583  0.1973
 1011YOPC   C1B13611   9.974   3.786   7.060  0.0633  0.1023 -0.0891
 1011YOPC   C2B13612  10.064   3.579   7.444  0.0180 -0.1436 -0.0909
 1011YOPC   D3B13613   9.989   3.596   7.917 -0.1301  0.0651 -0.2172
 1011YOPC   C4B13614  10.146   3.255   7.919  0.1973  0.0781 -0.0863
 1012YOPC   NC313615  14.379   8.374   6.331 -0.2004  0.1052  0.3016
 1012YOPC   PO413616  14.674   7.966   6.142 -0.1658 -0.0844 -0.1267
 1012YOPC   GL113617  14.655   8.034   6.502 -0.0504 -0.3862 -0.1433
 1012YOPC   GL213618  14.387   7.969   6.617 -0.1078  0.0344 -0.0333
 1012YOPC   C1A13619  14.748   7.908   6.952  0.1066  0.0695 -0.1653
 1012YOPC   D2A13620  14.495   7.995   7.370  0.1641  0.1412  0.0573
 1012YOPC   C3A13621  14.479   8.462   7.501  0.1426 -0.2611 -0.1232
 1012YOPC   C4A13622  14.370   8.347   7.877  0.2847  0.1087 -0.1021
 1012YOPC   C1B13623  14.183   7.737   6.949  0.1720  0.1185 -0.2221
 1012YOPC   C2B13624  14.156   7.623   7.442  0.2517 -0.1577  0.1438
 1012YOPC   D3B13625  14.230   7.823   7.820 -0.1072  0.2222 -0.0211
 1012YOPC   C4B13626  14.209   7.956   8.192 -0.0002 -0.2835 -0.0639
 1013YOPC   NC313627   6.947  14.756   6.222  0.1424 -0.2739  0.0753
 1013YOPC   PO413628   7.354  14.684   6.409 -0.3035 -0.1578 -0.4475
 1013YOPC   GL113629   7.494  14.587   6.806  0.0939 -0.0630  0.0616
 1013YOPC   GL213630   7.839  14.577   6.877  0.1297  0.0997 -0.3684
 1013YOPC   C1A13631   7.486  14.520   7.270  0.1500 -0.1522  0.0766
 1013YOPC   D2A13632   7.592  14.495   7.793 -0.0466  0.3348  0.1194
 1013YOPC   C3A13633   7.387  14.374   8.089  0.0470 -0.0857 -0.2631
 1013YOPC   C4A13634   6.965  14.165   8.054  0.0966 -0.0300 -0.0679
 1013YOPC   C1B13635   8.023  14.434   7.299 -0.1566  0.0931 -0.3239
 1013YOPC   C2B13636   8.085  14.538   7.687 -0.2770  0.0700 -0.2129
 1013YOPC   D3B13637   8.023  14.361   8.029  0.0553  0.0923 -0.1217
 1013YOPC   C4B13638   7.806  14.376   8.386  0.1716  0.0410 -0.2555
 1014YOPC   NC313639   8.414  17.465   6.278 -0.2249 -0.0631  0.1171
 1014YOPC   PO413640   7.950  17.367   6.495  0.0359 -0.0464 -0.0443
 1014YOPC   GL113641   8.053  17.514   6.824 -0.2194 -0.0659  0.0941
 1014YOPC   GL213642   8.334  17.268   6.892  0.0166 -0.3834  0.0685
 1014YOPC   C1A13643   8.010  17.665   7.191 -0.2087  0.1109 -0.0779
 1014YOPC   D2A13644   7.845  17.924   7.461  0.0484 -0.2035 -0.1119
 1014YOPC   C3A13645   7.931  18.018   7.956 -0.0133 -0.0933 -0.0625
 1014YOPC   C4A13646   8.031  17.956   8.395  0.1885  0.0539  0.1023
 1014YOPC   C1B13647   8.363  17.327   7.332 -0.0610  0.2057  0.1794
 1014YOPC   C2B13648   8.203  17.648   7.673 -0.0467 -0.2425  0.0599
 1014YOPC   D3B13649   8.387  17.789   8.006 -0.0764  0.2368 -0.0221
 1014YOPC   C4B13650   8.548  17.962   8.444  0.1290 -0.1833  0.1223
 1015YOPC   NC313651  10.599   4.754   5.839  0.1981  0.1281 -0.3001
 1015YOPC   PO413652  10.391   5.180   6.064  0.1034  0.0858 -0.0241
 1015YOPC   GL113653  10.241   5.165   6.534  0.2964 -0.0476 -0.0394
 1015YOPC   GL213654   9.958   5.521   6.520  0.2676  0.2032 -0.3260
 1015YOPC   C1A13655  10.279   5.039   6.980  0.0911  0.2882 -0.0700
 1015YOPC   D2A13656  10.363   4.999   7.423  0.1550  0.0030  0.3826
 1015YOPC   C3A13657  10.710   4.984   7.732  0.1285 -0.1669 -0.4019
 1015YOPC   C4A13658  10.861   5.257   8.000 -0.0068 -0.2132  0.5074
 1015YOPC   C1B13659  10.286   5.594   6.857  0.0371 -0.0038 -0.0483
 1015YOPC   C2B13660  10.365   5.465   7.215  0.0130  0.0850  0.0652
 1015YOPC   D3B13661  10.306   5.472   7.653 -0.1422  0.1952  0.1992
 1015YOPC   C4B13662  10.377   5.490   8.090  0.0338  0.0404 -0.2437
 1016YOPC   NC313663   4.987  10.040   6.007  0.1162  0.0200 -0.1926
 1016YOPC   PO413664   4.678  10.387   5.868 -0.1164 -0.1269  0.1160
 1016YOPC   GL113665   4.820  10.645   6.107  0.0272 -0.0514  0.0029
 1016YOPC   GL213666   4.585  10.772   6.436 -0.0128 -0.2157  0.2669
 1016YOPC   C1A13667   5.062  10.771   6.516  0.2977  0.4815  0.1006
 1016YOPC   D2A13668   4.867  10.873   6.915 -0.0120 -0.2684  0.1324
 1016YOPC   C3A13669   4.896  11.169   7.247 -0.1850  0.3389  0.4254
 1016YOPC   C4A13670   4.962  11.454   7.449 -0.2092 -0.2813  0.1426
 1016YOPC   C1B13671   4.384  10.751   6.900 -0.1796 -0.0573  0.1090
 1016YOPC   C2B13672   4.578  10.743   7.274 -0.0083 -0.2064 -0.0464
 1016YOPC   D3B13673   5.028  10.618   7.372 -0.0720 -0.1964 -0.0916
 1016YOPC   C4B13674   5.275  10.565   7.737 -0.0748  0.0506  0.0967
 1017YOPC   NC313675  10.505  16.846   6.254 -0.2965  0.3053 -0.1459
 1017YOPC   PO413676  10.858  16.820   6.510  0.2821  0.1662  0.0828
 1017YOPC   GL113677  10.767  16.622   6.904 -0.0423  0.4018  0.0338
 1017YOPC   GL213678  11.027  16.524   7.006 -0.1170  0.0762  0.1004
 1017YOPC   C1A13679  10.610  16.647   7.359 -0.1236  0.0443  0.0023
 1017YOPC   D2A13680  10.642  16.705   7.804 -0.2459 -0.2536 -0.2224
 1017YOPC   C3A13681  10.441  16.588   8.228  0.0289  0.0887 -0.0298
 1017YOPC   C4A13682  10.322  16.609   8.661  0.2245 -0.1550  0.0400
 1017YOPC   C1B13683  11.063  16.422   7.423  0.1082 -0.3508  0.0848
 1017YOPC   C2B13684  11.093  16.379   7.790 -0.0450 -0.0773 -0.0306
 1017YOPC   D3B13685  11.497  16.321   7.825 -0.0235  0.0942  0.1259
 1017YOPC   C4B13686  11.793  16.059   8.021  0.0031  0.0283  0.0840
 1018YOPC   NC313687   0.302   0.943   6.030  0.1293 -0.5140  0.0301
 1018YOPC   PO413688  -0.013   1.267   6.263 -0.0581  0.0792 -0.0727
 1018YOPC   GL113689  -0.055   1.185   6.730 -0.0516  0.0990 -0.3426
 1018YOPC   GL213690  -0.304   1.284   6.856 -0.0500  0.2475  0.1193
 1018YOPC   C1A13691  -0.007   1.035   7.218  0.1248 -0.0162  0.1319
 1018YOPC   D2A13692   0.197   1.129   7.600 -0.0480  0.0202 -0.6500
 1018YOPC   C3A13693   0.315   1.510   7.748  0.1123  0.3015  0.0258
 1018YOPC   C4A13694   0.602   1.804   7.900 -0.1540 -0.1151 -0.0951
 1018YOPC   C1B13695  -0.483   1.177   7.167 -0.1211  0.0266 -0.0041
 1018YOPC   C2B13696  -0.318   1.011   7.632 -0.2654 -0.1412  0.3167
 1018YOPC   D3B13697  -0.481   1.104   7.958 -0.2530 -0.1905 -0.1449
 1018YOPC   C4B13698  -0.660   1.407   8.215 -0.3884  0.0086 -0.1510
 1019YOPC   NC313699  13.970  17.063   6.000  0.4128  0.0079 -0.3268
 1019YOPC   PO413700  14.051  16.642   6.156  0.0085  0.0227  0.2942
 1019YOPC   GL113701  14.044  16.678   6.580 -0.1891 -0.0961  0.0155
 1019YOPC   GL213702  14.315  16.610   6.774 -0.0099  0.1049  0.4506
 1019YOPC   C1A13703  14.066  17.041   6.946 -0.1895  0.0865  0.1204
 1019YOPC   D2A13704  14.180  17.248   7.242  0.0874  0.1417  0.0191
 1019YOPC   C3A13705  14.026  17.134   7.677  0.0973 -0.0916 -0.1121
 1019YOPC   C4A13706  14.003  16.880   8.053  0.2467  0.1363  0.0838
 1019YOPC   C1B13707  14.687  16.536   6.866  0.1383 -0.0526 -0.2505
 1019YOPC   C2B13708  15.072  16.734   6.958  0.2342 -0.1867  0.0718
 1019YOPC   D3B13709  15.046  16.790   7.362 -0.0025  0.0575  0.0044
 1019YOPC   C4B13710  15.028  16.964   7.864 -0.2701  0.0854  0.0010
 1020YOPC   NC313711  16.643   8.454   5.855  0.0752  0.0639 -0.0126
 1020YOPC   PO413712  16.181   8.394   5.810  0.2348  0.2833  0.0143
 1020YOPC   GL113713  16.340   8.161   6.186  0.2603  0.0992  0.0764
 1020YOPC   GL213714  16.384   7.794   6.233 -0.1867 -0.0110  0.1792
 1020YOPC   C1A13715  16.581   8.226   6.532 -0.1846 -0.1786  0.1323
 1020YOPC   D2A13716  16.816   8.089   6.879 -0.1270 -0.1268 -0.1730
 1020YOPC   C3A13717  16.904   8.253   7.283  0.0349  0.4149  0.0561
 1020YOPC   C4A13718  16.681   8.527   7.547  0.0503 -0.0382 -0.0599
 1020YOPC   C1B13719  16.536   7.732   6.658  0.1400  0.0153 -0.0363
 1020YOPC   C2B13720  16.513   7.758   7.131 -0.0492  0.3313 -0.1023
 1020YOPC   D3B13721  16.634   7.940   7.569  0.1776 -0.3109  0.0502
 1020YOPC   C4B13722  16.952   8.129   7.777  0.0248  0.4980  0.2480
 1021YOPC   NC313723   2.753  13.692   5.991 -0.2951 -0.1674  0.0549
 1021YOPC   PO413724   2.587  14.104   6.037  0.1997  0.3085  0.0705
 1021YOPC   GL113725   2.309  14.291   6.322  0.2962  0.3612 -0.3988
 1021YOPC   GL213726   2.477  14.509   6.425 -0.2427 -0.1632  0.2671
 1021YOPC   C1A13727   2.027  14.309   6.702  0.0245  0.2092 -0.0837
 1021YOPC   D2A13728   2.046  14.299   7.084  0.0762  0.1585  0.0589
 1021YOPC   C3A13729   1.661  14.199   7.221 -0.4630 -0.1300 -0.1053
 1021YOPC   C4A13730   1.315  14.235   7.591 -0.0076  0.1738  0.0031
 1021YOPC   C1B13731   2.487  14.515   6.819 -0.0357 -0.0653  0.2323
 1021YOPC   C2B13732   2.362  14.638   7.241 -0.1594 -0.0486 -0.0770
 1021YOPC   D3B13733   2.328  14.292   7.533 -0.0371  0.0573  0.1047
 1021YOPC   C4B13734   2.368  14.177   7.957 -0.1678  0.2594  0.1014
 1022YOPC   NC313735   5.793   1.632   6.388 -0.3762  0.1986 -0.0125
 1022YOPC   PO413736   5.527   1.232   6.363  0.0021  0.0956  0.2770
 1022YOPC   GL113737   5.456   0.988   6.723  0.0239  0.2586 -0.3328
 1022YOPC   GL213738   5.185   0.707   6.709 -0.1222 -0.0724 -0.2690
 1022YOPC   C1A13739   5.531   1.200   7.157 -0.1759 -0.1418 -0.2355
 1022YOPC   D2A13740   5.633   1.360   7.566 -0.0889  0.0342 -0.3115
 1022YOPC   C3A13741   5.691   1.079   7.971  0.1721 -0.2077 -0.0718
 1022YOPC   C4A13742   5.992   0.731   8.027  0.1429  0.0424  0.0430
 1022YOPC   C1B13743   5.121   0.928   7.107  0.0364  0.2690  0.1589
 1022YOPC   C2B13744   5.277   0.997   7.554  0.0079  0.0428 -0.0504
 1022YOPC   D3B13745   5.202   1.254   7.876 -0.0497 -0.1390  0.0475
 1022YOPC   C4B13746   5.083   1.441   8.245  0.0694  0.0338  0.0204
 1023YOPC   NC313747   6.704   8.245   6.218 -0.2056 -0.1267  0.0710
 1023YOPC   PO413748   6.627   8.619   6.401  0.4257  0.0452  0.0246
 1023YOPC   GL113749   6.445   8.568   6.786  0.0591  0.2216  0.1132
 1023YOPC   GL213750   6.473   8.801   6.894 -0.0614 -0.1353 -0.0146
 1023YOPC   C1A13751   6.384   8.417   7.181  0.0052 -0.1324  0.0826
 1023YOPC   D2A13752   6.314   8.610   7.575 -0.0923 -0.0134 -0.0079
 1023YOPC   C3A13753   6.004   8.373   7.856  0.0494  0.2638 -0.1698
 1023YOPC   C4A13754   5.902   8.073   7.962 -0.0721  0.3736  0.0675
 1023YOPC   C1B13755   6.447   8.911   7.198  0.0201  0.1822  0.0260
 1023YOPC   C2B13756   6.235   9.170   7.578  0.1746  0.0897 -0.1246
 1023YOPC   D3B13757   6.187   9.058   7.929 -0.3470  0.1820  0.0579
 1023YOPC   C4B13758   6.049   9.150   8.332 -0.4659  0.3647 -0.1451
 1024YOPC   NC313759  16.679  15.462   5.670 -0.5757  0.1081  0.0875
 1024YOPC   PO413760  16.496  15.862   5.909 -0.0064 -0.0414 -0.0710
 1024YOPC   GL113761  16.694  16.131   6.256  0.1975 -0.0944 -0.2245
 1024YOPC   GL213762  17.015  16.123   6.387  0.0887 -0.1082 -0.1352
 1024YOPC   C1A13763  16.619  15.998   6.683  0.1574 -0.1407 -0.1154
 1024YOPC   D2A13764  16.704  15.742   7.004 -0.0947 -0.0532  0.0052
 1024YOPC   C3A13765  16.736  15.956   7.394 -0.0340  0.0486  0.0304
 1024YOPC   C4A13766  16.610  16.177   7.781 -0.2106  0.0052  0.1091
 1024YOPC   C1B13767  16.763  16.495   6.618 -0.2209 -0.4264  0.0517
 1024YOPC   C2B13768  16.431  16.629   6.605  0.1830 -0.0928 -0.2166
 1024YOPC   D3B13769  16.151  16.286   6.784  0.0842 -0.0640  0.0096
 1024YOPC   C4B13770  15.826  16.006   6.672  0.3408 -0.1109  0.0175
 1025YOPC   NC313771   8.868  12.053   6.060  0.1866 -0.0230 -0.4867
 1025YOPC   PO413772   8.764  12.368   6.339 -0.1133  0.0015 -0.0051
 1025YOPC   GL113773   8.664  12.437   6.806 -0.1391  0.2161 -0.0244
 1025YOPC   GL213774   8.864  12.612   7.010 -0.1118 -0.1169  0.2140
 1025YOPC   C1A13775   8.399  12.329   7.097  0.3953  0.0442  0.1263
 1025YOPC   D2A13776   8.430  12.212   7.479  0.1193 -0.0768  0.0839
 1025YOPC   C3A13777   8.698  12.452   7.591 -0.2057  0.0409  0.1803
 1025YOPC   C4A13778   8.891  12.900   7.578  0.2609 -0.1312 -0.1289
 1025YOPC   C1B13779   8.562  12.817   7.154  0.3013 -0.2597 -0.0631
 1025YOPC   C2B13780   8.373  12.819   7.575  0.3935 -0.1985 -0.0133
 1025YOPC   D3B13781   8.532  12.789   7.981  0.0623 -0.0669  0.0745
 1025YOPC   C4B13782   8.549  12.386   8.039 -0.2645  0.0256  0.0083
 1026YOPC   NC313783   3.358   5.804   5.329  0.0362 -0.0924  0.1217
 1026YOPC   PO413784   3.052   5.717   5.677 -0.0322  0.1411  0.2799
 1026YOPC   GL113785   2.995   5.551   6.050  0.2887  0.1514  0.2055
 1026YOPC   GL213786   2.607   5.515   6.073 -0.0633 -0.5043  0.0854
 1026YOPC   C1A13787   2.919   5.739   6.439 -0.1982 -0.0089  0.0284
 1026YOPC   D2A13788   2.968   5.884   6.910  0.0933 -0.2178 -0.1089
 1026YOPC   C3A13789   2.789   5.846   7.167  0.3223  0.3708  0.0333
 1026YOPC   C4A13790   2.725   5.798   7.583  0.1314  0.2839  0.3056
 1026YOPC   C1B13791   2.405   5.648   6.418  0.1262 -0.0346 -0.1597
 1026YOPC   C2B13792   2.491   5.785   6.761  0.2518 -0.1036 -0.0562
 1026YOPC   D3B13793   2.325   5.880   7.261 -0.1305  0.2510 -0.0910
 1026YOPC   C4B13794   2.204   5.797   7.650  0.1199  0.1607 -0.1957
 1027YOPC   NC313795   0.093   6.259   5.626 -0.3077 -0.0313  0.0329
 1027YOPC   PO413796  -0.127   5.927   5.549  0.3278 -0.3137  0.3623
 1027YOPC   GL113797  -0.211   5.895   5.936 -0.0216 -0.0758 -0.0466
 1027YOPC   GL213798  -0.069   5.727   6.131  0.0626 -0.3171  0.1847
 1027YOPC   C1A13799  -0.349   6.178   6.303  0.2082 -0.0070  0.3107
 1027YOPC   D2A13800  -0.451   6.583   6.439  0.2995 -0.4889  0.0430
 1027YOPC   C3A13801  -0.396   6.592   6.855 -0.2219 -0.1147 -0.0808
 1027YOPC   C4A13802  -0.342   6.512   7.283 -0.1750  0.1029 -0.0446
 1027YOPC   C1B13803  -0.090   5.729   6.576 -0.0113  0.1263  0.0305
 1027YOPC   C2B13804  -0.315   6.073   6.806 -0.0298  0.2942 -0.1602
 1027YOPC   D3B13805  -0.660   6.080   7.092 -0.0586 -0.1956 -0.1467
 1027YOPC   C4B13806  -0.913   5.820   7.361  0.2370 -0.1277  0.4121
 1028YOPC   NC313807  15.260   0.830   6.071  0.2613 -0.2303 -0.0959
 1028YOPC   PO413808  15.342   1.227   6.088 -0.3199  0.7376 -0.0932
 1028YOPC   GL113809  15.094   1.193   6.418 -0.2020 -0.0980 -0.1505
 1028YOPC   GL213810  14.950   0.901   6.420 -0.0937  0.1220  0.0960
 1028YOPC   C1A13811  14.942   1.242   6.799  0.2080  0.1404  0.0115
 1028YOPC   D2A13812  15.092   1.033   7.173  0.2550 -0.2637  0.3031
 1028YOPC   C3A13813  15.304   1.191   7.441 -0.1783  0.0764 -0.0441
 1028YOPC   C4A13814  15.634   1.417   7.535 -0.0322 -0.0885  0.2175
 1028YOPC   C1B13815  15.102   0.709   6.787 -0.1129  0.1104  0.4509
 1028YOPC   C2B13816  15.123   0.410   7.216  0.0243 -0.0939  0.1494
 1028YOPC   D3B13817  15.475   0.153   7.326 -0.1293  0.0547 -0.1120
 1028YOPC   C4B13818  15.869   0.089   7.054 -0.0929  0.1616  0.2910
 1029YOPC   NC313819   1.354   0.473   5.865  0.1342 -0.0502  0.1048
 1029YOPC   PO413820   1.404   0.790   5.547 -0.3874  0.2203  0.0140
 1029YOPC   GL113821   1.447   1.053   5.814 -0.1458 -0.3224 -0.1567
 1029YOPC   GL213822   1.348   0.926   6.032  0.0904  0.1882 -0.0251
 1029YOPC   C1A13823   1.728   1.196   6.141  0.0291 -0.3844  0.2790
 1029YOPC   D2A13824   1.910   1.256   6.586  0.1098 -0.0103  0.0241
 1029YOPC   C3A13825   1.708   0.941   6.870 -0.0220  0.1432  0.0264
 1029YOPC   C4A13826   1.604   0.848   7.322 -0.0789 -0.0179 -0.0209
 1029YOPC   C1B13827   1.572   0.827   6.406  0.1168 -0.2301  0.0750
 1029YOPC   C2B13828   1.974   0.647   6.498  0.0620  0.0018  0.0989
 1029YOPC   D3B13829   2.150   0.636   6.961  0.1416 -0.0921  0.2178
 1029YOPC   C4B13830   2.060   0.578   7.358 -0.2081  0.0330 -0.1212
 1030YOPC   NC313831  11.224  15.725   6.286  0.2043 -0.1773 -0.1608
 1030YOPC   PO413832  11.482  15.980   6.392  0.3256 -0.3522  0.3292
 1030YOPC   GL113833  11.329  16.109   6.788 -0.3193 -0.0575  0.1065
 1030YOPC   GL213834  11.033  15.994   6.740 -0.0694  0.1567 -0.1851
 1030YOPC   C1A13835  11.393  16.056   7.310 -0.0925 -0.0993 -0.0207
 1030YOPC   D2A13836  11.350  15.896   7.696 -0.1122  0.2341 -0.0401
 1030YOPC   C3A13837  11.227  15.972   8.058  0.1227  0.2125  0.1768
 1030YOPC   C4A13838  11.129  15.951   8.540 -0.0682  0.0856 -0.0492
 1030YOPC   C1B13839  11.037  15.688   7.115  0.1776 -0.2916  0.1798
 1030YOPC   C2B13840  11.222  15.452   7.442  0.1592 -0.3858  0.0653
 1030YOPC   D3B13841  11.024  15.459   7.845 -0.0892 -0.1732 -0.1439
 1030YOPC   C4B13842  11.230  15.465   8.235 -0.0326 -0.5069 -0.1648
 1031YOPC   NC313843   6.763   1.963   6.560 -0.2558 -0.0129 -0.1315
 1031YOPC   PO413844   6.636   2.453   6.555  0.1090 -0.1747 -0.2043
 1031YOPC   GL113845   6.390   2.262   6.856 -0.3480  0.0878  0.2970
 1031YOPC   GL213846   6.541   2.262   7.085 -0.1399 -0.1476 -0.1533
 1031YOPC   C1A13847   6.347   1.823   7.087  0.4036 -0.4002 -0.0185
 1031YOPC   D2A13848   6.245   1.662   7.533 -0.0143 -0.0369 -0.0726
 1031YOPC   C3A13849   5.916   1.819   7.676  0.2124 -0.5818 -0.0968
 1031YOPC   C4A13850   5.838   1.984   8.074 -0.0982 -0.1286  0.1952
 1031YOPC   C1B13851   6.824   2.260   7.398  0.1503  0.1288 -0.1543
 1031YOPC   C2B13852   7.106   2.519   7.591 -0.2065 -0.0277 -0.0064
 1031YOPC   D3B13853   6.978   2.775   7.909 -0.0080  0.0930 -0.2708
 1031YOPC   C4B13854   6.970   2.695   8.312 -0.1323 -0.0685 -0.3678
 1032YOPC   NC313855  12.602   7.585   5.880  0.0510 -0.1017 -0.1137
 1032YOPC   PO413856  12.358   7.979   5.869  0.2400 -0.0048  0.1754
 1032YOPC   GL113857  12.415   7.882   6.229 -0.2368  0.1824 -0.0282
 1032YOPC   GL213858  12.209   7.805   6.516 -0.0932 -0.0488  0.1283
 1032YOPC   C1A13859  12.726   7.795   6.619  0.1453  0.2413 -0.0479
 1032YOPC   D2A13860  12.829   7.577   6.920  0.0292  0.0704  0.1140
 1032YOPC   C3A13861  12.664   7.578   7.367 -0.1403 -0.0614  0.1984
 1032YOPC   C4A13862  12.422   7.565   7.729  0.0340 -0.1605 -0.1082
 1032YOPC   C1B13863  11.918   7.851   6.848  0.0477 -0.1551  0.0765
 1032YOPC   C2B13864  11.772   7.617   7.207 -0.4239  0.2684  0.1312
 1032YOPC   D3B13865  11.837   7.570   7.659 -0.1628  0.0402 -0.0246
 1032YOPC   C4B13866  11.684   7.538   7.945 -0.4175  0.1689 -0.0549
 1033YOPC   NC313867   4.836  14.248   6.077 -0.0486  0.1793  0.0346
 1033YOPC   PO413868   5.163  14.088   6.171 -0.2686 -0.2284  0.0816
 1033YOPC   GL113869   5.330  14.024   6.619 -0.0798 -0.1538 -0.1949
 1033YOPC   GL213870   5.417  13.789   6.821  0.2568 -0.0566  0.2036
 1033YOPC   C1A13871   5.214  14.272   6.914  0.1475 -0.1043  0.1107
 1033YOPC   D2A13872   5.037  14.258   7.331 -0.0403 -0.0600 -0.0029
 1033YOPC   C3A13873   4.993  14.654   7.584 -0.0680 -0.0643  0.0293
 1033YOPC   C4A13874   4.979  14.819   7.910  0.1159 -0.0479 -0.4053
 1033YOPC   C1B13875   5.260  13.840   7.217 -0.2572  0.0569 -0.2015
 1033YOPC   C2B13876   5.333  13.855   7.604  0.0649  0.1751  0.0739
 1033YOPC   D3B13877   5.300  14.307   7.811 -0.4191  0.0806 -0.0842
 1033YOPC   C4B13878   5.277  14.498   8.180  0.1291 -0.0360  0.1991
 1034YOPC   NC313879  11.670   9.955   6.402  0.1487  0.2226 -0.0916
 1034YOPC   PO413880  11.994   9.876   6.633  0.1904  0.1377 -0.1836
 1034YOPC   GL113881  11.732   9.973   6.955  0.2116 -0.0501 -0.0299
 1034YOPC   GL213882  11.496   9.657   6.845 -0.4568  0.1116  0.2835
 1034YOPC   C1A13883  11.650   9.794   7.322  0.0708 -0.0867  0.1710
 1034YOPC   D2A13884  11.315   9.760   7.692  0.1774 -0.0922  0.0804
 1034YOPC   C3A13885  11.399  10.114   8.024  0.1322  0.2075  0.1824
 1034YOPC   C4A13886  11.153  10.470   8.171  0.2144 -0.3133  0.0517
 1034YOPC   C1B13887  11.318   9.420   7.214  0.0258  0.1025  0.0249
 1034YOPC   C2B13888  11.128   9.192   7.586  0.3704  0.1783  0.0863
 1034YOPC   D3B13889  11.192   9.350   7.982 -0.1518 -0.1516 -0.0637
 1034YOPC   C4B13890  11.117   9.434   8.383  0.0846 -0.2292  0.0977
 1035YOPC   NC313891   1.507  16.644   5.993  0.1072 -0.0241  0.0621
 1035YOPC   PO413892   1.658  17.087   6.008  0.1003  0.2200 -0.2818
 1035YOPC   GL113893   1.472  17.442   6.326  0.0528  0.0395  0.4007
 1035YOPC   GL213894   1.211  17.461   6.468  0.0520  0.1742  0.2299
 1035YOPC   C1A13895   1.586  17.716   6.710  0.0914 -0.1643 -0.1177
 1035YOPC   D2A13896   1.265  17.866   6.905 -0.3281 -0.2855 -0.3088
 1035YOPC   C3A13897   1.214  17.838   7.319  0.1065  0.0305 -0.1840
 1035YOPC   C4A13898   1.296  17.936   7.717 -0.1429  0.0608  0.1648
 1035YOPC   C1B13899   1.218  17.391   6.827  0.0033 -0.1172  0.3700
 1035YOPC   C2B13900   1.517  17.447   7.132 -0.3840  0.0229 -0.1437
 1035YOPC   D3B13901   1.429  17.104   7.483  0.1304  0.1801 -0.0017
 1035YOPC   C4B13902   1.452  17.009   7.920 -0.3039 -0.1202 -0.1751
 1036YOPC   NC313903   3.597  17.024   5.891 -0.0893  0.0313 -0.2049
 1036YOPC   PO413904   4.050  17.016   6.052 -0.0634  0.0183  0.0710
 1036YOPC   GL113905   4.232  17.085   6.485  0.1537  0.2215  0.1623
 1036YOPC   GL213906   4.545  17.254   6.451 -0.0501 -0.1202  0.1781
 1036YOPC   C1A13907   4.001  17.391   6.826  0.0616  0.0003 -0.0484
 1036YOPC   D2A13908   3.860  17.788   7.002  0.3278  0.0946 -0.1269
 1036YOPC   C3A13909   3.669  17.834   7.410  0.0954  0.0633  0.2007
 1036YOPC   C4A13910   3.717  17.888   7.869  0.0746 -0.0659 -0.1287
 1036YOPC   C1B13911   4.567  17.360   6.889  0.3965  0.2698  0.0575
 1036YOPC   C2B13912   4.192  17.159   7.230 -0.1340 -0.0483  0.1035
 1036YOPC   D3B13913   3.741  17.310   7.319  0.2767  0.0344  0.0165
 1036YOPC   C4B13914   3.605  17.418   7.715  0.0780  0.1912  0.2825
 1037YOPC   NC313915   4.750  10.824   5.662  0.1574  0.0891  0.0622
 1037YOPC   PO413916   5.219  10.939   5.726  0.2653 -0.0622 -0.0244
 1037YOPC   GL113917   5.194  11.138   6.255 -0.2686 -0.0006  0.2634
 1037YOPC   GL213918   5.507  11.016   6.460  0.2237 -0.0222 -0.1723
 1037YOPC   C1A13919   5.042  11.293   6.672  0.0187  0.0521 -0.1053
 1037YOPC   D2A13920   4.958  11.554   6.953 -0.0941 -0.0383 -0.0233
 1037YOPC   C3A13921   4.586  11.662   7.078 -0.0701  0.1275 -0.0018
 1037YOPC   C4A13922   4.422  11.625   7.591 -0.0848  0.0952  0.0762
 1037YOPC   C1B13923   5.508  11.369   6.838  0.0409 -0.2365 -0.0466
 1037YOPC   C2B13924   5.400  11.567   7.250  0.0545 -0.1706 -0.2088
 1037YOPC   D3B13925   5.390  11.547   7.762  0.1531 -0.1159 -0.2073
 1037YOPC   C4B13926   5.238  11.564   8.094 -0.0771  0.0986 -0.1035
 1038YOPC   NC313927  12.050  13.126   6.226 -0.0564 -0.1868  0.3375
 1038YOPC   PO413928  12.002  12.665   6.247 -0.1594  0.0279 -0.1733
 1038YOPC   GL113929  12.041  12.737   6.684  0.1720  0.0972 -0.5358
 1038YOPC   GL213930  12.304  12.605   6.861  0.0876 -0.0355 -0.3073
 1038YOPC   C1A13931  12.008  13.088   7.001  0.1883  0.1306 -0.1159
 1038YOPC   D2A13932  11.896  13.148   7.470  0.1360  0.2558 -0.2050
 1038YOPC   C3A13933  12.129  13.132   7.893 -0.0545 -0.0262  0.0225
 1038YOPC   C4A13934  12.528  13.036   8.014  0.0466  0.1123  0.0988
 1038YOPC   C1B13935  12.510  12.794   7.195 -0.1736 -0.1594  0.3386
 1038YOPC   C2B13936  12.446  12.826   7.499  0.2480 -0.0243  0.1301
 1038YOPC   D3B13937  12.566  12.643   7.785  0.1508  0.1897 -0.1349
 1038YOPC   C4B13938  12.847  12.439   8.105  0.0040 -0.2771 -0.0847
 1039YOPC   NC313939  13.461  12.211   6.256  0.1546  0.0467  0.3488
 1039YOPC   PO413940  12.968  12.287   6.292  0.3706 -0.2271  0.0032
 1039YOPC   GL113941  13.157  12.206   6.665  0.2648 -0.0215 -0.0032
 1039YOPC   GL213942  13.011  11.992   6.813 -0.1444  0.0494  0.0950
 1039YOPC   C1A13943  13.440  12.369   6.941  0.1207  0.2443 -0.3083
 1039YOPC   D2A13944  13.339  12.391   7.374  0.1817 -0.4377 -0.1168
 1039YOPC   C3A13945  13.322  12.261   7.739 -0.0404 -0.0048  0.2543
 1039YOPC   C4A13946  13.693  12.254   8.038  0.4041 -0.1871  0.3179
 1039YOPC   C1B13947  12.978  12.069   7.219  0.0656 -0.1904 -0.0464
 1039YOPC   C2B13948  12.832  12.262   7.635  0.0636  0.0486  0.1706
 1039YOPC   D3B13949  12.795  11.922   8.003 -0.0967 -0.1632  0.1432
 1039YOPC   C4B13950  12.711  12.060   8.408 -0.2771  0.0141 -0.1468
 1040YOPC   NC313951  15.132   3.491   5.755  0.3340 -0.0387  0.0396
 1040YOPC   PO413952  14.972   3.881   6.028  0.0652 -0.1025 -0.0064
 1040YOPC   GL113953  15.327   3.842   6.267  0.0061 -0.1706  0.0219
 1040YOPC   GL213954  15.456   3.495   6.125 -0.2153  0.1867  0.2905
 1040YOPC   C1A13955  15.322   3.923   6.704  0.0946 -0.0837  0.2846
 1040YOPC   D2A13956  15.675   3.920   7.057 -0.1760  0.1333  0.2912
 1040YOPC   C3A13957  15.796   3.813   7.433  0.1230  0.2884 -0.0880
 1040YOPC   C4A13958  15.856   3.527   7.879 -0.1052 -0.0000 -0.0606
 1040YOPC   C1B13959  15.666   3.487   6.464 -0.0795 -0.3318 -0.0084
 1040YOPC   C2B13960  15.819   3.158   6.645  0.2042  0.0664  0.1068
 1040YOPC   D3B13961  15.460   2.959   6.842 -0.1574  0.2135 -0.1063
 1040YOPC   C4B13962  15.371   2.740   7.132 -0.0129 -0.3798  0.0163
 1041YOPC   NC313963  16.162  14.606   5.465 -0.0180  0.0157  0.0110
 1041YOPC   PO413964  16.321  14.583   5.933  0.1500  0.3400  0.0582
 1041YOPC   GL113965  16.402  14.548   6.366  0.1848 -0.0610 -0.1556
 1041YOPC   GL213966  16.345  14.776   6.552  0.1068 -0.1758 -0.0567
 1041YOPC   C1A13967  16.790  14.316   6.569  0.0115 -0.5592 -0.0173
 1041YOPC   D2A13968  16.809  14.300   7.070  0.1095 -0.1423  0.0202
 1041YOPC   C3A13969  17.166  14.355   7.335  0.0327  0.0945 -0.0977
 1041YOPC   C4A13970  17.468  14.261   7.544  0.0117 -0.1000 -0.1417
 1041YOPC   C1B13971  16.283  14.793   6.959  0.3748 -0.2572 -0.3088
 1041YOPC   C2B13972  16.398  14.854   7.316 -0.1861  0.2558 -0.1236
 1041YOPC   D3B13973  16.606  14.507   7.464  0.3304 -0.1468 -0.1825
 1041YOPC   C4B13974  16.524  14.120   7.687 -0.4997 -0.1448 -0.0045
 1042YOPC   NC313975   3.505   6.347   6.011 -0.0210 -0.2491  0.1751
 1042YOPC   PO413976   3.613   6.827   6.027 -0.1197 -0.0268  0.0659
 1042YOPC   GL113977   3.537   7.080   6.342  0.1375 -0.0071 -0.0467
 1042YOPC   GL213978   3.886   7.111   6.443 -0.1686  0.1338  0.0185
 1042YOPC   C1A13979   3.316   7.460   6.553 -0.1354 -0.0483 -0.2015
 1042YOPC   D2A13980   3.000   7.545   6.830  0.1221  0.0790 -0.0949
 1042YOPC   C3A13981   2.964   7.578   7.233 -0.0086  0.2203 -0.1267
 1042YOPC   C4A13982   2.976   7.547   7.744 -0.1733 -0.0802  0.0176
 1042YOPC   C1B13983   3.657   7.198   6.857  0.3112  0.0353  0.1810
 1042YOPC   C2B13984   3.450   7.251   7.336  0.1027  0.2759 -0.0551
 1042YOPC   D3B13985   3.713   7.129   7.713  0.4994 -0.3871  0.1836
 1042YOPC   C4B13986   3.738   7.100   8.165  0.0280  0.0620  0.0687
 1043YOPC   NC313987   5.070  15.162   5.586  0.0911 -0.2656  0.0013
 1043YOPC   PO413988   5.355  15.189   5.909 -0.0176  0.1383 -0.1554
 1043YOPC   GL113989   5.397  14.906   6.283 -0.3118 -0.0980 -0.2370
 1043YOPC   GL213990   5.110  15.044   6.387  0.1728  0.1001 -0.0180
 1043YOPC   C1A13991   5.597  15.067   6.691  0.1651  0.1540 -0.0128
 1043YOPC   D2A13992   5.854  15.184   6.956 -0.0675 -0.2069  0.2541
 1043YOPC   C3A13993   5.731  14.895   7.301  0.0153 -0.0754  0.0131
 1043YOPC   C4A13994   5.574  14.703   7.713  0.4355  0.2959  0.1987
 1043YOPC   C1B13995   5.089  15.233   6.834 -0.1792 -0.1148  0.1327
 1043YOPC   C2B13996   4.935  15.544   7.104 -0.4407  0.0108  0.0515
 1043YOPC   D3B13997   4.832  15.338   7.560  0.1884  0.1209 -0.0816
 1043YOPC   C4B13998   4.855  15.253   8.077  0.1994  0.0687 -0.0021
 1044YOPC   NC313999  11.917   4.747   6.322  0.0078 -0.1285  0.0937
 1044YOPC   PO414000  11.738   4.332   6.502 -0.1413 -0.1906 -0.0705
 1044YOPC   GL114001  11.605   4.430   6.822  0.2219  0.2322 -0.2243
 1044YOPC   GL214002  11.573   4.790   6.817 -0.3050 -0.0326 -0.1461
 1044YOPC   C1A14003  11.527   4.379   7.171  0.1549  0.0935 -0.1966
 1044YOPC   D2A14004  11.416   4.265   7.650 -0.5072  0.2600  0.0526
 1044YOPC   C3A14005  11.595   4.044   7.945  0.1220 -0.1592 -0.0913
 1044YOPC   C4A14006  11.524   3.644   8.197  0.0550  0.2115  0.0560
 1044YOPC   C1B14007  11.706   4.894   7.213  0.1132  0.0437  0.1657
 1044YOPC   C2B14008  11.700   4.807   7.654  0.0495 -0.0658  0.1956
 1044YOPC   D3B14009  11.423   5.036   8.006 -0.3562 -0.0518 -0.1474
 1044YOPC   C4B14010  11.460   4.916   8.443 -0.0014  0.0589 -0.1705
 1045YOPC   NC314011  11.313  14.771   6.320  0.0399  0.2464 -0.0129
 1045YOPC   PO414012  11.186  14.326   6.414 -0.0210 -0.0241  0.1664
 1045YOPC   GL114013  11.128  14.038   6.778 -0.0587 -0.0598 -0.1595
 1045YOPC   GL214014  11.235  13.762   6.926  0.1989  0.2729 -0.0151
 1045YOPC   C1A14015  10.901  14.064   7.205  0.3114 -0.1589  0.1297
 1045YOPC   D2A14016  10.573  14.270   7.360 -0.1553  0.0671  0.0102
 1045YOPC   C3A14017  10.642  14.226   7.775 -0.0043  0.3560  0.2096
 1045YOPC   C4A14018  10.639  14.051   8.120 -0.2071  0.0339 -0.1523
 1045YOPC   C1B14019  11.304  13.762   7.300 -0.0402  0.0936  0.0531
 1045YOPC   C2B14020  10.978  13.819   7.622 -0.0253 -0.1533 -0.0698
 1045YOPC   D3B14021  10.845  13.671   7.925  0.1675  0.3135  0.0599
 1045YOPC   C4B14022  10.551  13.481   8.304  0.0171 -0.0488  0.1971
 1046YOPC   NC314023  15.353  16.100   5.710  0.0871 -0.1968 -0.2827
 1046YOPC   PO414024  15.619  15.815   5.937  0.1155 -0.0985  0.0000
 1046YOPC   GL114025  15.406  15.677   6.412 -0.0071 -0.0787  0.1486
 1046YOPC   GL214026  15.655  15.541   6.599 -0.1391 -0.0996  0.0184
 1046YOPC   C1A14027  15.396  15.892   6.862 -0.0264  0.1159  0.2940
 1046YOPC   D2A14028  15.502  16.051   7.225  0.2106 -0.0863 -0.1352
 1046YOPC   C3A14029  15.874  15.876   7.470  0.1991  0.0429 -0.0566
 1046YOPC   C4A14030  16.116  16.073   7.815  0.0887  0.0212 -0.2215
 1046YOPC   C1B14031  15.671  15.526   7.031 -0.3166  0.0239  0.1585
 1046YOPC   C2B14032  15.677  15.227   7.226 -0.1333 -0.0221  0.1667
 1046YOPC   D3B14033  15.927  15.015   7.479  0.2944 -0.1054 -0.0283
 1046YOPC   C4B14034  15.881  15.037   7.936  0.4635 -0.0178  0.0755
 1047YOPC   NC314035  12.631   5.479   6.389 -0.2727  0.0693 -0.0971
 1047YOPC   PO414036  12.651   5.888   6.606  0.2034 -0.2719  0.3103
 1047YOPC   GL114037  12.774   5.800   6.987 -0.2331 -0.0759 -0.4301
 1047YOPC   GL214038  13.050   5.827   6.862  0.0132 -0.2330  0.0443
 1047YOPC   C1A14039  12.466   5.592   7.129  0.1204  0.0992 -0.1449
 1047YOPC   D2A14040  12.440   5.364   7.477 -0.2070 -0.0338 -0.1887
 1047YOPC   C3A14041  12.434   5.487   7.914  0.2023  0.0959  0.2706
 1047YOPC   C4A14042  12.297   5.327   8.299  0.0113 -0.1424 -0.0726
 1047YOPC   C1B14043  13.157   5.683   7.305 -0.0585  0.1028  0.0271
 1047YOPC   C2B14044  13.143   5.649   7.823 -0.0557 -0.2053  0.0711
 1047YOPC   D3B14045  13.220   5.255   7.953  0.0919  0.0644  0.1399
 1047YOPC   C4B14046  13.525   5.066   8.103 -0.2208 -0.1246 -0.3216
 1048YOPC   NC314047  16.669   8.373   5.278  0.2096  0.1486  0.0273
 1048YOPC   PO414048  16.744   8.831   5.475  0.1953  0.2231 -0.1616
 1048YOPC   GL114049  16.960   8.874   5.879 -0.1280  0.0983  0.2155
 1048YOPC   GL214050  16.868   9.226   6.120  0.4028 -0.1808 -0.2636
 1048YOPC   C1A14051  17.404   8.953   6.206  0.0370 -0.0287  0.0086
 1048YOPC   D2A14052  17.746   9.318   6.096  0.1083 -0.0631 -0.1909
 1048YOPC   C3A14053  17.997   9.308   6.427 -0.0517  0.0515 -0.3457
 1048YOPC   C4A14054  18.288   9.496   6.645 -0.3742 -0.0663 -0.1528
 1048YOPC   C1B14055  16.987   9.140   6.443 -0.3675 -0.0068 -0.0176
 1048YOPC   C2B14056  16.886   9.201   6.910 -0.3278  0.3682  0.1536
 1048YOPC   D3B14057  16.926   8.873   7.239  0.4295 -0.2260  0.2429
 1048YOPC   C4B14058  16.858   8.984   7.668 -0.1615  0.2264 -0.1037
 1049YOPC   NC314059   3.132   2.034   5.993 -0.3448  0.1323 -0.2368
 1049YOPC   PO414060   2.820   2.312   5.817  0.0600 -0.3374 -0.0237
 1049YOPC   GL114061   2.762   2.451   6.205  0.1669 -0.2045 -0.3386
 1049YOPC   GL214062   3.036   2.362   6.324  0.0655  0.1019  0.0072
 1049YOPC   C1A14063   2.568   2.683   6.561 -0.2297  0.1162 -0.1522
 1049YOPC   D2A14064   2.411   2.766   6.965 -0.0395 -0.0002  0.0842
 1049YOPC   C3A14065   2.280   2.987   7.307  0.1657 -0.1187  0.0378
 1049YOPC   C4A14066   2.564   3.005   7.635  0.3279 -0.0478 -0.0400
 1049YOPC   C1B14067   2.782   2.120   6.684  0.0131 -0.2245  0.0155
 1049YOPC   C2B14068   2.654   1.924   6.975 -0.1766  0.1611  0.0755
 1049YOPC   D3B14069   2.431   1.738   7.230  0.1972 -0.0542 -0.1480
 1049YOPC   C4B14070   2.365   1.507   7.495  0.0358  0.1059  0.0658
 1050YOPC   NC314071   3.393   4.385   5.704 -0.1985 -0.0118 -0.0573
 1050YOPC   PO414072   3.605   4.715   5.916  0.4271 -0.1225  0.1878
 1050YOPC   GL114073   3.505   4.769   6.452 -0.0326  0.1558 -0.1129
 1050YOPC   GL214074   3.709   4.587   6.557 -0.0801  0.2552 -0.0723
 1050YOPC   C1A14075   3.239   4.938   6.795 -0.1859 -0.1043 -0.1031
 1050YOPC   D2A14076   2.937   4.762   7.146  0.0774  0.0037 -0.0314
 1050YOPC   C3A14077   2.776   4.872   7.646 -0.0495 -0.0268 -0.0414
 1050YOPC   C4A14078   2.437   5.038   7.752 -0.2992 -0.3327 -0.0723
 1050YOPC   C1B14079   3.777   4.806   6.982 -0.0019  0.0225  0.3278
 1050YOPC   C2B14080   3.652   4.804   7.401  0.4351 -0.1697  0.0604
 1050YOPC   D3B14081   3.282   4.595   7.438  0.0214  0.4781  0.1968
 1050YOPC   C4B14082   2.867   4.342   7.511 -0.0987 -0.0604 -0.2308
 1051YOPC   NC314083   1.421   1.227   5.288 -0.1679 -0.0269  0.0828
 1051YOPC   PO414084   1.323   1.546   5.558 -0.0829 -0.1052  0.3855
 1051YOPC   GL114085   1.388   1.649   5.987  0.0336  0.2262  0.2065
 1051YOPC   GL214086   1.249   1.382   6.184 -0.0042 -0.2048 -0.3621
 1051YOPC   C1A14087   1.446   2.061   6.116  0.0455  0.1080 -0.0906
 1051YOPC   D2A14088   1.409   2.458   6.093  0.1123 -0.2040 -0.2177
 1051YOPC   C3A14089   1.121   2.737   6.216 -0.1417 -0.1049  0.1190
 1051YOPC   C4A14090   0.951   3.055   6.455 -0.1716  0.0334  0.0369
 1051YOPC   C1B14091   1.344   1.267   6.569 -0.0785 -0.0076 -0.3444
 1051YOPC   C2B14092   1.520   1.449   6.922 -0.1142 -0.1464 -0.0212
 1051YOPC   D3B14093   1.562   1.332   7.346 -0.0751  0.1100  0.0754
 1051YOPC   C4B14094   1.553   1.444   7.742 -0.3466 -0.3803 -0.0776
 1052YOPC   NC314095   8.034   9.220   6.254  0.2352  0.0637 -0.0089
 1052YOPC   PO414096   8.317   8.886   6.213  0.0477 -0.0521 -0.1478
 1052YOPC   GL114097   8.292   8.812   6.622  0.0634 -0.2219 -0.0248
 1052YOPC   GL214098   8.489   8.639   6.788  0.0442 -0.1398 -0.0816
 1052YOPC   C1A14099   8.333   9.130   6.951  0.0094 -0.2404  0.0191
 1052YOPC   D2A14100   8.520   9.360   7.316 -0.0063 -0.3273 -0.0591
 1052YOPC   C3A14101   8.513   9.334   7.713  0.1116 -0.3079 -0.1516
 1052YOPC   C4A14102   8.235   9.251   7.984 -0.2263  0.1397  0.1559
 1052YOPC   C1B14103   8.317   8.674   7.178  0.2808  0.0509  0.1271
 1052YOPC   C2B14104   8.277   8.963   7.457 -0.0990  0.2132  0.1745
 1052YOPC   D3B14105   8.407   8.719   7.800  0.0875  0.0831  0.2203
 1052YOPC   C4B14106   8.387   8.234   7.890  0.1011 -0.0222 -0.0238
 1053YOPC   NC314107   2.708  12.584   5.879 -0.0381  0.0594 -0.0254
 1053YOPC   PO414108   2.747  12.812   6.193 -0.5891 -0.1498  0.1478
 1053YOPC   GL114109   2.466  12.521   6.384 -0.3986  0.0140  0.1963
 1053YOPC   GL214110   2.173  12.613   6.388  0.1075  0.1316  0.2000
 1053YOPC   C1A14111   2.129  12.233   6.708  0.4663 -0.1175 -0.0988
 1053YOPC   D2A14112   1.942  12.495   7.071 -0.0249 -0.0258  0.2403
 1053YOPC   C3A14113   1.923  12.308   7.436 -0.2672  0.1294 -0.3249
 1053YOPC   C4A14114   1.674  12.091   7.716 -0.0598  0.1815 -0.0186
 1053YOPC   C1B14115   2.148  12.865   6.697  0.2566  0.3582  0.0166
 1053YOPC   C2B14116   2.101  12.948   7.155 -0.1738 -0.0246 -0.1297
 1053YOPC   D3B14117   2.617  13.101   7.297  0.0944  0.4350 -0.0364
 1053YOPC   C4B14118   2.665  13.361   7.431 -0.2850  0.1489 -0.0125
 1054YOPC   NC314119   8.591   3.242   6.421  0.3428  0.0677 -0.0085
 1054YOPC   PO414120   8.346   2.905   6.533 -0.1668  0.3836 -0.0270
 1054YOPC   GL114121   8.270   2.745   6.991 -0.3453 -0.0510 -0.2242
 1054YOPC   GL214122   8.115   2.426   7.080 -0.0545  0.1653  0.0824
 1054YOPC   C1A14123   8.400   2.871   7.420 -0.2112  0.2005 -0.0640
 1054YOPC   D2A14124   8.514   2.920   7.857 -0.0496 -0.0347 -0.0172
 1054YOPC   C3A14125   8.440   3.202   8.091  0.3303  0.0511 -0.4198
 1054YOPC   C4A14126   8.357   3.182   8.567 -0.2265 -0.0193 -0.1142
 1054YOPC   C1B14127   7.915   2.769   7.333 -0.3947 -0.4603  0.1142
 1054YOPC   C2B14128   7.476   2.849   7.563  0.1545  0.1017 -0.1484
 1054YOPC   D3B14129   7.421   2.921   7.999  0.0708 -0.0475  0.1341
 1054YOPC   C4B14130   7.515   3.062   8.417 -0.0110 -0.0863  0.1472
 1055YOPC   NC314131  13.987  14.657   6.262 -0.2763  0.0295 -0.1567
 1055YOPC   PO414132  13.939  14.280   6.274 -0.1432  0.3477 -0.1037
 1055YOPC   GL114133  14.225  14.286   6.591 -0.0286  0.3995 -0.0209
 1055YOPC   GL214134  14.470  14.086   6.591 -0.2869 -0.2823 -0.0773
 1055YOPC   C1A14135  14.133  14.331   6.983 -0.1328  0.2624  0.0563
 1055YOPC   D2A14136  14.153  14.357   7.407 -0.1689  0.0451  0.0239
 1055YOPC   C3A14137  13.948  14.783   7.688  0.2211 -0.2131  0.2342
 1055YOPC   C4A14138  13.994  15.043   8.009 -0.0193 -0.1741 -0.2747
 1055YOPC   C1B14139  14.777  13.767   6.707  0.3279  0.0185  0.0875
 1055YOPC   C2B14140  14.944  13.510   6.939  0.0144 -0.0529  0.1868
 1055YOPC   D3B14141  15.048  13.504   7.372  0.2802  0.1309  0.0029
 1055YOPC   C4B14142  14.980  13.620   7.846  0.0570 -0.2052 -0.0942
 1056YOPC   NC314143  14.591   0.634   5.552  0.1393 -0.0140 -0.3313
 1056YOPC   PO414144  14.486   0.228   5.844 -0.0067 -0.3138 -0.0402
 1056YOPC   GL114145  14.426   0.248   6.182 -0.2590  0.0832  0.1706
 1056YOPC   GL214146  14.167   0.106   6.416  0.0545 -0.1000  0.1967
 1056YOPC   C1A14147  14.604   0.430   6.533 -0.0707  0.2520 -0.2148
 1056YOPC   D2A14148  14.613   0.841   6.809  0.1987 -0.1479  0.0814
 1056YOPC   C3A14149  14.648   0.955   7.235  0.1057  0.0122  0.1550
 1056YOPC   C4A14150  14.782   1.094   7.645 -0.3280  0.3332 -0.0383
 1056YOPC   C1B14151  14.226   0.182   6.803 -0.1146  0.0925  0.0657
 1056YOPC   C2B14152  14.622   0.383   7.054  0.0259 -0.2220  0.2845
 1056YOPC   D3B14153  14.626   0.514   7.474  0.0474  0.0061 -0.0566
 1056YOPC   C4B14154  14.797   0.664   7.835 -0.0080  0.1802  0.0334
 1057YOPC   NC314155  17.136  13.872   5.156 -0.1744  0.0592  0.1001
 1057YOPC   PO414156  16.993  13.668   5.570 -0.0778 -0.2445  0.0832
 1057YOPC   GL114157  17.224  13.398   5.953 -0.0985 -0.2473 -0.0023
 1057YOPC   GL214158  17.180  13.629   6.116  0.0916  0.0476 -0.0857
 1057YOPC   C1A14159  17.390  13.274   6.368  0.0044  0.0609 -0.0281
 1057YOPC   D2A14160  17.319  13.468   6.848  0.0845  0.2057  0.5078
 1057YOPC   C3A14161  17.228  13.510   7.206 -0.0174  0.1815  0.2568
 1057YOPC   C4A14162  17.310  13.803   7.565  0.1815  0.1529 -0.0080
 1057YOPC   C1B14163  16.963  13.690   6.459 -0.1493  0.0762 -0.0743
 1057YOPC   C2B14164  16.760  13.837   6.865  0.1503  0.2167 -0.1589
 1057YOPC   D3B14165  16.840  13.763   7.284 -0.1019 -0.2309  0.1264
 1057YOPC   C4B14166  16.890  13.831   7.827 -0.0911  0.0369  0.1046
 1058YOPC   NC314167   7.795   6.031   6.014  0.1089  0.1812  0.1141
 1058YOPC   PO414168   7.718   6.086   6.395  0.0038  0.1705 -0.3029
 1058YOPC   GL114169   7.594   6.014   6.768 -0.0426 -0.0332 -0.1168
 1058YOPC   GL214170   7.921   5.860   6.866  0.0560 -0.1696 -0.1267
 1058YOPC   C1A14171   7.641   6.217   7.118 -0.0306  0.1674  0.1387
 1058YOPC   D2A14172   7.651   6.121   7.584 -0.0645 -0.1905 -0.2355
 1058YOPC   C3A14173   7.376   6.252   7.805  0.4153  0.0561  0.1115
 1058YOPC   C4A14174   6.921   6.306   7.750 -0.1127 -0.1672  0.0633
 1058YOPC   C1B14175   8.107   5.867   7.225  0.1149  0.2021 -0.1963
 1058YOPC   C2B14176   8.097   5.754   7.660  0.2447 -0.1202  0.0582
 1058YOPC   D3B14177   7.771   5.802   8.089  0.1377  0.0315 -0.1229
 1058YOPC   C4B14178   7.560   5.925   8.553 -0.1476 -0.2092  0.4581
 1059YOPC   NC314179  17.736   4.773   5.755 -0.2379 -0.0297  0.0973
 1059YOPC   PO414180  18.067   4.953   5.871 -0.1147 -0.0239 -0.0423
 1059YOPC   GL114181  18.239   4.795   6.138  0.1984  0.0952 -0.1001
 1059YOPC   GL214182  18.414   4.579   6.023 -0.3119 -0.2383 -0.1825
 1059YOPC   C1A14183  18.050   4.769   6.524 -0.0688  0.1823 -0.1391
 1059YOPC   D2A14184  18.044   4.719   6.949 -0.2095  0.2436  0.5960
 1059YOPC   C3A14185  18.370   4.657   7.203  0.1726  0.1366  0.1239
 1059YOPC   C4A14186  18.547   4.520   7.622  0.1074 -0.0359  0.3572
 1059YOPC   C1B14187  18.550   4.476   6.462 -0.1431  0.0945 -0.1185
 1059YOPC   C2B14188  18.747   4.495   6.810  0.1965 -0.4051 -0.0441
 1059YOPC   D3B14189  18.765   4.339   7.181 -0.2378 -0.1174 -0.0585
 1059YOPC   C4B14190  18.733   4.006   7.474 -0.1123 -0.2927  0.0749
 1060YOPC   NC314191   2.832   6.522   5.329  0.2728 -0.0512 -0.1096
 1060YOPC   PO414192   2.485   6.792   5.428  0.3671 -0.0554  0.2108
 1060YOPC   GL114193   2.472   6.664   5.875  0.0366 -0.0254  0.0725
 1060YOPC   GL214194   2.236   6.853   6.000 -0.0648  0.2505 -0.1810
 1060YOPC   C1A14195   2.570   6.646   6.313  0.0041 -0.1334  0.2250
 1060YOPC   D2A14196   2.663   6.803   6.685  0.0818 -0.2934  0.1883
 1060YOPC   C3A14197   2.639   7.183   6.886  0.0663  0.2018  0.1556
 1060YOPC   C4A14198   2.458   7.527   7.169  0.1564  0.2508  0.0712
 1060YOPC   C1B14199   2.095   6.757   6.414  0.1717  0.1606  0.2020
 1060YOPC   C2B14200   2.169   6.669   6.907 -0.1094  0.1821  0.0122
 1060YOPC   D3B14201   1.986   6.810   7.187  0.0739 -0.2537 -0.1444
 1060YOPC   C4B14202   1.964   6.745   7.629  0.0998 -0.3204 -0.2028
 1061YOPC   NC314203  17.590   2.338   5.723  0.3771 -0.0817  0.3789
 1061YOPC   PO414204  17.278   2.392   5.895  0.3090  0.0437  0.2128
 1061YOPC   GL114205  17.505   2.565   6.217  0.0862  0.1807  0.0424
 1061YOPC   GL214206  17.382   2.921   6.386  0.3172 -0.0401  0.2864
 1061YOPC   C1A14207  17.713   2.623   6.603  0.1247 -0.0848  0.0983
 1061YOPC   D2A14208  18.067   2.838   6.817  0.2361  0.0399 -0.1409
 1061YOPC   C3A14209  18.498   2.727   6.699 -0.0801  0.1223 -0.1460
 1061YOPC   C4A14210  18.930   2.689   6.738  0.0196  0.1453 -0.2628
 1061YOPC   C1B14211  17.277   2.801   6.803 -0.0370 -0.0549 -0.0231
 1061YOPC   C2B14212  17.386   2.836   7.266  0.0516 -0.1893  0.2994
 1061YOPC   D3B14213  17.142   2.897   7.523  0.0413 -0.0346 -0.1139
 1061YOPC   C4B14214  17.047   2.749   7.906  0.2103 -0.0777 -0.1576
 1062YOPC   NC314215  11.392  11.559   6.122  0.0472 -0.0133 -0.3398
 1062YOPC   PO414216  11.026  11.773   6.078 -0.0094 -0.0547  0.0219
 1062YOPC   GL114217  10.983  11.631   6.471 -0.1806  0.0271  0.2392
 1062YOPC   GL214218  11.292  11.742   6.618 -0.0473  0.0091  0.1051
 1062YOPC   C1A14219  10.804  11.437   6.852 -0.0302  0.1178 -0.0559
 1062YOPC   D2A14220  10.854  11.283   7.309 -0.1414 -0.0011  0.0366
 1062YOPC   C3A14221  10.587  11.215   7.687 -0.2239  0.1538  0.0755
 1062YOPC   C4A14222  10.394  11.040   8.122  0.1177 -0.1865 -0.1364
 1062YOPC   C1B14223  11.307  11.374   6.856 -0.0060 -0.2811  0.0504
 1062YOPC   C2B14224  11.342  11.249   7.288 -0.3536 -0.1506 -0.1381
 1062YOPC   D3B14225  11.134  11.336   7.694  0.1814  0.1518  0.0687
 1062YOPC   C4B14226  10.879  11.445   8.006 -0.3892 -0.1190  0.1330
 1063YOPC   NC314227   8.717   2.514   5.840  0.3479  0.1974 -0.1818
 1063YOPC   PO414228   8.424   2.442   6.273  0.0975  0.0010 -0.0498
 1063YOPC   GL114229   8.524   2.400   6.733 -0.1650  0.1412  0.0719
 1063YOPC   GL214230   8.825   2.450   6.783  0.0587  0.1803 -0.1511
 1063YOPC   C1A14231   8.584   2.322   7.210  0.0796 -0.1689  0.1739
 1063YOPC   D2A14232   8.630   2.360   7.712  0.0136  0.0995  0.4046
 1063YOPC   C3A14233   8.445   2.484   8.103 -0.2412 -0.0164 -0.1267
 1063YOPC   C4A14234   8.608   2.737   8.412 -0.2272  0.0541  0.2598
 1063YOPC   C1B14235   9.073   2.435   7.188  0.1235  0.1702  0.0814
 1063YOPC   C2B14236   9.195   2.449   7.706 -0.0438 -0.2169  0.0271
 1063YOPC   D3B14237   8.954   2.624   7.996 -0.0867 -0.0350 -0.3248
 1063YOPC   C4B14238   9.206   2.898   8.289  0.0039  0.0862 -0.0578
 1064YOPC   NC314239   6.471  13.291   6.001 -0.0658  0.0590 -0.1083
 1064YOPC   PO414240   6.457  13.155   6.341 -0.0105  0.1687 -0.1299
 1064YOPC   GL114241   6.302  13.087   6.781  0.2545  0.0710  0.1723
 1064YOPC   GL214242   6.209  13.369   6.824  0.4097 -0.1139 -0.0448
 1064YOPC   C1A14243   6.338  13.133   7.222  0.2477  0.0825  0.0978
 1064YOPC   D2A14244   6.663  13.113   7.503 -0.1448 -0.1079  0.2050
 1064YOPC   C3A14245   6.702  13.363   7.913  0.2120 -0.1907 -0.0296
 1064YOPC   C4A14246   6.649  13.688   8.173  0.1154  0.0593 -0.4380
 1064YOPC   C1B14247   6.104  13.628   7.155  0.2058 -0.0527  0.0075
 1064YOPC   C2B14248   5.761  13.720   7.267  0.1066  0.0386 -0.1742
 1064YOPC   D3B14249   5.826  13.618   7.669  0.1632  0.0485  0.1419
 1064YOPC   C4B14250   5.498  13.540   7.976  0.1396  0.1223 -0.0454
 1065YOPC   NC314251   7.290   3.853   6.347 -0.2130 -0.2843  0.0435
 1065YOPC   PO414252   7.249   4.215   6.206 -0.1940 -0.0201  0.0884
 1065YOPC   GL114253   7.152   4.241   6.622 -0.1461  0.1225  0.4313
 1065YOPC   GL214254   7.038   4.538   6.544 -0.0443 -0.0846 -0.3058
 1065YOPC   C1A14255   7.184   4.094   7.089  0.1632 -0.1677 -0.1338
 1065YOPC   D2A14256   7.261   4.116   7.543  0.0407 -0.2548 -0.0442
 1065YOPC   C3A14257   6.892   4.168   7.770 -0.2091  0.0794  0.1702
 1065YOPC   C4A14258   6.664   4.508   7.807 -0.2244 -0.1146 -0.1317
 1065YOPC   C1B14259   6.803   4.813   6.801 -0.2097 -0.1343  0.3291
 1065YOPC   C2B14260   6.568   4.775   7.088  0.1835 -0.0655 -0.0962
 1065YOPC   D3B14261   6.509   4.909   7.463 -0.1706 -0.2553  0.3289
 1065YOPC   C4B14262   6.466   5.002   7.955 -0.2659  0.2189 -0.1253
 1066YOPC   NC314263   7.465  17.286   6.285 -0.3018 -0.2139 -0.3726
 1066YOPC   PO414264   7.211  16.861   6.370 -0.0083 -0.0329 -0.4595
 1066YOPC   GL114265   6.920  17.000   6.755  0.1971  0.0407  0.0719
 1066YOPC   GL214266   7.089  17.096   6.989 -0.0563  0.5090 -0.1650
 1066YOPC   C1A14267   6.587  17.150   7.018 -0.2165 -0.2342  0.1850
 1066YOPC   D2A14268   6.638  17.072   7.444  0.3165  0.0952  0.1385
 1066YOPC   C3A14269   6.969  17.282   7.619  0.2302  0.0997 -0.1643
 1066YOPC   C4A14270   7.295  17.006   7.656  0.3261  0.1110 -0.0616
 1066YOPC   C1B14271   7.099  16.716   7.218  0.1004 -0.0686 -0.2196
 1066YOPC   C2B14272   7.170  16.483   7.599 -0.1974 -0.0780  0.0799
 1066YOPC   D3B14273   7.562  16.289   7.816 -0.2255  0.2219 -0.3092
 1066YOPC   C4B14274   7.677  15.943   7.626 -0.2274  0.2713 -0.1123
 1067YOPC   NC314275  13.324  16.575   6.560  0.0669  0.0196 -0.0978
 1067YOPC   PO414276  13.577  16.428   6.392  0.1320  0.1335 -0.1360
 1067YOPC   GL114277  13.608  16.154   6.734 -0.3303 -0.0314  0.0205
 1067YOPC   GL214278  13.956  16.211   6.831 -0.1361 -0.0395 -0.0996
 1067YOPC   C1A14279  13.463  15.849   6.956  0.0499  0.1162  0.1251
 1067YOPC   D2A14280  13.510  15.819   7.370 -0.1278  0.0055 -0.2755
 1067YOPC   C3A14281  13.616  15.468   7.724 -0.2169 -0.0658 -0.0732
 1067YOPC   C4A14282  13.434  15.033   7.762  0.0280 -0.0908 -0.0349
 1067YOPC   C1B14283  13.896  16.075   7.245 -0.1597  0.1445 -0.0082
 1067YOPC   C2B14284  13.945  15.952   7.691  0.0385 -0.1014 -0.0731
 1067YOPC   D3B14285  14.027  15.627   8.008  0.0242  0.0744  0.2739
 1067YOPC   C4B14286  14.183  15.623   8.403  0.0908 -0.1311 -0.0402
 1068YOPC   NC314287   9.631   3.379   6.578 -0.2855  0.2302  0.0783
 1068YOPC   PO414288   9.645   2.927   6.385  0.0487  0.3987  0.0072
 1068YOPC   GL114289   9.571   2.930   6.790 -0.3984 -0.0333  0.1247
 1068YOPC   GL214290   9.273   2.857   6.974 -0.0327 -0.0592  0.1504
 1068YOPC   C1A14291   9.711   3.215   7.200  0.3479 -0.2640  0.2548
 1068YOPC   D2A14292   9.666   3.227   7.692  0.0774  0.1833 -0.0474
 1068YOPC   C3A14293   9.255   2.971   7.753 -0.3791  0.0057  0.0196
 1068YOPC   C4A14294   8.954   2.855   7.478 -0.0115 -0.3292 -0.4487
 1068YOPC   C1B14295   9.508   2.804   7.381  0.1737 -0.1041 -0.2894
 1068YOPC   C2B14296   9.797   2.641   7.664  0.2065  0.1087 -0.3034
 1068YOPC   D3B14297   9.643   2.614   7.972  0.2439  0.3763  0.0521
 1068YOPC   C4B14298   9.329   2.429   8.227 -0.2671  0.0446 -0.0221
 1069YOPC   NC314299   0.339   7.651   5.182 -0.0918 -0.1529 -0.2995
 1069YOPC   PO414300   0.279   8.014   5.315  0.1125 -0.2161  0.1215
 1069YOPC   GL114301   0.234   8.182   5.695 -0.1023  0.1985  0.1324
 1069YOPC   GL214302   0.522   8.112   5.853  0.0272  0.1519  0.0246
 1069YOPC   C1A14303   0.002   7.978   5.967 -0.3074  0.2055 -0.0101
 1069YOPC   D2A14304  -0.264   7.942   6.249 -0.1129  0.1633  0.1480
 1069YOPC   C3A14305  -0.035   8.064   6.544 -0.0916  0.0086  0.0071
 1069YOPC   C4A14306   0.131   8.078   6.953 -0.2555 -0.1346 -0.0746
 1069YOPC   C1B14307   0.779   8.103   6.171 -0.0980 -0.0527  0.1415
 1069YOPC   C2B14308   0.892   8.320   6.514  0.1354 -0.0225  0.2906
 1069YOPC   D3B14309   0.750   8.194   6.901 -0.0392 -0.0844 -0.2836
 1069YOPC   C4B14310   0.817   8.298   7.362  0.0609  0.2964 -0.2128
 1070YOPC   NC314311   5.968  12.954   6.372 -0.1057  0.2917  0.0789
 1070YOPC   PO414312   5.915  12.529   6.406  0.0278 -0.2480  0.2071
 1070YOPC   GL114313   5.664  12.652   6.679 -0.2064  0.1058 -0.1373
 1070YOPC   GL214314   5.470  12.883   6.517  0.0017 -0.1328  0.0580
 1070YOPC   C1A14315   5.537  12.588   7.082  0.2586 -0.0916 -0.1812
 1070YOPC   D2A14316   5.576  12.589   7.549 -0.0338  0.0920 -0.2211
 1070YOPC   C3A14317   5.297  12.381   7.878 -0.1871 -0.3786  0.0510
 1070YOPC   C4A14318   5.188  12.188   8.187 -0.1721 -0.0052  0.1980
 1070YOPC   C1B14319   5.285  12.995   6.829  0.1904  0.2222 -0.2776
 1070YOPC   C2B14320   5.159  13.375   7.018  0.2207  0.2306 -0.2102
 1070YOPC   D3B14321   5.195  13.370   7.446  0.1899 -0.3425 -0.0105
 1070YOPC   C4B14322   5.048  13.477   7.804 -0.1993 -0.3012 -0.1417
 1071YOPC   NC314323  13.710   4.039   6.051 -0.2133  0.0513  0.1089
 1071YOPC   PO414324  13.993   4.413   6.001 -0.1468 -0.3828  0.0333
 1071YOPC   GL114325  14.160   4.390   6.385  0.0355 -0.1365  0.0945
 1071YOPC   GL214326  14.034   4.620   6.635 -0.2171  0.1139 -0.0632
 1071YOPC   C1A14327  14.367   4.159   6.705  0.1405  0.0397 -0.2807
 1071YOPC   D2A14328  14.502   4.011   7.054  0.0363 -0.0791 -0.0484
 1071YOPC   C3A14329  14.915   3.857   7.151 -0.1210 -0.2188  0.3307
 1071YOPC   C4A14330  15.267   3.824   7.416 -0.1147  0.2323 -0.2504
 1071YOPC   C1B14331  14.263   4.563   7.064  0.1125 -0.0836 -0.3232
 1071YOPC   C2B14332  14.315   4.482   7.482  0.1298  0.0186 -0.0576
 1071YOPC   D3B14333  14.476   4.150   7.569  0.1936 -0.0391  0.1824
 1071YOPC   C4B14334  14.816   3.794   7.606  0.1029 -0.1777 -0.0690
 1072YOPC   NC314335   6.916  15.434   5.606  0.0472 -0.1081  0.2853
 1072YOPC   PO414336   6.805  15.266   6.006 -0.1600 -0.1898 -0.1665
 1072YOPC   GL114337   6.671  15.155   6.437 -0.0360 -0.0591  0.0307
 1072YOPC   GL214338   6.877  15.368   6.583  0.2049  0.3011 -0.0330
 1072YOPC   C1A14339   6.607  14.881   6.693 -0.0896 -0.1053 -0.0751
 1072YOPC   D2A14340   6.854  14.647   7.092  0.1342 -0.0010  0.1328
 1072YOPC   C3A14341   7.131  14.291   7.076 -0.0998  0.1224 -0.3311
 1072YOPC   C4A14342   7.414  13.994   7.103 -0.4318  0.1778 -0.1630
 1072YOPC   C1B14343   7.092  15.683   6.952  0.1861 -0.0704 -0.0637
 1072YOPC   C2B14344   7.288  15.805   7.410  0.0660  0.0705 -0.0009
 1072YOPC   D3B14345   7.156  15.941   7.771 -0.1512  0.1664  0.3308
 1072YOPC   C4B14346   6.894  16.211   7.941 -0.2889  0.1446  0.0504
 1073YOPC   NC314347   3.958   7.774   5.783 -0.1542 -0.3034 -0.1664
 1073YOPC   PO414348   3.510   7.611   5.803 -0.0268  0.0617 -0.1103
 1073YOPC   GL114349   3.584   7.827   6.172 -0.2694  0.1346  0.4136
 1073YOPC   GL214350   3.283   7.928   6.282 -0.1440  0.1283  0.2095
 1073YOPC   C1A14351   3.661   8.143   6.530  0.0284 -0.1327 -0.0728
 1073YOPC   D2A14352   3.866   8.553   6.738 -0.0832  0.3100 -0.0398
 1073YOPC   C3A14353   3.935   8.643   7.186  0.1982  0.0573  0.2257
 1073YOPC   C4A14354   4.108   8.326   7.557  0.2899  0.0095 -0.1236
 1073YOPC   C1B14355   3.216   8.007   6.651 -0.0877  0.0917  0.1214
 1073YOPC   C2B14356   2.993   8.087   7.011  0.0769  0.0704  0.2223
 1073YOPC   D3B14357   3.126   7.983   7.439 -0.5203 -0.0498 -0.0961
 1073YOPC   C4B14358   3.037   8.023   7.873  0.0099  0.0239 -0.0769
 1074YOPC   NC314359   1.549  13.021   5.692 -0.1310 -0.0075  0.0262
 1074YOPC   PO414360   1.164  12.893   5.708  0.1869  0.1111  0.1241
 1074YOPC   GL114361   1.047  13.142   5.977  0.0127 -0.0310 -0.0500
 1074YOPC   GL214362   0.846  13.103   6.123 -0.2141 -0.2328  0.0840
 1074YOPC   C1A14363   1.343  13.124   6.344  0.1108  0.0375 -0.0640
 1074YOPC   D2A14364   1.665  12.922   6.565  0.1245  0.3839 -0.0341
 1074YOPC   C3A14365   1.562  12.752   7.006  0.2254  0.2155  0.2745
 1074YOPC   C4A14366   1.465  12.474   7.352  0.0401  0.1563 -0.1287
 1074YOPC   C1B14367   1.006  13.462   6.470  0.0558  0.0173  0.0580
 1074YOPC   C2B14368   0.989  13.621   6.892  0.0967  0.0956 -0.0027
 1074YOPC   D3B14369   1.072  13.402   7.245 -0.1550  0.0995  0.0527
 1074YOPC   C4B14370   0.912  13.138   7.634 -0.1362 -0.3377 -0.1809
 1075YOPC   NC314371   4.738   7.270   6.382 -0.0089  0.4007  0.1079
 1075YOPC   PO414372   4.341   7.349   6.168  0.3853 -0.2177 -0.0571
 1075YOPC   GL114373   3.995   7.593   6.320 -0.2602 -0.2284 -0.1788
 1075YOPC   GL214374   4.141   7.821   6.407 -0.1698 -0.3234 -0.1629
 1075YOPC   C1A14375   3.707   7.722   6.754 -0.0079 -0.2887  0.4778
 1075YOPC   D2A14376   3.430   7.662   7.117 -0.1247  0.1515 -0.0703
 1075YOPC   C3A14377   3.473   7.680   7.548  0.0189  0.1029 -0.0424
 1075YOPC   C4A14378   3.847   7.551   7.938 -0.1524 -0.0103  0.1281
 1075YOPC   C1B14379   4.105   8.043   6.796 -0.4867  0.1561 -0.1824
 1075YOPC   C2B14380   4.298   8.159   7.131 -0.0843 -0.0905 -0.1007
 1075YOPC   D3B14381   4.415   7.912   7.478 -0.3162 -0.1265 -0.1004
 1075YOPC   C4B14382   4.358   7.644   7.674  0.0164  0.0603 -0.0112
 1076YOPC   NC314383  17.622   7.487   5.460 -0.0766  0.1265  0.2288
 1076YOPC   PO414384  17.504   7.266   5.728 -0.1706  0.2847  0.1960
 1076YOPC   GL114385  17.488   7.341   6.177  0.0540 -0.0691 -0.1090
 1076YOPC   GL214386  17.606   7.135   6.343 -0.0967  0.2341 -0.1040
 1076YOPC   C1A14387  17.483   7.591   6.548 -0.0695  0.2803  0.0720
 1076YOPC   D2A14388  17.588   7.689   6.923 -0.2196 -0.1889 -0.2824
 1076YOPC   C3A14389  17.610   7.489   7.370  0.0140  0.1175 -0.1253
 1076YOPC   C4A14390  17.535   7.440   7.786  0.2969  0.4333 -0.1783
 1076YOPC   C1B14391  17.740   6.808   6.598 -0.0368 -0.2504  0.2162
 1076YOPC   C2B14392  17.817   6.817   7.123  0.0773 -0.0630  0.0056
 1076YOPC   D3B14393  17.994   7.139   7.376  0.0743 -0.1290  0.0075
 1076YOPC   C4B14394  18.452   7.256   7.573 -0.3609 -0.0091 -0.0602
 1077YOPC   NC314395  11.590   6.619   6.431 -0.2155 -0.2111  0.2281
 1077YOPC   PO414396  11.628   6.264   6.652  0.1011  0.2358 -0.0073
 1077YOPC   GL114397  11.658   6.259   7.127 -0.2805  0.2474  0.0413
 1077YOPC   GL214398  11.877   6.451   7.025 -0.1814 -0.4925  0.0838
 1077YOPC   C1A14399  11.652   6.255   7.574 -0.0690 -0.0281  0.0695
 1077YOPC   D2A14400  11.694   6.379   8.031  0.0460 -0.3303  0.1680
 1077YOPC   C3A14401  11.628   6.144   8.379 -0.2917 -0.1549  0.1143
 1077YOPC   C4A14402  11.729   5.746   8.508  0.0604  0.0810  0.2264
 1077YOPC   C1B14403  11.927   6.659   7.386  0.1135 -0.0871 -0.0730
 1077YOPC   C2B14404  12.053   6.576   7.744 -0.5510 -0.1942  0.0199
 1077YOPC   D3B14405  12.019   6.780   8.084  0.1486  0.3499 -0.0252
 1077YOPC   C4B14406  12.213   6.960   8.475 -0.0644  0.1697  0.0244
 1078YOPC   NC314407  11.626   5.394   6.617 -0.0691  0.0368 -0.2926
 1078YOPC   PO414408  11.962   5.146   6.563  0.0206  0.0020 -0.1517
 1078YOPC   GL114409  12.083   5.208   6.984  0.2045  0.2802 -0.1291
 1078YOPC   GL214410  12.013   5.487   7.224 -0.0934  0.1259 -0.1981
 1078YOPC   C1A14411  12.118   5.010   7.462  0.1893 -0.0804  0.2224
 1078YOPC   D2A14412  12.248   5.043   7.848 -0.0838  0.0765  0.1175
 1078YOPC   C3A14413  11.965   4.826   8.073  0.0487 -0.1730 -0.0679
 1078YOPC   C4A14414  11.615   4.552   8.077 -0.2601  0.1377  0.3973
 1078YOPC   C1B14415  11.996   5.541   7.676  0.0513 -0.0640  0.2103
 1078YOPC   C2B14416  11.884   5.383   7.999  0.1339 -0.0353 -0.0933
 1078YOPC   D3B14417  11.797   5.273   8.397 -0.1623 -0.0557 -0.0240
 1078YOPC   C4B14418  11.618   5.289   8.768  0.0880 -0.1626  0.0598
 1079YOPC   NC314419  13.225   6.989   5.975 -0.0343  0.1072  0.1918
 1079YOPC   PO414420  13.004   7.348   6.078 -0.3873 -0.0435  0.1385
 1079YOPC   GL114421  13.150   7.567   6.514  0.0944 -0.1458 -0.0098
 1079YOPC   GL214422  13.479   7.328   6.446 -0.0357  0.1162 -0.0918
 1079YOPC   C1A14423  13.292   7.730   6.905 -0.0981 -0.0271 -0.0887
 1079YOPC   D2A14424  13.716   7.819   7.145 -0.1541 -0.1335  0.0736
 1079YOPC   C3A14425  13.706   7.700   7.664  0.0951 -0.0258  0.0909
 1079YOPC   C4A14426  13.734   7.651   8.129 -0.2330  0.1319 -0.0508
 1079YOPC   C1B14427  13.642   7.350   6.930 -0.1982  0.3531 -0.0906
 1079YOPC   C2B14428  13.681   7.290   7.385 -0.4024  0.1415  0.0551
 1079YOPC   D3B14429  13.805   6.939   7.644 -0.2674 -0.1169  0.0671
 1079YOPC   C4B14430  13.816   6.509   7.723 -0.1162 -0.1245 -0.0278
 1080YOPC   NC314431   4.382  11.574   5.981  0.0083 -0.2424  0.1023
 1080YOPC   PO414432   4.642  11.778   5.951  0.0304 -0.0061  0.1290
 1080YOPC   GL114433   4.725  11.575   6.378  0.0494  0.4723 -0.2160
 1080YOPC   GL214434   4.562  11.327   6.466  0.0315 -0.3991 -0.0436
 1080YOPC   C1A14435   4.755  11.956   6.703 -0.0998 -0.2549 -0.2593
 1080YOPC   D2A14436   4.935  11.976   7.195  0.0974 -0.1940 -0.1198
 1080YOPC   C3A14437   4.916  12.328   7.420 -0.1200 -0.0776 -0.2700
 1080YOPC   C4A14438   4.853  12.618   7.605 -0.0816 -0.0508  0.0437
 1080YOPC   C1B14439   4.476  11.215   6.862 -0.1827 -0.1170 -0.1989
 1080YOPC   C2B14440   4.366  11.234   7.295  0.3867  0.1635  0.0395
 1080YOPC   D3B14441   3.928  11.336   7.524 -0.4861 -0.1685  0.1503
 1080YOPC   C4B14442   3.576  11.332   7.839  0.0815  0.1980  0.0587
 1081YOPC   NC314443  14.154   9.300   5.864 -0.0928  0.0105 -0.0163
 1081YOPC   PO414444  14.574   9.164   6.119  0.3833 -0.1648 -0.0199
 1081YOPC   GL114445  14.597   9.338   6.484  0.1137  0.0772  0.5404
 1081YOPC   GL214446  14.794   9.676   6.441 -0.1931 -0.0434 -0.2225
 1081YOPC   C1A14447  14.685   9.316   6.874  0.1580  0.2540  0.1167
 1081YOPC   D2A14448  14.822   9.353   7.240 -0.1208 -0.0430 -0.1766
 1081YOPC   C3A14449  15.135   9.345   7.593  0.1114 -0.0776 -0.0086
 1081YOPC   C4A14450  15.405   9.701   7.679  0.1235 -0.1527 -0.1449
 1081YOPC   C1B14451  14.919   9.782   6.911 -0.2559  0.1181  0.1884
 1081YOPC   C2B14452  15.305   9.973   7.132 -0.2021 -0.3799  0.0812
 1081YOPC   D3B14453  15.405  10.388   7.410  0.1291 -0.2087  0.0042
 1081YOPC   C4B14454  15.472  10.652   7.719 -0.0706  0.1355  0.3264
 1082YOPC   NC314455   0.288  16.675   5.383 -0.0291 -0.0591 -0.0414
 1082YOPC   PO414456   0.316  16.531   5.791  0.0550 -0.1192 -0.4949
 1082YOPC   GL114457   0.285  16.625   6.154  0.0910 -0.1564 -0.0535
 1082YOPC   GL214458  -0.036  16.822   6.173 -0.2377  0.3117 -0.0684
 1082YOPC   C1A14459   0.291  16.862   6.562  0.0323 -0.1776  0.1321
 1082YOPC   D2A14460   0.321  17.053   6.971  0.2586  0.0916 -0.0338
 1082YOPC   C3A14461   0.492  17.027   7.279 -0.2403 -0.0548 -0.3146
 1082YOPC   C4A14462   0.653  16.933   7.634  0.2228  0.2442 -0.2218
 1082YOPC   C1B14463  -0.208  16.518   6.272  0.1542  0.1859  0.1808
 1082YOPC   C2B14464  -0.463  16.472   6.672  0.0338 -0.0151  0.1483
 1082YOPC   D3B14465  -0.344  16.363   7.116 -0.2623  0.1269  0.1487
 1082YOPC   C4B14466  -0.200  16.376   7.498 -0.1351  0.2196 -0.3734
 1083YOPC   NC314467  13.235   0.763   5.617 -0.0269  0.2495 -0.0378
 1083YOPC   PO414468  13.258   0.453   5.930  0.2235  0.2481  0.3320
 1083YOPC   GL114469  13.341   0.506   6.336  0.1525 -0.1153  0.1806
 1083YOPC   GL214470  13.669   0.322   6.283 -0.0584  0.0334 -0.0573
 1083YOPC   C1A14471  13.283   0.400   6.698  0.1127  0.2906  0.0353
 1083YOPC   D2A14472  13.452   0.299   7.096 -0.3252 -0.1251  0.1127
 1083YOPC   C3A14473  13.892   0.299   7.148 -0.1422  0.1465 -0.1733
 1083YOPC   C4A14474  14.132   0.064   7.261  0.1237  0.0657 -0.1046
 1083YOPC   C1B14475  13.671   0.127   6.614 -0.0482  0.2027  0.2809
 1083YOPC   C2B14476  13.497  -0.371   6.583 -0.2495 -0.0595 -0.0672
 1083YOPC   D3B14477  13.596  -0.593   6.886 -0.1051  0.0311 -0.0699
 1083YOPC   C4B14478  13.695  -0.694   7.277  0.0928 -0.1066 -0.0760
 1084YOPC   NC314479   9.373   8.676   5.787  0.0045 -0.2645 -0.1165
 1084YOPC   PO414480   9.690   8.895   6.079 -0.1036  0.1326  0.0713
 1084YOPC   GL114481   9.769   9.030   6.492  0.3301 -0.1166  0.0179
 1084YOPC   GL214482   9.638   8.792   6.774 -0.2751 -0.1901  0.0306
 1084YOPC   C1A14483   9.510   9.377   6.734 -0.2198 -0.0862  0.1010
 1084YOPC   D2A14484   9.258   9.746   6.748 -0.1945  0.1792 -0.2613
 1084YOPC   C3A14485   9.485   9.696   7.153 -0.3091  0.1675 -0.1323
 1084YOPC   C4A14486   9.409   9.557   7.612 -0.0264  0.1063  0.2267
 1084YOPC   C1B14487   9.887   9.010   7.110 -0.3195 -0.0571 -0.2359
 1084YOPC   C2B14488  10.143   8.899   7.431  0.1054  0.0994  0.0289
 1084YOPC   D3B14489   9.963   8.611   7.764 -0.4348  0.0136  0.1476
 1084YOPC   C4B14490   9.780   8.277   7.700  0.2437 -0.1440 -0.2040
 1085YOPC   NC314491   9.188  16.886   6.729 -0.1027 -0.0150 -0.0990
 1085YOPC   PO414492   9.164  16.441   6.449 -0.0535 -0.2332 -0.1643
 1085YOPC   GL114493   9.261  16.446   6.939  0.2889  0.0749 -0.1993
 1085YOPC   GL214494   9.535  16.510   6.862  0.1384  0.2590  0.0575
 1085YOPC   C1A14495   9.358  16.248   7.333  0.2973  0.0431 -0.5595
 1085YOPC   D2A14496   9.676  16.203   7.645 -0.0991 -0.1146 -0.1032
 1085YOPC   C3A14497   9.689  15.996   8.022 -0.3308  0.3096 -0.0655
 1085YOPC   C4A14498   9.703  15.791   8.350  0.3020 -0.0598 -0.2668
 1085YOPC   C1B14499   9.723  16.596   7.329  0.2308 -0.0975  0.3692
 1085YOPC   C2B14500  10.045  16.651   7.658  0.0019 -0.1176 -0.0608
 1085YOPC   D3B14501  10.145  16.453   7.891  0.0959  0.2011  0.2527
 1085YOPC   C4B14502  10.196  16.044   8.103  0.1258 -0.0859  0.1013
 1086YOPC   NC314503   4.694   5.570   6.002 -0.1312 -0.2311  0.0837
 1086YOPC   PO414504   4.414   5.816   6.241  0.0518 -0.0712  0.2478
 1086YOPC   GL114505   4.644   5.821   6.567 -0.1508  0.0616  0.1405
 1086YOPC   GL214506   4.845   5.976   6.765 -0.0732  0.0875  0.2205
 1086YOPC   C1A14507   4.465   5.943   7.048  0.1425  0.4625 -0.0984
 1086YOPC   D2A14508   4.493   6.075   7.387 -0.1781 -0.0806 -0.0908
 1086YOPC   C3A14509   4.643   6.434   7.565 -0.0037 -0.0459 -0.1087
 1086YOPC   C4A14510   4.447   6.795   7.818  0.1962  0.2023 -0.1615
 1086YOPC   C1B14511   4.910   6.227   7.174 -0.4303  0.1536 -0.0438
 1086YOPC   C2B14512   5.089   6.447   7.456 -0.0865  0.0678  0.1592
 1086YOPC   D3B14513   5.072   6.264   7.756 -0.1051 -0.0307 -0.0496
 1086YOPC   C4B14514   4.962   6.305   8.226  0.1904 -0.2534 -0.0310
 1087YOPC   NC314515   6.701   9.924   5.878 -0.1757 -0.2171 -0.0325
 1087YOPC   PO414516   6.504  10.118   6.205  0.0219  0.2461  0.0961
 1087YOPC   GL114517   6.419  10.093   6.608 -0.0094  0.0529  0.1832
 1087YOPC   GL214518   6.641   9.827   6.763  0.0325  0.1005  0.2470
 1087YOPC   C1A14519   6.240  10.299   6.916 -0.1696 -0.1063  0.0751
 1087YOPC   D2A14520   6.162  10.670   7.237 -0.0200 -0.0446  0.0947
 1087YOPC   C3A14521   6.071  10.557   7.653  0.0911 -0.0272 -0.0558
 1087YOPC   C4A14522   5.733  10.386   7.944 -0.0309  0.0978  0.1203
 1087YOPC   C1B14523   6.521   9.953   7.180 -0.0227 -0.0185 -0.1231
 1087YOPC   C2B14524   6.461  10.312   7.433 -0.0091 -0.1530  0.0282
 1087YOPC   D3B14525   6.655  10.388   7.800 -0.1030 -0.1081  0.1875
 1087YOPC   C4B14526   6.789  10.359   8.224  0.0077  0.3755 -0.1345
 1088YOPC   NC314527   1.268  10.748   5.274 -0.1611  0.0592  0.1898
 1088YOPC   PO414528   1.045  11.158   5.260  0.0229 -0.0612  0.4434
 1088YOPC   GL114529   0.913  10.982   5.646 -0.0426  0.0277 -0.1037
 1088YOPC   GL214530   0.677  11.032   5.877 -0.1348 -0.0883 -0.0598
 1088YOPC   C1A14531   1.022  10.717   6.024 -0.1777  0.0930  0.1014
 1088YOPC   D2A14532   1.262  10.866   6.384 -0.2180  0.0357 -0.0167
 1088YOPC   C3A14533   1.197  10.950   6.721 -0.2075  0.0023 -0.2009
 1088YOPC   C4A14534   0.956  11.065   7.073  0.0931 -0.3714  0.3836
 1088YOPC   C1B14535   0.604  10.848   6.277 -0.0705  0.0428 -0.1523
 1088YOPC   C2B14536   0.781  10.698   6.615  0.0143 -0.1561 -0.1378
 1088YOPC   D3B14537   0.676  10.283   6.817 -0.2443  0.2658  0.1555
 1088YOPC   C4B14538   0.563  10.246   7.250 -0.2610  0.1154 -0.1151
 1089YOPC   NC314539   1.457  15.841   5.530 -0.0894 -0.2167  0.0148
 1089YOPC   PO414540   1.260  15.441   5.495  0.0314 -0.0595 -0.0538
 1089YOPC   GL114541   1.200  15.505   5.952 -0.0384  0.0275 -0.2532
 1089YOPC   GL214542   1.363  15.689   6.100  0.3048 -0.1586  0.3798
 1089YOPC   C1A14543   0.842  15.739   6.102 -0.3517  0.2071 -0.0798
 1089YOPC   D2A14544   0.736  15.672   6.527 -0.0794 -0.0151  0.2879
 1089YOPC   C3A14545   0.584  15.233   6.612 -0.0770 -0.1188  0.0127
 1089YOPC   C4A14546   0.349  14.951   6.421  0.2079 -0.0269  0.0413
 1089YOPC   C1B14547   1.136  15.974   6.453 -0.2149  0.0419  0.1158
 1089YOPC   C2B14548   0.677  16.134   6.534  0.0813 -0.5325 -0.0149
 1089YOPC   D3B14549   0.625  16.055   6.936  0.3471 -0.3300 -0.1093
 1089YOPC   C4B14550   0.702  15.914   7.420 -0.0065 -0.0331  0.0279
 1090YOPC   NC314551   7.047  12.262   5.723 -0.0768 -0.3169  0.3652
 1090YOPC   PO414552   6.796  12.205   6.109  0.1736  0.0740 -0.1522
 1090YOPC   GL114553   6.934  12.405   6.407  0.0236 -0.1583 -0.1676
 1090YOPC   GL214554   7.143  12.400   6.621  0.0136  0.0352  0.1406
 1090YOPC   C1A14555   6.673  12.406   6.820 -0.1043 -0.1421  0.2457
 1090YOPC   D2A14556   6.222  12.600   6.831 -0.0906 -0.1759 -0.1133
 1090YOPC   C3A14557   6.021  12.595   7.234  0.1102 -0.1907  0.2456
 1090YOPC   C4A14558   6.144  12.853   7.602  0.0886 -0.2449 -0.2981
 1090YOPC   C1B14559   7.073  12.332   7.116  0.3139 -0.3788  0.2949
 1090YOPC   C2B14560   7.020  12.580   7.513  0.2303 -0.1365  0.1110
 1090YOPC   D3B14561   6.643  12.766   7.808 -0.0998  0.0644  0.1840
 1090YOPC   C4B14562   6.552  12.667   8.207  0.0349 -0.0077  0.2156
 1091YOPC   NC314563  11.612  13.925   5.959 -0.0357  0.3355 -0.0449
 1091YOPC   PO414564  11.607  13.474   6.271 -0.0403  0.1618  0.0733
 1091YOPC   GL114565  11.567  13.381   6.739 -0.2117 -0.3871  0.4001
 1091YOPC   GL214566  11.775  13.619   6.966  0.2159 -0.2949  0.2716
 1091YOPC   C1A14567  11.403  13.329   7.130 -0.0958 -0.4764 -0.0379
 1091YOPC   D2A14568  11.171  13.181   7.503  0.0248 -0.1073 -0.3229
 1091YOPC   C3A14569  11.261  13.439   7.788 -0.0778 -0.1274  0.1349
 1091YOPC   C4A14570  11.071  13.350   8.249 -0.0645 -0.1958  0.0167
 1091YOPC   C1B14571  11.874  13.634   7.383 -0.0615 -0.0470 -0.1114
 1091YOPC   C2B14572  11.768  13.537   7.793  0.1129 -0.1378  0.0322
 1091YOPC   D3B14573  11.581  13.508   8.175 -0.0825  0.1730  0.0701
 1091YOPC   C4B14574  11.467  13.601   8.519  0.0745  0.2231  0.3650
 1092YOPC   NC314575  11.068  12.720   5.731 -0.0291 -0.1104 -0.1853
 1092YOPC   PO414576  11.149  12.696   6.211 -0.0026  0.0246 -0.0882
 1092YOPC   GL114577  11.166  12.841   6.643  0.1391 -0.2000 -0.0728
 1092YOPC   GL214578  10.931  12.699   6.748 -0.0312  0.1078 -0.2033
 1092YOPC   C1A14579  11.524  12.833   6.969 -0.0997 -0.0902 -0.1263
 1092YOPC   D2A14580  11.521  12.879   7.379 -0.0734  0.1943 -0.1059
 1092YOPC   C3A14581  11.626  12.914   7.871 -0.0278 -0.1742 -0.0729
 1092YOPC   C4A14582  11.671  13.033   8.317  0.1580 -0.2426 -0.4556
 1092YOPC   C1B14583  11.075  12.831   7.163  0.0421 -0.0594  0.3128
 1092YOPC   C2B14584  11.028  12.698   7.530 -0.2435  0.0425  0.1412
 1092YOPC   D3B14585  11.146  12.897   7.902  0.1508 -0.1251 -0.0948
 1092YOPC   C4B14586  11.224  12.879   8.293  0.1138  0.2563 -0.0280
 1093YOPC   NC314587  14.257   2.302   5.913  0.0775  0.2102  0.0175
 1093YOPC   PO414588  14.470   2.022   6.157  0.1433 -0.0670  0.0018
 1093YOPC   GL114589  14.403   1.864   6.510 -0.1494  0.0122 -0.3132
 1093YOPC   GL214590  14.436   2.078   6.745 -0.2567  0.1149  0.3854
 1093YOPC   C1A14591  14.612   1.609   6.833  0.1930 -0.1261  0.2810
 1093YOPC   D2A14592  14.775   1.438   7.269 -0.2068 -0.0111  0.2079
 1093YOPC   C3A14593  14.829   1.632   7.646 -0.2939  0.0897 -0.2722
 1093YOPC   C4A14594  15.091   1.727   7.816  0.0638  0.1950 -0.1451
 1093YOPC   C1B14595  14.356   2.274   7.195  0.0616 -0.0672 -0.0412
 1093YOPC   C2B14596  14.404   2.475   7.509  0.3221 -0.0872  0.0605
 1093YOPC   D3B14597  14.268   2.427   7.963  0.0821 -0.1770 -0.0824
 1093YOPC   C4B14598  14.357   2.191   8.266 -0.0469 -0.2435 -0.0466
 1094YOPC   NC314599  12.134  17.148   6.193  0.3930  0.3165  0.0594
 1094YOPC   PO414600  12.593  17.113   6.218  0.0753 -0.1778 -0.0358
 1094YOPC   GL114601  12.583  17.302   6.650  0.2976  0.0848  0.0176
 1094YOPC   GL214602  12.458  17.697   6.839 -0.1370  0.0403 -0.3990
 1094YOPC   C1A14603  12.806  17.399   7.067  0.0290  0.1949  0.0502
 1094YOPC   D2A14604  13.152  17.168   7.357 -0.0876 -0.1827  0.0562
 1094YOPC   C3A14605  12.973  16.756   7.629  0.0750  0.0967  0.1637
 1094YOPC   C4A14606  12.726  16.676   7.938  0.1677  0.2060  0.2169
 1094YOPC   C1B14607  12.527  17.792   7.282  0.1990  0.0955  0.2728
 1094YOPC   C2B14608  12.701  17.755   7.664  0.0410 -0.0655  0.2903
 1094YOPC   D3B14609  12.939  17.580   7.996  0.1817  0.1005 -0.1649
 1094YOPC   C4B14610  13.303  17.470   8.261  0.1131  0.0740  0.0933
 1095YOPC   NC314611  12.060   2.878   6.437 -0.0835  0.1232  0.2106
 1095YOPC   PO414612  11.784   2.587   6.281 -0.2092 -0.1174  0.2447
 1095YOPC   GL114613  11.844   2.608   6.787 -0.0867 -0.3191  0.3439
 1095YOPC   GL214614  12.094   2.796   6.922 -0.0134 -0.0523 -0.1300
 1095YOPC   C1A14615  11.621   2.565   7.197  0.0223 -0.0726 -0.1172
 1095YOPC   D2A14616  11.310   2.542   7.678  0.2953  0.2306  0.1364
 1095YOPC   C3A14617  11.484   2.316   8.105  0.1957  0.3125 -0.1317
 1095YOPC   C4A14618  11.826   2.328   8.400  0.0465 -0.1091 -0.1695
 1095YOPC   C1B14619  12.367   2.598   7.116  0.1789  0.2214 -0.1786
 1095YOPC   C2B14620  12.415   2.387   7.647  0.2876  0.0726 -0.2616
 1095YOPC   D3B14621  12.392   2.009   7.820  0.3277 -0.2624 -0.0959
 1095YOPC   C4B14622  12.299   1.727   8.037 -0.1860 -0.1691 -0.1593
 1096YOPC   NC314623   1.453   3.942   5.687  0.3320  0.0579 -0.0747
 1096YOPC   PO414624   1.860   3.765   5.582 -0.0999  0.2176  0.1409
 1096YOPC   GL114625   1.976   3.925   5.955  0.0035 -0.0822 -0.0233
 1096YOPC   GL214626   1.851   4.207   6.088  0.1155  0.2964 -0.2596
 1096YOPC   C1A14627   1.845   3.627   6.253 -0.2587  0.0364  0.1989
 1096YOPC   D2A14628   1.875   3.242   6.295  0.1790 -0.0742  0.2710
 1096YOPC   C3A14629   1.828   3.171   6.786  0.1803  0.1027  0.1153
 1096YOPC   C4A14630   1.802   3.187   7.237  0.0499 -0.0587 -0.2008
 1096YOPC   C1B14631   1.670   4.096   6.501  0.0292  0.2542 -0.0438
 1096YOPC   C2B14632   1.714   4.069   6.928  0.2217 -0.2184 -0.2611
 1096YOPC   D3B14633   1.452   4.088   7.289 -0.2489 -0.0145  0.0640
 1096YOPC   C4B14634   1.262   4.346   7.682 -0.0803 -0.3460 -0.0146
 1097YOPC   NC314635  15.709   7.411   5.825 -0.0278  0.1754  0.3183
 1097YOPC   PO414636  16.200   7.526   5.815 -0.1254  0.2797 -0.0307
 1097YOPC   GL114637  15.966   7.583   6.251 -0.0101 -0.2009  0.2801
 1097YOPC   GL214638  15.721   7.766   6.200  0.3585  0.1397  0.1877
 1097YOPC   C1A14639  16.056   7.514   6.659 -0.0703 -0.2836 -0.1623
 1097YOPC   D2A14640  16.077   7.495   7.113  0.0157 -0.2057 -0.1458
 1097YOPC   C3A14641  16.301   7.158   7.408 -0.0018 -0.0325 -0.2215
 1097YOPC   C4A14642  16.317   6.650   7.499 -0.0830 -0.0319 -0.0330
 1097YOPC   C1B14643  15.555   7.771   6.645  0.0631 -0.0890  0.0607
 1097YOPC   C2B14644  15.740   7.907   7.062 -0.2498  0.2871  0.0396
 1097YOPC   D3B14645  15.833   7.881   7.438  0.0709 -0.1408 -0.3192
 1097YOPC   C4B14646  15.737   7.864   7.819 -0.1788 -0.0314 -0.1368
 1098YOPC   NC314647   9.183  14.195   6.454 -0.2806  0.2043 -0.2288
 1098YOPC   PO414648   9.457  13.845   6.420  0.0243 -0.1695  0.1385
 1098YOPC   GL114649   9.329  13.783   6.886 -0.0160 -0.1309 -0.3382
 1098YOPC   GL214650   9.207  14.071   6.957  0.0687  0.1877  0.0472
 1098YOPC   C1A14651   9.303  13.634   7.295 -0.0688 -0.0087  0.1353
 1098YOPC   D2A14652   9.435  13.727   7.774  0.3332  0.0459  0.0297
 1098YOPC   C3A14653   9.381  13.428   8.087  0.0512 -0.0402  0.0487
 1098YOPC   C4A14654   9.307  13.521   8.473 -0.0408  0.0363  0.3337
 1098YOPC   C1B14655   9.328  14.159   7.431  0.4470 -0.1292  0.0173
 1098YOPC   C2B14656   9.256  14.214   7.874 -0.1407  0.0470  0.4651
 1098YOPC   D3B14657   9.207  13.932   8.259 -0.4276  0.5984  0.2160
 1098YOPC   C4B14658   9.380  13.971   8.619 -0.3582  0.1468 -0.0824
 1099YOPC   NC314659   9.850   8.528   6.377  0.2114  0.3489  0.1660
 1099YOPC   PO414660   9.366   8.651   6.416 -0.0534 -0.1733  0.1731
 1099YOPC   GL114661   9.140   8.521   6.775  0.0009  0.1523  0.0190
 1099YOPC   GL214662   9.321   8.588   7.082  0.2558 -0.3568  0.1770
 1099YOPC   C1A14663   8.838   8.519   7.105 -0.1057  0.1292  0.0958
 1099YOPC   D2A14664   8.622   8.446   7.461 -0.1051 -0.2004  0.0123
 1099YOPC   C3A14665   8.843   8.245   7.827 -0.0076 -0.0830  0.0873
 1099YOPC   C4A14666   8.851   7.978   8.218  0.0645  0.0600  0.1625
 1099YOPC   C1B14667   9.151   8.463   7.475 -0.1251 -0.3161 -0.1372
 1099YOPC   C2B14668   9.378   8.581   7.899  0.1876  0.1575  0.0930
 1099YOPC   D3B14669   9.252   8.391   8.261 -0.0752 -0.0817 -0.1901
 1099YOPC   C4B14670   9.040   8.435   8.665 -0.1604  0.0751 -0.0447
 1100YOPC   NC314671  12.628  12.350   5.758  0.0585  0.3699  0.0438
 1100YOPC   PO414672  12.399  12.258   6.178 -0.3103  0.0090  0.0339
 1100YOPC   GL114673  12.600  12.046   6.523 -0.0144  0.0271  0.0276
 1100YOPC   GL214674  12.606  11.810   6.563 -0.0374 -0.3796  0.4217
 1100YOPC   C1A14675  12.390  12.093   6.941 -0.1810 -0.1364 -0.0837
 1100YOPC   D2A14676  12.495  12.308   7.286 -0.1955 -0.0710  0.0298
 1100YOPC   C3A14677  12.333  12.150   7.740  0.3527  0.1763 -0.0428
 1100YOPC   C4A14678  12.214  11.713   7.803  0.2763  0.1033 -0.1214
 1100YOPC   C1B14679  12.662  11.665   6.979  0.2598 -0.0995 -0.2449
 1100YOPC   C2B14680  12.610  11.811   7.425  0.4700  0.0871  0.0485
 1100YOPC   D3B14681  12.687  11.536   7.666  0.1083 -0.1504  0.2962
 1100YOPC   C4B14682  12.951  11.286   7.988 -0.0328 -0.2340  0.1103
 1101YOPC   NC314683   4.917  16.588   5.673  0.2158  0.2245 -0.0873
 1101YOPC   PO414684   4.613  16.339   5.987  0.0817  0.0963  0.0429
 1101YOPC   GL114685   4.435  16.124   6.289  0.1125 -0.1025 -0.2012
 1101YOPC   GL214686   4.136  15.951   6.251  0.0535  0.2301  0.3156
 1101YOPC   C1A14687   4.232  16.278   6.734 -0.2329 -0.1375 -0.1032
 1101YOPC   D2A14688   3.943  16.120   7.030  0.1127  0.0388  0.0317
 1101YOPC   C3A14689   3.899  16.298   7.407  0.0070  0.1496 -0.2049
 1101YOPC   C4A14690   3.840  16.395   7.827 -0.0408 -0.2210 -0.2311
 1101YOPC   C1B14691   4.170  15.775   6.644 -0.1048 -0.1684 -0.0063
 1101YOPC   C2B14692   4.017  15.590   7.045  0.2091 -0.1296  0.2527
 1101YOPC   D3B14693   3.752  15.486   7.401 -0.0381  0.0490  0.0504
 1101YOPC   C4B14694   3.375  15.583   7.634  0.1565  0.3125 -0.0129
 1102YOPC   NC314695  15.838  11.281   5.657  0.2836  0.0960  0.2197
 1102YOPC   PO414696  15.595  11.597   5.464 -0.2353  0.0713 -0.1141
 1102YOPC   GL114697  15.470  11.540   5.951  0.2777  0.1069 -0.2031
 1102YOPC   GL214698  15.705  11.474   6.178 -0.2172 -0.0095 -0.0544
 1102YOPC   C1A14699  15.225  11.661   6.334  0.2007  0.0388  0.3020
 1102YOPC   D2A14700  14.799  11.606   6.400 -0.1551  0.3034 -0.1196
 1102YOPC   C3A14701  14.657  11.806   6.888  0.0312 -0.1089  0.0473
 1102YOPC   C4A14702  14.537  11.733   7.231 -0.0188  0.1029 -0.2846
 1102YOPC   C1B14703  15.796  11.403   6.601 -0.1926  0.0870  0.1941
 1102YOPC   C2B14704  15.648  10.976   6.818  0.0007  0.1447 -0.2395
 1102YOPC   D3B14705  15.704  10.699   7.166  0.1847  0.0683  0.0276
 1102YOPC   C4B14706  15.964  10.852   7.676 -0.1089 -0.1187  0.1759
 1103YOPC   NC314707  12.057   3.867   6.404 -0.1076 -0.0034  0.1089
 1103YOPC   PO414708  12.272   4.311   6.388 -0.0498 -0.1072 -0.1985
 1103YOPC   GL114709  12.314   4.118   6.788 -0.0735 -0.1267  0.0748
 1103YOPC   GL214710  12.504   4.307   6.928 -0.2313  0.3189 -0.1302
 1103YOPC   C1A14711  12.269   4.010   7.203  0.1405 -0.0109  0.0146
 1103YOPC   D2A14712  11.960   3.901   7.558  0.2846 -0.1320  0.0339
 1103YOPC   C3A14713  12.023   3.744   7.992  0.0141  0.4784  0.0176
 1103YOPC   C4A14714  11.885   3.989   8.418 -0.0056 -0.4993 -0.0348
 1103YOPC   C1B14715  12.659   4.280   7.411 -0.1706  0.1938  0.0708
 1103YOPC   C2B14716  13.077   4.265   7.615 -0.0597 -0.0399  0.0617
 1103YOPC   D3B14717  13.185   4.248   7.961  0.0283  0.0919 -0.1632
 1103YOPC   C4B14718  13.320   3.977   8.250 -0.1803  0.0974  0.1154
 1104YOPC   NC314719  11.459   3.304   6.416 -0.1613  0.0620  0.1199
 1104YOPC   PO414720  11.397   2.922   6.375 -0.2049 -0.2312 -0.1605
 1104YOPC   GL114721  11.294   2.930   6.816  0.0458  0.2605 -0.1252
 1104YOPC   GL214722  11.047   2.669   6.907 -0.2340  0.2455  0.1178
 1104YOPC   C1A14723  11.171   2.849   7.355  0.3108  0.0177 -0.2872
 1104YOPC   D2A14724  11.133   3.068   7.722  0.0598  0.3658 -0.0236
 1104YOPC   C3A14725  11.373   3.304   7.832  0.0656 -0.0675  0.1084
 1104YOPC   C4A14726  11.699   3.522   7.646 -0.1998 -0.2938  0.2858
 1104YOPC   C1B14727  10.628   2.835   7.154 -0.0658  0.0760  0.1888
 1104YOPC   C2B14728  10.372   2.470   7.350 -0.1164  0.3221  0.0188
 1104YOPC   D3B14729  10.455   2.262   7.726 -0.0193  0.5109 -0.1794
 1104YOPC   C4B14730  10.556   2.039   7.978 -0.1367  0.0961 -0.0867
 1105YOPC   NC314731  15.232  17.382   6.133 -0.0468 -0.2239  0.1181
 1105YOPC   PO414732  14.851  17.354   6.028 -0.0807  0.1407 -0.1120
 1105YOPC   GL114733  14.828  17.321   6.426 -0.4034  0.0597  0.2009
 1105YOPC   GL214734  14.612  17.569   6.459 -0.1174  0.1526 -0.0967
 1105YOPC   C1A14735  15.065  17.243   6.823  0.0024 -0.1796 -0.0167
 1105YOPC   D2A14736  15.098  17.302   7.258  0.1068  0.0955 -0.1309
 1105YOPC   C3A14737  15.354  17.168   7.591 -0.0355 -0.1450 -0.1224
 1105YOPC   C4A14738  15.391  17.206   8.090 -0.1328 -0.0746  0.1479
 1105YOPC   C1B14739  14.474  17.564   6.912  0.0548 -0.0622 -0.1656
 1105YOPC   C2B14740  14.557  17.513   7.312  0.0554  0.0211  0.1779
 1105YOPC   D3B14741  14.172  17.579   7.672  0.2327  0.1008  0.0155
 1105YOPC   C4B14742  14.227  17.837   8.058 -0.0633  0.2837  0.2222
 1106YOPC   NC314743   4.627   1.131   5.920  0.5187  0.1138  0.0206
 1106YOPC   PO414744   4.183   1.024   5.995  0.0413 -0.0710 -0.1078
 1106YOPC   GL114745   4.034   0.909   6.455 -0.2152  0.1265 -0.0206
 1106YOPC   GL214746   3.806   1.000   6.520  0.0656 -0.0342  0.2982
 1106YOPC   C1A14747   4.268   1.007   6.791  0.2430  0.0658  0.1949
 1106YOPC   D2A14748   4.648   0.858   6.998 -0.0001 -0.0038 -0.2019
 1106YOPC   C3A14749   4.733   0.859   7.477  0.0455  0.2824  0.4267
 1106YOPC   C4A14750   4.594   0.997   7.812 -0.0257 -0.1307 -0.1862
 1106YOPC   C1B14751   3.460   0.824   6.960  0.1187 -0.0814  0.0317
 1106YOPC   C2B14752   3.382   0.797   7.364 -0.1522  0.0284  0.1015
 1106YOPC   D3B14753   3.007   0.672   7.469  0.1012  0.0367  0.1933
 1106YOPC   C4B14754   2.800   0.762   7.867  0.1340  0.0483 -0.0052
 1107YOPC   NC314755   2.248   2.341   5.437 -0.0040  0.0323  0.2300
 1107YOPC   PO414756   2.407   2.687   5.613  0.0202 -0.4179 -0.0710
 1107YOPC   GL114757   2.363   2.671   6.040  0.1068  0.0324 -0.1372
 1107YOPC   GL214758   2.012   2.590   6.168  0.1199  0.0200 -0.2471
 1107YOPC   C1A14759   2.284   2.984   6.344 -0.4520 -0.5238  0.1076
 1107YOPC   D2A14760   2.326   3.263   6.674  0.2029  0.1685 -0.1971
 1107YOPC   C3A14761   2.004   3.627   6.730 -0.1285 -0.2232  0.1013
 1107YOPC   C4A14762   1.647   3.641   6.681 -0.1390 -0.2496 -0.0722
 1107YOPC   C1B14763   2.003   2.652   6.667 -0.1813  0.1180 -0.2360
 1107YOPC   C2B14764   1.980   2.559   7.135  0.0588  0.0150  0.3163
 1107YOPC   D3B14765   1.855   2.155   7.342 -0.0050 -0.0082  0.3125
 1107YOPC   C4B14766   2.066   1.989   7.752  0.4245 -0.2521 -0.1580
 1108YOPC   NC314767   7.294  16.418   6.107  0.5676 -0.1030  0.2106
 1108YOPC   PO414768   7.435  16.309   6.505 -0.1887 -0.0191  0.0620
 1108YOPC   GL114769   7.675  16.413   6.858  0.0661 -0.0081  0.0003
 1108YOPC   GL214770   7.487  16.715   6.946 -0.4407 -0.3918 -0.2533
 1108YOPC   C1A14771   7.664  16.421   7.319 -0.0846 -0.1610  0.2087
 1108YOPC   D2A14772   7.739  16.736   7.745  0.0785  0.0669  0.0511
 1108YOPC   C3A14773   7.343  16.650   8.060  0.1625  0.1801  0.3618
 1108YOPC   C4A14774   6.963  16.565   8.369  0.1938 -0.0344 -0.0762
 1108YOPC   C1B14775   7.688  16.985   7.272  0.2190 -0.0570 -0.2696
 1108YOPC   C2B14776   7.846  17.337   7.469 -0.3415 -0.0920 -0.0116
 1108YOPC   D3B14777   7.689  17.555   7.867  0.1495  0.0964  0.0163
 1108YOPC   C4B14778   7.785  17.468   8.299  0.2707 -0.0816  0.0903
 1109YOPC   NC314779   9.238  15.517   6.382  0.5767  0.1060  0.2592
 1109YOPC   PO414780   8.837  15.351   6.271  0.1236  0.0627  0.1126
 1109YOPC   GL114781   8.953  15.249   6.686  0.4047  0.1876 -0.1523
 1109YOPC   GL214782   8.808  15.302   6.927 -0.0058  0.2060 -0.2570
 1109YOPC   C1A14783   9.263  15.061   6.934  0.1259  0.0378 -0.0215
 1109YOPC   D2A14784   9.290  15.047   7.332  0.2010  0.1042 -0.0865
 1109YOPC   C3A14785   9.403  15.052   7.712 -0.1813 -0.0130 -0.1428
 1109YOPC   C4A14786   9.553  14.846   8.203 -0.3588 -0.1035  0.1048
 1109YOPC   C1B14787   8.985  15.462   7.376  0.0850 -0.0937  0.0861
 1109YOPC   C2B14788   9.070  15.536   7.823  0.2450  0.4335 -0.0145
 1109YOPC   D3B14789   9.134  15.188   8.159  0.0897  0.1907  0.1757
 1109YOPC   C4B14790   9.118  14.907   8.517 -0.2601 -0.1129  0.1235
 1110YOPC   NC314791   2.514   0.053   5.492  0.2195  0.0124 -0.2251
 1110YOPC   PO414792   2.440   0.023   5.975 -0.0370 -0.0833  0.0159
 1110YOPC   GL114793   2.537  -0.196   6.349 -0.1323 -0.1972  0.2579
 1110YOPC   GL214794   2.813  -0.100   6.496  0.2708  0.1396 -0.1732
 1110YOPC   C1A14795   2.488  -0.221   6.813 -0.1257 -0.0794  0.0792
 1110YOPC   D2A14796   2.294   0.170   7.161  0.0031  0.1043  0.0895
 1110YOPC   C3A14797   2.189   0.113   7.612  0.0178  0.0035 -0.0764
 1110YOPC   C4A14798   2.321  -0.003   7.910  0.1723  0.2519  0.2560
 1110YOPC   C1B14799   2.994   0.287   6.639 -0.0169  0.1497  0.3647
 1110YOPC   C2B14800   2.946   0.613   6.862  0.1907  0.2206 -0.1541
 1110YOPC   D3B14801   2.628   0.655   7.105  0.1853  0.0633  0.0143
 1110YOPC   C4B14802   2.612   0.451   7.496 -0.2771 -0.0266 -0.0326
 1111YOPC   NC314803  10.323   0.643   6.506  0.1487 -0.0962 -0.3782
 1111YOPC   PO414804   9.911   0.847   6.416 -0.0876  0.0488  0.0412
 1111YOPC   GL114805   9.863   0.548   6.767 -0.1167 -0.2447  0.2233
 1111YOPC   GL214806   9.955   0.198   6.641 -0.1469 -0.2661  0.0975
 1111YOPC   C1A14807   9.697   0.476   7.110 -0.0766  0.0969 -0.0129
 1111YOPC   D2A14808   9.524   0.348   7.499 -0.1891  0.1105  0.1649
 1111YOPC   C3A14809   9.657   0.568   7.836 -0.2316 -0.1294  0.2334
 1111YOPC   C4A14810   9.664   1.054   8.082 -0.2636  0.0102  0.2672
 1111YOPC   C1B14811  10.095   0.180   7.108  0.2150  0.1074 -0.0420
 1111YOPC   C2B14812  10.081   0.139   7.610  0.0599 -0.1078 -0.1342
 1111YOPC   D3B14813  10.314   0.360   7.893  0.1070  0.3205  0.2982
 1111YOPC   C4B14814  10.380   0.447   8.355 -0.1304  0.2743 -0.1558
 1112YOPC   NC314815   5.961   5.310   5.522 -0.0297 -0.0353 -0.0625
 1112YOPC   PO414816   5.884   5.269   5.974  0.3175 -0.4274 -0.3748
 1112YOPC   GL114817   5.902   5.427   6.431  0.1194 -0.0444 -0.0875
 1112YOPC   GL214818   5.666   5.691   6.507  0.0161 -0.0218 -0.2738
 1112YOPC   C1A14819   5.840   5.411   6.904  0.4356  0.1657  0.1522
 1112YOPC   D2A14820   5.513   5.492   7.262  0.1343 -0.1283  0.2103
 1112YOPC   C3A14821   5.509   5.344   7.638 -0.0322 -0.1356  0.1089
 1112YOPC   C4A14822   5.592   5.247   8.053  0.2800 -0.0747 -0.1202
 1112YOPC   C1B14823   5.491   5.941   6.894 -0.0027 -0.0803  0.0004
 1112YOPC   C2B14824   5.390   6.003   7.257 -0.0000  0.1292 -0.0352
 1112YOPC   D3B14825   5.351   5.845   7.693  0.3339  0.0327 -0.0252
 1112YOPC   C4B14826   5.328   5.686   8.035  0.0819  0.0446 -0.0608
 1113YOPC   NC314827  15.856   8.816   5.722  0.0345  0.0354 -0.1506
 1113YOPC   PO414828  15.519   9.105   5.756 -0.0399 -0.0106  0.2810
 1113YOPC   GL114829  15.516   9.056   6.163  0.3688 -0.1402 -0.1414
 1113YOPC   GL214830  15.355   8.746   6.271  0.1742 -0.1814 -0.0519
 1113YOPC   C1A14831  15.621   9.208   6.535  0.2126  0.1684  0.1058
 1113YOPC   D2A14832  16.122   9.079   6.617 -0.0107  0.0933  0.1425
 1113YOPC   C3A14833  16.394   9.094   6.997  0.0868  0.2938 -0.1063
 1113YOPC   C4A14834  16.578   9.247   7.328  0.2955 -0.3382  0.1523
 1113YOPC   C1B14835  15.726   8.700   6.555  0.1620  0.2372  0.3038
 1113YOPC   C2B14836  16.121   8.563   6.712 -0.0975  0.1032  0.0150
 1113YOPC   D3B14837  16.152   8.696   7.085  0.0234  0.2704 -0.0410
 1113YOPC   C4B14838  16.302   8.837   7.432 -0.1285  0.1108  0.0455
 1114YOPC   NC314839   4.107   3.936   5.741  0.3335 -0.1325  0.0354
 1114YOPC   PO414840   3.659   3.849   5.915  0.3924 -0.0685  0.0866
 1114YOPC   GL114841   3.794   3.684   6.281  0.4392  0.2266  0.0773
 1114YOPC   GL214842   3.771   3.962   6.443 -0.1964  0.1941 -0.1592
 1114YOPC   C1A14843   3.698   3.557   6.738  0.0986  0.0372 -0.0536
 1114YOPC   D2A14844   3.714   3.506   7.156 -0.1175 -0.0267  0.0703
 1114YOPC   C3A14845   3.686   3.809   7.477 -0.2293  0.2179 -0.1477
 1114YOPC   C4A14846   3.708   4.293   7.500  0.0857  0.2579 -0.0327
 1114YOPC   C1B14847   3.665   4.125   6.793  0.0490  0.1675  0.1621
 1114YOPC   C2B14848   3.532   4.394   7.033 -0.0034  0.2332 -0.1168
 1114YOPC   D3B14849   3.084   4.283   7.043  0.0116 -0.0309 -0.0313
 1114YOPC   C4B14850   2.831   3.863   7.216  0.4209 -0.1762 -0.0959
 1115YOPC   NC314851   7.800  15.931   6.573  0.0919  0.3960  0.0657
 1115YOPC   PO414852   7.954  15.495   6.675  0.0226 -0.3136  0.1682
 1115YOPC   GL114853   7.825  15.341   7.084 -0.0973 -0.3776  0.0271
 1115YOPC   GL214854   7.777  15.052   7.060  0.0339 -0.1223  0.0095
 1115YOPC   C1A14855   7.644  15.443   7.457  0.0987  0.0614 -0.0493
 1115YOPC   D2A14856   7.373  15.512   7.857  0.0421 -0.0335  0.2333
 1115YOPC   C3A14857   7.267  15.717   8.254  0.1109  0.1557 -0.3153
 1115YOPC   C4A14858   6.805  15.742   8.265  0.1989  0.0590  0.0372
 1115YOPC   C1B14859   7.753  14.886   7.457 -0.0368  0.2946 -0.2481
 1115YOPC   C2B14860   7.718  15.004   7.775 -0.0095 -0.0294  0.2720
 1115YOPC   D3B14861   7.478  14.857   8.092 -0.0692 -0.0988  0.0837
 1115YOPC   C4B14862   7.440  14.657   8.480  0.1164 -0.3107 -0.2326
 1116YOPC   NC314863  11.904   7.646   5.901  0.0621  0.0517 -0.0941
 1116YOPC   PO414864  12.209   7.283   5.969  0.0973 -0.0444 -0.3012
 1116YOPC   GL114865  12.102   7.298   6.502  0.1007  0.4161  0.1517
 1116YOPC   GL214866  11.896   7.356   6.713 -0.0170  0.1897 -0.0610
 1116YOPC   C1A14867  12.334   7.427   6.956  0.1286 -0.2581  0.0056
 1116YOPC   D2A14868  12.205   7.352   7.369  0.0536  0.0557  0.2114
 1116YOPC   C3A14869  12.329   7.006   7.680 -0.1217  0.0127  0.1503
 1116YOPC   C4A14870  12.532   6.839   8.028  0.0156  0.0898  0.1190
 1116YOPC   C1B14871  11.751   7.149   7.207  0.2463 -0.1168 -0.0716
 1116YOPC   C2B14872  11.821   7.023   7.714 -0.0458  0.2035  0.2093
 1116YOPC   D3B14873  11.562   6.995   8.018 -0.0110  0.1851 -0.0011
 1116YOPC   C4B14874  11.699   7.082   8.495  0.0402  0.0377 -0.2146
 1117YOPC   NC314875  10.771  14.041   6.404 -0.1082  0.0335 -0.0510
 1117YOPC   PO414876  10.678  13.606   6.428 -0.0011 -0.1545  0.3428
 1117YOPC   GL114877  10.482  13.388   6.705 -0.0585  0.0063  0.0417
 1117YOPC   GL214878  10.237  13.443   6.901 -0.0967 -0.1084 -0.2631
 1117YOPC   C1A14879  10.537  12.968   6.977  0.0679 -0.0847  0.0125
 1117YOPC   D2A14880  10.562  12.735   7.350 -0.0891  0.3272  0.0762
 1117YOPC   C3A14881  10.598  12.854   7.725 -0.4587 -0.0013 -0.3211
 1117YOPC   C4A14882  10.712  12.969   8.162  0.3056  0.1580 -0.0022
 1117YOPC   C1B14883  10.039  13.381   7.311  0.0261  0.4093  0.0863
 1117YOPC   C2B14884   9.825  13.302   7.756  0.0600  0.1307  0.0688
 1117YOPC   D3B14885   9.841  12.950   8.084 -0.3730 -0.1754  0.0216
 1117YOPC   C4B14886   9.864  12.701   8.377 -0.0643 -0.0580  0.0577
 1118YOPC   NC314887   3.033   4.759   5.661 -0.0300  0.1084 -0.1546
 1118YOPC   PO414888   2.586   5.001   5.445  0.2280 -0.1346 -0.0628
 1118YOPC   GL114889   2.371   5.170   5.783 -0.0576 -0.3188 -0.3908
 1118YOPC   GL214890   2.030   5.268   5.826  0.0402  0.0444  0.2859
 1118YOPC   C1A14891   2.400   5.093   6.228 -0.1728 -0.2502  0.5429
 1118YOPC   D2A14892   2.283   5.069   6.613 -0.1127  0.0503 -0.1022
 1118YOPC   C3A14893   2.444   4.759   6.848 -0.0279  0.3729 -0.3128
 1118YOPC   C4A14894   2.452   4.693   7.220  0.2512  0.1531  0.0990
 1118YOPC   C1B14895   1.888   5.194   6.200  0.1151  0.2180  0.5417
 1118YOPC   C2B14896   1.765   5.068   6.528 -0.1497 -0.0093 -0.1436
 1118YOPC   D3B14897   1.648   5.212   6.982 -0.2711  0.0697  0.1379
 1118YOPC   C4B14898   1.536   5.136   7.465  0.0890  0.0274  0.0236
 1119YOPC   NC314899  12.622   3.112   5.791  0.0355  0.1610 -0.0236
 1119YOPC   PO414900  12.935   3.315   6.131  0.0401 -0.1911 -0.0271
 1119YOPC   GL114901  12.804   3.141   6.555 -0.1880  0.0656  0.0178
 1119YOPC   GL214902  12.911   3.396   6.802  0.0444 -0.3659  0.2749
 1119YOPC   C1A14903  12.688   2.942   6.914  0.2806 -0.1381  0.0665
 1119YOPC   D2A14904  12.749   2.809   7.424  0.2434 -0.1550  0.4902
 1119YOPC   C3A14905  12.999   2.700   7.825  0.1080  0.2447 -0.2934
 1119YOPC   C4A14906  12.907   2.411   8.262  0.1290 -0.0943  0.0141
 1119YOPC   C1B14907  12.820   3.305   7.276 -0.0195  0.0243  0.3652
 1119YOPC   C2B14908  12.631   3.273   7.742  0.0278  0.0406 -0.0479
 1119YOPC   D3B14909  12.850   3.110   8.070 -0.0492 -0.0097  0.1116
 1119YOPC   C4B14910  12.569   2.787   8.259 -0.0757  0.1484  0.1261
 1120YOPC   NC314911  17.596   3.381   5.615 -0.1412  0.0766  0.0819
 1120YOPC   PO414912  17.318   3.270   5.937  0.0852 -0.0958  0.1842
 1120YOPC   GL114913  17.181   3.398   6.343 -0.0283  0.3042  0.0491
 1120YOPC   GL214914  17.022   3.661   6.341  0.2924 -0.0499 -0.1451
 1120YOPC   C1A14915  17.224   3.295   6.780  0.1798  0.0273  0.1882
 1120YOPC   D2A14916  17.140   3.305   7.222 -0.1014 -0.0171  0.1519
 1120YOPC   C3A14917  17.211   3.569   7.634 -0.1567 -0.2957 -0.0688
 1120YOPC   C4A14918  17.662   3.711   7.868  0.0443  0.1801 -0.1204
 1120YOPC   C1B14919  17.064   3.796   6.747  0.0003 -0.3248 -0.0198
 1120YOPC   C2B14920  17.182   3.774   7.155  0.0927  0.3137  0.1789
 1120YOPC   D3B14921  17.561   3.652   7.166  0.0402 -0.0233 -0.4732
 1120YOPC   C4B14922  17.906   3.645   7.355 -0.1068  0.0570 -0.2528
 1121YOPC   NC314923   2.609   3.811   5.876 -0.5246 -0.0817  0.0043
 1121YOPC   PO414924   2.891   4.236   5.791 -0.1855 -0.3490 -0.0417
 1121YOPC   GL114925   2.940   3.991   6.238  0.0310  0.0074 -0.0466
 1121YOPC   GL214926   3.240   3.750   6.267 -0.3989  0.1490  0.1731
 1121YOPC   C1A14927   2.779   4.027   6.712  0.0022 -0.4301 -0.2159
 1121YOPC   D2A14928   2.548   4.252   7.015  0.0647  0.0785  0.0944
 1121YOPC   C3A14929   2.415   4.082   7.399  0.1358  0.1985 -0.2672
 1121YOPC   C4A14930   2.241   3.907   7.775  0.0276  0.1526 -0.0383
 1121YOPC   C1B14931   3.219   3.795   6.681 -0.0602 -0.1016 -0.1233
 1121YOPC   C2B14932   3.365   3.877   7.076  0.2018 -0.0947 -0.0107
 1121YOPC   D3B14933   3.271   4.033   7.442 -0.4590 -0.1142  0.2136
 1121YOPC   C4B14934   3.490   4.058   7.891  0.0371 -0.0995  0.0917
 1122YOPC   NC314935   2.858   3.458   5.191 -0.1484 -0.0339 -0.2226
 1122YOPC   PO414936   2.912   3.367   5.641  0.0063  0.2364  0.1991
 1122YOPC   GL114937   2.952   3.286   6.147 -0.0858 -0.2238  0.0916
 1122YOPC   GL214938   2.896   3.023   6.285 -0.2611  0.0597 -0.2277
 1122YOPC   C1A14939   2.849   3.560   6.489 -0.2944  0.1267 -0.1071
 1122YOPC   D2A14940   2.718   3.533   6.842  0.0496 -0.2747 -0.1398
 1122YOPC   C3A14941   2.380   3.727   7.003 -0.2352 -0.1186  0.0925
 1122YOPC   C4A14942   2.008   3.870   7.289 -0.1160 -0.2869 -0.0489
 1122YOPC   C1B14943   2.806   3.106   6.619  0.0613 -0.2802  0.1281
 1122YOPC   C2B14944   2.794   2.979   7.101  0.0300 -0.0819  0.1602
 1122YOPC   D3B14945   2.639   3.369   7.342  0.0206 -0.1417  0.0652
 1122YOPC   C4B14946   2.718   3.684   7.638 -0.1746 -0.1021  0.1221
 1123YOPC   NC314947   5.213   2.572   6.243  0.1688 -0.0691  0.2085
 1123YOPC   PO414948   5.095   2.916   6.155  0.2315  0.1168  0.2628
 1123YOPC   GL114949   5.032   2.968   6.599 -0.4781 -0.0697 -0.0220
 1123YOPC   GL214950   5.398   3.148   6.726 -0.0792 -0.0126  0.0257
 1123YOPC   C1A14951   5.011   2.829   6.968 -0.1774 -0.0935  0.0303
 1123YOPC   D2A14952   5.146   2.812   7.363 -0.0639 -0.0748 -0.2640
 1123YOPC   C3A14953   5.057   3.172   7.644 -0.2883  0.3459  0.1386
 1123YOPC   C4A14954   5.127   3.497   8.017 -0.2946 -0.0984  0.3643
 1123YOPC   C1B14955   5.671   3.441   6.971 -0.1563  0.1432  0.2125
 1123YOPC   C2B14956   5.640   3.880   7.267 -0.0266 -0.0026  0.1491
 1123YOPC   D3B14957   5.560   3.856   7.706  0.0349 -0.1595 -0.0739
 1123YOPC   C4B14958   5.555   3.952   8.184 -0.0295 -0.0186  0.1111
 1124YOPC   NC314959   9.879  12.572   6.615 -0.3226  0.2760 -0.1480
 1124YOPC   PO414960   9.402  12.465   6.459 -0.0884 -0.2690 -0.0849
 1124YOPC   GL114961   9.259  12.338   6.920  0.4422 -0.1531 -0.2904
 1124YOPC   GL214962   9.282  12.013   7.092  0.0790 -0.0748  0.2590
 1124YOPC   C1A14963   9.170  12.319   7.435  0.1406 -0.0026 -0.0548
 1124YOPC   D2A14964   9.219  12.282   7.817 -0.2344 -0.0920 -0.2848
 1124YOPC   C3A14965   8.983  12.622   7.998 -0.1187  0.0608  0.1324
 1124YOPC   C4A14966   8.889  12.743   8.362  0.1714 -0.1945 -0.0543
 1124YOPC   C1B14967   9.436  11.927   7.527 -0.1168  0.1222  0.0025
 1124YOPC   C2B14968   9.424  11.821   7.931 -0.0064 -0.2811 -0.1083
 1124YOPC   D3B14969   9.795  11.747   8.212  0.3052  0.3886  0.3148
 1124YOPC   C4B14970   9.928  11.770   8.686 -0.4441  0.0418 -0.2319
 1125YOPC   NC314971  17.239  14.573   5.538  0.1248 -0.1080 -0.0079
 1125YOPC   PO414972  17.350  14.878   5.885  0.1001  0.2447  0.4205
 1125YOPC   GL114973  17.307  14.819   6.242 -0.1704 -0.0672  0.0812
 1125YOPC   GL214974  17.452  14.585   6.360 -0.1995  0.1093  0.1794
 1125YOPC   C1A14975  17.267  15.072   6.575 -0.1647  0.2158 -0.0847
 1125YOPC   D2A14976  17.515  15.412   6.824 -0.0578  0.1347  0.0604
 1125YOPC   C3A14977  17.596  15.380   7.242  0.4140 -0.1420  0.1489
 1125YOPC   C4A14978  17.640  15.576   7.667  0.0951  0.0428 -0.0921
 1125YOPC   C1B14979  17.247  14.586   6.819  0.1957 -0.2353 -0.3983
 1125YOPC   C2B14980  17.328  14.964   7.058 -0.0971 -0.2999  0.3123
 1125YOPC   D3B14981  17.135  15.384   7.091  0.4419  0.3389  0.1109
 1125YOPC   C4B14982  17.192  15.703   7.392  0.0517  0.1203  0.1384
 1126YOPC   NC314983   8.484  16.216   6.219  0.2758  0.0054  0.1097
 1126YOPC   PO414984   8.303  15.985   6.612  0.0202  0.2429  0.0868
 1126YOPC   GL114985   8.233  15.749   7.007 -0.0797 -0.0279  0.0949
 1126YOPC   GL214986   8.521  15.589   7.127 -0.1255 -0.2314  0.3857
 1126YOPC   C1A14987   8.041  15.717   7.364 -0.4399  0.0542  0.1327
 1126YOPC   D2A14988   8.032  15.657   7.747  0.0306  0.1201 -0.1176
 1126YOPC   C3A14989   8.321  15.936   7.961 -0.0203 -0.1139 -0.2746
 1126YOPC   C4A14990   8.716  16.015   8.183 -0.0982 -0.0443  0.0834
 1126YOPC   C1B14991   8.544  15.574   7.605  0.0454  0.2214  0.1248
 1126YOPC   C2B14992   8.415  15.447   8.033 -0.2229  0.1411  0.3686
 1126YOPC   D3B14993   8.146  15.655   8.320 -0.0634  0.0600  0.2338
 1126YOPC   C4B14994   7.788  15.857   8.296  0.0326 -0.0077 -0.1365
 1127YOPC   NC314995  15.121  15.383   5.976  0.1250 -0.1966  0.3919
 1127YOPC   PO414996  15.094  14.888   6.139  0.0061 -0.2261  0.1305
 1127YOPC   GL114997  14.876  15.189   6.474  0.1472 -0.0031 -0.3786
 1127YOPC   GL214998  14.941  15.489   6.566 -0.1094 -0.0933 -0.1969
 1127YOPC   C1A14999  14.763  15.131   6.894 -0.1610 -0.1015 -0.0237
 1127YOPC   D2A15000  14.898  14.963   7.185  0.0923 -0.3552  0.0824
 1127YOPC   C3A15001  15.254  14.915   7.338  0.0630 -0.0437 -0.1279
 1127YOPC   C4A15002  15.414  15.126   7.603 -0.0635 -0.1642  0.2248
 1127YOPC   C1B15003  15.179  15.438   6.880 -0.1610  0.0602 -0.1716
 1127YOPC   C2B15004  15.168  15.458   7.327 -0.1174  0.0579  0.4706
 1127YOPC   D3B15005  15.402  15.611   7.692 -0.2334 -0.3039 -0.3748
 1127YOPC   C4B15006  15.710  15.814   8.024  0.1991  0.0994  0.0292
 1128YOPC   NC315007   8.900  16.499   6.035  0.3141  0.0950 -0.0838
 1128YOPC   PO415008   8.647  16.632   6.433  0.1534  0.0612  0.1538
 1128YOPC   GL115009   8.577  16.850   6.827  0.0818 -0.1136  0.1497
 1128YOPC   GL215010   8.788  16.672   6.937  0.0870 -0.1753 -0.2176
 1128YOPC   C1A15011   8.710  16.991   7.330 -0.2561 -0.3686  0.0372
 1128YOPC   D2A15012   8.710  16.848   7.683  0.1660  0.3846  0.1806
 1128YOPC   C3A15013   8.909  16.644   8.086  0.0672  0.2938 -0.0835
 1128YOPC   C4A15014   8.809  16.487   8.493  0.2714 -0.2599  0.1606
 1128YOPC   C1B15015   8.821  16.472   7.372  0.0535  0.1165  0.1774
 1128YOPC   C2B15016   8.701  16.319   7.785  0.1164 -0.0651  0.1940
 1128YOPC   D3B15017   8.391  16.556   7.995 -0.1854 -0.0192  0.5106
 1128YOPC   C4B15018   8.342  16.626   8.499  0.1182 -0.0781  0.1525
 1129YOPC   NC315019  14.947   9.511   5.941  0.2277 -0.6643  0.0249
 1129YOPC   PO415020  15.279   9.499   5.667  0.0598 -0.0028 -0.2567
 1129YOPC   GL115021  15.390   9.558   6.088  0.0375  0.1139  0.1243
 1129YOPC   GL215022  15.230   9.824   6.248 -0.1753  0.3133  0.4393
 1129YOPC   C1A15023  15.701   9.646   6.253 -0.0067 -0.1044  0.2420
 1129YOPC   D2A15024  16.036   9.536   6.479  0.2474 -0.1136  0.2982
 1129YOPC   C3A15025  16.204   9.566   6.887  0.2514 -0.2801 -0.0974
 1129YOPC   C4A15026  16.157   9.560   7.203  0.0119  0.2733  0.0299
 1129YOPC   C1B15027  15.386   9.772   6.690  0.2589  0.2481 -0.0944
 1129YOPC   C2B15028  15.717   9.642   6.986 -0.2320  0.1875 -0.3565
 1129YOPC   D3B15029  15.900   9.169   7.021 -0.0706 -0.3598  0.0016
 1129YOPC   C4B15030  15.662   8.850   7.064  0.0295 -0.1811 -0.0589
 1130YOPC   NC315031  12.553  13.673   6.338 -0.1832 -0.2386 -0.1187
 1130YOPC   PO415032  12.544  13.272   6.135  0.0642 -0.2037  0.1060
 1130YOPC   GL115033  12.416  13.158   6.571  0.1698  0.1430 -0.2321
 1130YOPC   GL215034  12.714  13.006   6.776  0.3599 -0.0134  0.1646
 1130YOPC   C1A15035  12.425  13.339   6.881  0.1575  0.1818 -0.0430
 1130YOPC   D2A15036  12.378  13.336   7.267  0.4105 -0.2825 -0.2143
 1130YOPC   C3A15037  12.397  13.507   7.677 -0.1653 -0.1382  0.0242
 1130YOPC   C4A15038  12.170  13.563   8.088  0.1847  0.0019  0.2401
 1130YOPC   C1B15039  12.840  13.170   7.147  0.1018  0.0263 -0.0992
 1130YOPC   C2B15040  12.730  13.213   7.534 -0.1280 -0.0512  0.1753
 1130YOPC   D3B15041  13.120  13.505   7.654  0.0710  0.0126 -0.1032
 1130YOPC   C4B15042  13.209  13.667   8.077  0.0592 -0.0965 -0.1912
 1131YOPC   NC315043  16.937   1.480   5.533 -0.0129  0.1718  0.2297
 1131YOPC   PO415044  16.908   1.491   6.009 -0.1531 -0.0542 -0.1169
 1131YOPC   GL115045  16.858   1.603   6.446  0.1759  0.1418  0.1566
 1131YOPC   GL215046  17.089   1.495   6.698 -0.0752 -0.1665  0.1701
 1131YOPC   C1A15047  16.767   1.849   6.784 -0.0475 -0.0880  0.1126
 1131YOPC   D2A15048  16.653   2.083   7.095  0.1218  0.1409  0.0569
 1131YOPC   C3A15049  16.322   1.844   7.333 -0.3903  0.0167  0.2694
 1131YOPC   C4A15050  16.056   1.694   7.743 -0.0805 -0.1572 -0.0158
 1131YOPC   C1B15051  16.932   1.648   7.192  0.1285  0.3991 -0.2177
 1131YOPC   C2B15052  16.879   1.875   7.499 -0.1902  0.1564  0.5357
 1131YOPC   D3B15053  16.613   1.843   7.927  0.3324 -0.1308  0.3398
 1131YOPC   C4B15054  16.310   1.871   8.222 -0.1551  0.0746  0.3436
 1132YOPC   NC315055   7.263   7.140   5.771  0.1721 -0.1774  0.1188
 1132YOPC   PO415056   7.167   7.353   6.137 -0.0563 -0.0484  0.1762
 1132YOPC   GL115057   7.404   7.312   6.504 -0.0250 -0.2221  0.0486
 1132YOPC   GL215058   7.350   7.567   6.651 -0.0738  0.0300  0.0804
 1132YOPC   C1A15059   7.394   6.941   6.770 -0.2146 -0.3547 -0.2855
 1132YOPC   D2A15060   7.559   6.700   7.091 -0.1008 -0.1783  0.0309
 1132YOPC   C3A15061   7.318   6.524   7.392 -0.4263  0.0323 -0.1544
 1132YOPC   C4A15062   7.172   6.725   7.793  0.5175 -0.2560  0.1530
 1132YOPC   C1B15063   7.104   7.807   6.870  0.0304 -0.0106 -0.1311
 1132YOPC   C2B15064   7.092   8.038   7.284  0.2909 -0.1839 -0.1269
 1132YOPC   D3B15065   7.487   8.139   7.522 -0.1939  0.0580  0.0076
 1132YOPC   C4B15066   7.619   8.200   7.915 -0.0660 -0.1322 -0.2265
 1133YOPC   NC315067  17.056  15.890   5.873  0.0525  0.0512 -0.1351
 1133YOPC   PO415068  17.382  16.029   5.530  0.1737 -0.1365 -0.0695
 1133YOPC   GL115069  17.659  16.036   5.968 -0.2903 -0.2329 -0.1560
 1133YOPC   GL215070  18.031  16.100   6.173 -0.0455 -0.0603 -0.1353
 1133YOPC   C1A15071  17.451  16.029   6.328 -0.5651  0.4871  0.0240
 1133YOPC   D2A15072  17.400  15.958   6.672  0.1398 -0.0524  0.1145
 1133YOPC   C3A15073  17.183  15.800   6.828  0.2229  0.0365 -0.3803
 1133YOPC   C4A15074  17.002  16.199   6.962  0.0536  0.0458 -0.2193
 1133YOPC   C1B15075  17.952  16.303   6.561  0.0765 -0.1390 -0.0927
 1133YOPC   C2B15076  17.943  16.294   6.997 -0.0647  0.1285 -0.0585
 1133YOPC   D3B15077  18.029  16.133   7.357  0.2262 -0.1842  0.1705
 1133YOPC   C4B15078  18.070  15.849   7.656 -0.1229  0.3853 -0.6179
 1134YOPC   NC315079   9.717  13.435   6.336  0.1060 -0.3379  0.0802
 1134YOPC   PO415080   9.826  13.225   6.698 -0.1638 -0.1546 -0.1611
 1134YOPC   GL115081   9.968  12.907   7.023  0.0406 -0.1225  0.0301
 1134YOPC   GL215082  10.106  12.656   7.057  0.0544  0.5109  0.0077
 1134YOPC   C1A15083  10.122  12.886   7.470 -0.1296  0.0260  0.3924
 1134YOPC   D2A15084  10.104  12.657   7.826  0.2912  0.1482 -0.0332
 1134YOPC   C3A15085  10.340  12.604   8.161  0.1110 -0.2022  0.2404
 1134YOPC   C4A15086  10.340  12.321   8.509  0.0871  0.0863 -0.0248
 1134YOPC   C1B15087  10.232  12.388   7.338 -0.1235 -0.2838 -0.2603
 1134YOPC   C2B15088  10.285  12.194   7.781  0.3627  0.0402  0.1213
 1134YOPC   D3B15089  10.138  12.078   8.169 -0.0022 -0.1715  0.2153
 1134YOPC   C4B15090   9.835  12.229   8.563 -0.3773  0.0278 -0.0714
 1135YOPC   NC315091   5.762   9.957   5.807  0.1613 -0.0952 -0.0291
 1135YOPC   PO415092   5.460  10.135   5.956  0.0855  0.2203  0.2435
 1135YOPC   GL115093   5.536   9.970   6.270  0.1800 -0.0977 -0.0940
 1135YOPC   GL215094   5.345  10.081   6.545 -0.0969 -0.1359 -0.3609
 1135YOPC   C1A15095   5.311   9.601   6.407 -0.0615 -0.3052  0.0606
 1135YOPC   D2A15096   4.981   9.277   6.580  0.1503  0.2404  0.1628
 1135YOPC   C3A15097   4.674   9.366   6.854 -0.2407  0.2367  0.1855
 1135YOPC   C4A15098   4.281   9.431   6.718  0.1051  0.2864 -0.1514
 1135YOPC   C1B15099   5.341  10.162   7.020  0.0484  0.0153 -0.0808
 1135YOPC   C2B15100   5.392  10.216   7.435  0.0734  0.0746 -0.0744
 1135YOPC   D3B15101   5.313  10.080   7.691 -0.2181  0.1631 -0.0926
 1135YOPC   C4B15102   5.469   9.849   8.160  0.0629 -0.1273 -0.1625
 1136YOPC   NC315103   1.953  17.583   6.018 -0.0254 -0.2442 -0.0110
 1136YOPC   PO415104   1.629  17.790   6.027  0.0853  0.1827 -0.0878
 1136YOPC   GL115105   1.576  18.120   6.317 -0.0271 -0.0175  0.2294
 1136YOPC   GL215106   1.180  18.271   6.349 -0.0462  0.1413  0.1510
 1136YOPC   C1A15107   1.520  18.201   6.675 -0.3846  0.1419 -0.0220
 1136YOPC   D2A15108   1.749  17.964   7.110  0.0911 -0.1293  0.3067
 1136YOPC   C3A15109   1.686  18.126   7.559 -0.1481  0.1103  0.2943
 1136YOPC   C4A15110   1.645  18.465   7.826  0.0545  0.0774  0.1355
 1136YOPC   C1B15111   0.945  18.249   6.659 -0.1220  0.1735  0.0164
 1136YOPC   C2B15112   0.769  18.175   7.118  0.2104  0.0123 -0.1741
 1136YOPC   D3B15113   0.459  17.958   7.257  0.3128 -0.1656  0.3402
 1136YOPC   C4B15114   0.072  17.974   7.281 -0.0590  0.3683 -0.1290
 1137YOPC   NC315115   4.586  12.858   5.983 -0.4216  0.1428  0.2700
 1137YOPC   PO415116   4.780  13.212   6.023 -0.2181 -0.0836  0.2298
 1137YOPC   GL115117   4.704  13.310   6.434 -0.2625 -0.0728  0.3152
 1137YOPC   GL215118   4.484  13.557   6.428 -0.0202  0.2270  0.1486
 1137YOPC   C1A15119   4.727  13.258   6.813 -0.0791 -0.1716  0.2471
 1137YOPC   D2A15120   4.697  13.148   7.224 -0.2273  0.2392 -0.1836
 1137YOPC   C3A15121   4.745  13.110   7.656 -0.0046 -0.1555 -0.2781
 1137YOPC   C4A15122   4.761  13.214   8.107  0.0356  0.3143  0.3442
 1137YOPC   C1B15123   4.376  13.909   6.790  0.1919 -0.3049  0.1657
 1137YOPC   C2B15124   4.169  14.213   6.933 -0.1993  0.0671 -0.0538
 1137YOPC   D3B15125   4.134  14.373   7.281 -0.2875  0.3668 -0.1848
 1137YOPC   C4B15126   4.152  14.559   7.706 -0.0309 -0.0437 -0.2843
 1138YOPC   NC315127  11.423   8.283   5.986 -0.0475 -0.0909  0.0268
 1138YOPC   PO415128  11.799   8.065   6.220 -0.3476 -0.2847  0.2996
 1138YOPC   GL115129  11.409   8.233   6.476  0.0388 -0.0136 -0.1762
 1138YOPC   GL215130  11.137   8.009   6.634 -0.0198 -0.2807 -0.0073
 1138YOPC   C1A15131  11.343   8.420   6.866 -0.2022 -0.2109 -0.1554
 1138YOPC   D2A15132  11.356   8.351   7.265  0.1130  0.2755  0.3468
 1138YOPC   C3A15133  11.474   8.026   7.231  0.1145 -0.1079 -0.0145
 1138YOPC   C4A15134  11.331   7.680   6.939 -0.0290 -0.3222 -0.0379
 1138YOPC   C1B15135  10.946   8.092   6.957 -0.0701  0.2681  0.0944
 1138YOPC   C2B15136  10.804   8.021   7.369  0.1013  0.0064 -0.1957
 1138YOPC   D3B15137  10.662   7.659   7.551 -0.0309 -0.0026 -0.3315
 1138YOPC   C4B15138  10.748   7.222   7.601  0.1865 -0.0664  0.0264
 1139YOPC   NC315139   2.401   9.688   5.573 -0.1471 -0.1177 -0.2027
 1139YOPC   PO415140   2.427  10.110   5.606 -0.2357 -0.0425 -0.1884
 1139YOPC   GL115141   2.231   9.858   5.980 -0.0772 -0.0423  0.0276
 1139YOPC   GL215142   1.935   9.870   5.900 -0.2070  0.0062 -0.2787
 1139YOPC   C1A15143   2.195   9.617   6.433 -0.0582  0.2236 -0.0076
 1139YOPC   D2A15144   2.233   9.692   6.907 -0.0455 -0.1985 -0.1651
 1139YOPC   C3A15145   1.803   9.698   7.032 -0.0653 -0.0921 -0.0105
 1139YOPC   C4A15146   1.472   9.860   7.283  0.1288 -0.1159 -0.0748
 1139YOPC   C1B15147   1.674   9.942   6.249 -0.1073  0.2885 -0.2560
 1139YOPC   C2B15148   1.621  10.049   6.742  0.0040 -0.1256 -0.0911
 1139YOPC   D3B15149   1.553  10.305   7.034  0.1190 -0.0384  0.0466
 1139YOPC   C4B15150   1.540  10.726   7.109  0.0098  0.0886  0.2315
 1140YOPC   NC315151  10.563   2.300   6.383  0.2498  0.0906 -0.0233
 1140YOPC   PO415152  10.534   1.900   6.347 -0.0283 -0.0137  0.1489
 1140YOPC   GL115153  10.416   2.033   6.785  0.3831  0.1509 -0.2254
 1140YOPC   GL215154  10.675   2.292   6.971 -0.1913 -0.2323  0.1710
 1140YOPC   C1A15155  10.099   2.081   6.931  0.1535  0.0292 -0.0827
 1140YOPC   D2A15156  10.168   2.021   7.290  0.0271 -0.3396 -0.0522
 1140YOPC   C3A15157   9.993   2.208   7.591  0.0831  0.1650  0.1485
 1140YOPC   C4A15158   9.943   2.230   7.995 -0.3434 -0.4304 -0.4468
 1140YOPC   C1B15159  10.864   2.374   7.290 -0.0942  0.0308  0.0419
 1140YOPC   C2B15160  10.752   2.700   7.626  0.1843 -0.1404  0.2644
 1140YOPC   D3B15161  10.983   2.610   8.041  0.4339  0.3181  0.1799
 1140YOPC   C4B15162  10.837   2.800   8.418  0.5755  0.1649 -0.1812
 1141YOPC   NC315163   9.803   2.520   6.136 -0.2011  0.1750 -0.1116
 1141YOPC   PO415164  10.191   2.595   6.204 -0.2076  0.0090  0.0433
 1141YOPC   GL115165  10.056   2.683   6.652  0.1134 -0.0717  0.0958
 1141YOPC   GL215166  10.217   2.535   6.863  0.2396  0.1117 -0.0859
 1141YOPC   C1A15167  10.113   3.094   6.946 -0.3711  0.2297  0.2170
 1141YOPC   D2A15168  10.451   3.329   7.251  0.0541  0.0352  0.4119
 1141YOPC   C3A15169  10.655   3.171   7.637  0.2360 -0.3149 -0.0447
 1141YOPC   C4A15170  10.631   2.990   8.025 -0.0215 -0.3306 -0.3574
 1141YOPC   C1B15171   9.959   2.675   7.217 -0.0544  0.0682 -0.0472
 1141YOPC   C2B15172  10.188   2.926   7.513  0.0440  0.1583  0.3020
 1141YOPC   D3B15173  10.211   2.679   7.920 -0.3423 -0.1416 -0.0918
 1141YOPC   C4B15174   9.974   2.540   8.355  0.0076  0.1329 -0.1933
 1142YOPC   NC315175   2.718  12.508   5.285  0.0284  0.2707 -0.0985
 1142YOPC   PO415176   2.635  12.180   5.621 -0.0459  0.1171  0.2207
 1142YOPC   GL115177   2.612  12.038   6.139  0.2360  0.2153  0.0566
 1142YOPC   GL215178   2.894  12.223   6.224  0.0731 -0.0611 -0.1975
 1142YOPC   C1A15179   2.653  12.067   6.630  0.0724  0.0775 -0.1815
 1142YOPC   D2A15180   2.842  12.038   7.044  0.0456  0.2439  0.3409
 1142YOPC   C3A15181   2.906  12.000   7.507  0.2613 -0.1651  0.2472
 1142YOPC   C4A15182   2.939  11.640   7.847  0.2073 -0.2331 -0.0989
 1142YOPC   C1B15183   3.142  12.044   6.652 -0.2523  0.0616  0.3846
 1142YOPC   C2B15184   3.377  11.692   6.704 -0.4080  0.0917  0.2090
 1142YOPC   D3B15185   3.570  11.550   7.082  0.1348  0.2283  0.3213
 1142YOPC   C4B15186   3.493  11.697   7.482 -0.0621  0.0942  0.4403
 1143YOPC   NC315187   5.078   5.849   5.982  0.1407 -0.2188 -0.0956
 1143YOPC   PO415188   5.232   6.002   6.350  0.0534  0.1397  0.4012
 1143YOPC   GL115189   5.147   6.368   6.659  0.0198  0.1153 -0.2222
 1143YOPC   GL215190   5.070   6.699   6.632 -0.0703 -0.2335  0.0191
 1143YOPC   C1A15191   5.392   6.507   6.922  0.1441 -0.0620 -0.0648
 1143YOPC   D2A15192   5.479   6.761   7.322 -0.0752 -0.1458  0.2992
 1143YOPC   C3A15193   5.601   7.159   7.426  0.1961  0.0225 -0.0056
 1143YOPC   C4A15194   5.744   7.323   7.740  0.0753  0.1597 -0.2322
 1143YOPC   C1B15195   4.953   6.723   7.095 -0.0684 -0.3546 -0.1280
 1143YOPC   C2B15196   5.013   6.885   7.516  0.3496 -0.0120  0.0382
 1143YOPC   D3B15197   4.962   6.707   7.899 -0.0077 -0.3977 -0.1839
 1143YOPC   C4B15198   5.224   6.704   8.328  0.0226 -0.0502 -0.0906
 1144ERGO   ROH15199  10.127  10.122  10.234  0.0933 -0.1309  0.0932
 1144ERGO    R115200  10.222  10.210   9.983  0.1568 -0.2371  0.0793
 1144ERGO    R215201  10.374  10.050   9.816  0.0050 -0.3876  0.0851
 1144ERGO    R315202  10.180  10.111   9.635  0.0474 -0.2320  0.0901
 1144ERGO    R415203  10.419  10.059   9.474  0.0284 -0.3408  0.0892
 1144ERGO    R515204  10.294  10.237   9.466  0.1333 -0.2617  0.1227
 1144ERGO    C115205  10.264  10.121   9.104  0.0820 -0.1673  0.0964
 1144ERGO    C215206  10.301  10.121   8.688  0.1280  0.0823 -0.0646
 1145ERGO   ROH15207  14.258   9.713   6.611 -0.3788  0.0065  0.1636
 1145ERGO    R115208  14.388   9.844   6.825 -0.1566 -0.0114  0.0435
 1145ERGO    R215209  14.273   9.871   7.075 -0.0574  0.2931  0.0630
 1145ERGO    R315210  14.504   9.754   7.159 -0.1753  0.0599  0.0689
 1145ERGO    R415211  14.419   9.922   7.384  0.0047  0.1731  0.0530
 1145ERGO    R515212  14.614   9.925   7.286  0.0067 -0.0408  0.0478
 1145ERGO    C115213  14.721   9.841   7.642 -0.0699 -0.1158  0.0526
 1145ERGO    C215214  14.961   9.828   7.801 -0.0786 -0.1441 -0.0843
 1146ERGO   ROH15215   3.921   7.737   9.695  0.1558  0.2573 -0.1053
 1146ERGO    R115216   4.036   7.601   9.475  0.1963  0.1314 -0.0062
 1146ERGO    R215217   3.934   7.620   9.219  0.1088 -0.1918  0.0048
 1146ERGO    R315218   4.188   7.693   9.158  0.0389 -0.0579 -0.1404
 1146ERGO    R415219   4.064   7.636   8.899 -0.1651  0.1509 -0.0974
 1146ERGO    R515220   4.249   7.550   8.975 -0.0708  0.1296 -0.3313
 1146ERGO    C115221   4.379   7.713   8.655 -0.3903  0.4763 -0.2931
 1146ERGO    C215222   4.267   7.693   8.261  0.0743 -0.1296  0.1243
 1147ERGO   ROH15223   2.506  11.240   6.362  0.1478 -0.1689  0.1639
 1147ERGO    R115224   2.458  11.173   6.633  0.0427  0.0536  0.2027
 1147ERGO    R215225   2.317  11.338   6.804 -0.2319  0.0906 -0.0498
 1147ERGO    R315226   2.166  11.115   6.842 -0.0364 -0.0234  0.0727
 1147ERGO    R415227   2.166  11.250   7.103 -0.1135  0.0960  0.0118
 1147ERGO    R515228   2.221  11.043   7.064  0.0585  0.1240  0.0982
 1147ERGO    C115229   1.937  10.990   7.312  0.1389 -0.0077  0.1627
 1147ERGO    C215230   1.819  10.864   7.522  0.1364  0.1244  0.0276
 1148ERGO   ROH15231   2.692   1.937   6.153 -0.2928  0.1566  0.0821
 1148ERGO    R115232   2.493   1.784   6.284 -0.3013  0.1465  0.0580
 1148ERGO    R215233   2.534   1.666   6.531 -0.2995  0.0840  0.0283
 1148ERGO    R315234   2.309   1.804   6.598 -0.2809  0.0920  0.0735
 1148ERGO    R415235   2.327   1.591   6.797 -0.3412 -0.0144 -0.0319
 1148ERGO    R515236   2.156   1.635   6.671 -0.3197  0.0817 -0.0284
 1148ERGO    C115237   1.996   1.675   7.015 -0.3480 -0.0642 -0.0244
 1148ERGO    C215238   1.912   1.667   7.346  0.1540 -0.0134  0.0916
 1149ERGO   ROH15239   6.276   0.430  10.469  0.0289  0.0930  0.0226
 1149ERGO    R115240   6.190   0.288  10.240  0.0921  0.0720  0.0113
 1149ERGO    R215241   6.050   0.408  10.034 -0.0945 -0.0037  0.0888
 1149ERGO    R315242   6.250   0.303   9.881 -0.0382  0.2323 -0.0043
 1149ERGO    R415243   6.053   0.401   9.688 -0.2345  0.0165  0.0870
 1149ERGO    R515244   6.136   0.200   9.698  0.0006  0.1113  0.0407
 1149ERGO    C115245   6.241   0.298   9.344 -0.2632  0.2497 -0.0014
 1149ERGO    C215246   6.335   0.386   8.906  0.1687  0.0525  0.1030
 1150ERGO   ROH15247   2.918  15.365   6.277 -0.0704 -0.2589 -0.0741
 1150ERGO    R115248   2.902  15.344   6.559 -0.0259 -0.3047 -0.0750
 1150ERGO    R215249   2.844  15.560   6.721  0.3366 -0.2564 -0.0050
 1150ERGO    R315250   2.647  15.397   6.813  0.1165  0.0097  0.0076
 1150ERGO    R415251   2.740  15.543   7.050  0.5360 -0.3096  0.0571
 1150ERGO    R515252   2.724  15.327   7.029  0.1520 -0.2774 -0.0925
 1150ERGO    C115253   2.494  15.381   7.328  0.4456 -0.0905  0.1051
 1150ERGO    C215254   2.380  15.407   7.646 -0.0731  0.1424 -0.1469
 1151ERGO   ROH15255  12.029  15.116   6.905 -0.2038  0.1301  0.1097
 1151ERGO    R115256  12.131  15.099   7.169 -0.1231  0.0685  0.0750
 1151ERGO    R215257  12.020  15.236   7.381 -0.0020  0.0905  0.1242
 1151ERGO    R315258  12.008  14.989   7.493 -0.0563  0.0853  0.1067
 1151ERGO    R415259  11.980  15.176   7.719 -0.1122  0.0807  0.1095
 1151ERGO    R515260  12.125  15.014   7.701 -0.1176  0.0685  0.1455
 1151ERGO    C115261  11.946  14.909   8.021 -0.2274  0.0701  0.0846
 1151ERGO    C215262  11.881  14.651   8.250  0.0900  0.1961 -0.1995
 1152ERGO   ROH15263  12.191   4.672   6.702 -0.0099 -0.0576  0.0308
 1152ERGO    R115264  12.083   4.658   6.964  0.0529 -0.0559  0.0579
 1152ERGO    R215265  11.988   4.423   7.073 -0.0856 -0.0229  0.0186
 1152ERGO    R315266  12.162   4.483   7.273  0.0167 -0.2026 -0.0156
 1152ERGO    R415267  11.932   4.362   7.409 -0.2212  0.3093  0.0587
 1152ERGO    R515268  12.023   4.555   7.454  0.1330  0.1803 -0.0716
 1152ERGO    C115269  12.063   4.384   7.792 -0.2042  0.3340  0.0498
 1152ERGO    C215270  12.199   4.246   8.101 -0.2743 -0.2214 -0.0711
 1153ERGO   ROH15271   0.378   7.837   9.413  0.0054 -0.2991 -0.0691
 1153ERGO    R115272   0.290   7.838   9.145 -0.0125 -0.4379 -0.0648
 1153ERGO    R215273   0.354   8.041   8.968 -0.4104 -0.2846 -0.0442
 1153ERGO    R315274   0.445   7.836   8.815 -0.0150 -0.0980 -0.0720
 1153ERGO    R415275   0.401   8.056   8.626 -0.3498 -0.1262 -0.0298
 1153ERGO    R515276   0.320   7.854   8.611  0.0012 -0.2676 -0.0973
 1153ERGO    C115277   0.514   7.872   8.283  0.0565  0.1412 -0.0476
 1153ERGO    C215278   0.605   8.108   8.011 -0.0505  0.2630  0.1392
 1154ERGO   ROH15279  15.541   0.664   6.437  0.0826  0.2007 -0.1314
 1154ERGO    R115280  15.581   0.830   6.663  0.0954  0.1005 -0.0603
 1154ERGO    R215281  15.641   1.099   6.641  0.0910  0.1069  0.0552
 1154ERGO    R315282  15.425   1.128   6.804  0.1031  0.0383  0.0853
 1154ERGO    R415283  15.580   1.374   6.842 -0.0588  0.1790 -0.0865
 1154ERGO    R515284  15.511   1.239   6.998  0.0718  0.2106  0.0072
 1154ERGO    C115285  15.341   1.561   7.110 -0.1346  0.1566 -0.1409
 1154ERGO    C215286  15.195   1.718   7.324 -0.0430  0.0720  0.2189
 1155ERGO   ROH15287   0.793  17.271   6.614  0.2381  0.0049 -0.0326
 1155ERGO    R115288   0.802  17.050   6.790 -0.0473  0.0232  0.0122
 1155ERGO    R215289   1.040  16.929   6.867 -0.1897 -0.2625  0.0544
 1155ERGO    R315290   0.946  16.979   7.117 -0.1535 -0.0852  0.0322
 1155ERGO    R415291   1.164  16.789   7.157 -0.0825  0.0553  0.1656
 1155ERGO    R515292   0.960  16.768   7.229 -0.0451  0.0325  0.2235
 1155ERGO    C115293   1.149  16.753   7.561  0.0139  0.4068  0.2096
 1155ERGO    C215294   1.334  16.520   7.841  0.3740 -0.0867 -0.0709
 1156ERGO   ROH15295   9.744  15.848  10.584  0.0821  0.2281  0.0442
 1156ERGO    R115296   9.873  15.949  10.353  0.1206  0.0142 -0.0305
 1156ERGO    R215297  10.008  15.787  10.175 -0.0535 -0.1834  0.0135
 1156ERGO    R315298   9.843  15.905   9.993  0.0074 -0.1264 -0.0049
 1156ERGO    R415299  10.060  15.790   9.833 -0.0153 -0.1997  0.0189
 1156ERGO    R515300   9.992  15.997   9.829  0.0564 -0.1767  0.0116
 1156ERGO    C115301   9.936  15.903   9.464  0.0641 -0.1558  0.0048
 1156ERGO    C215302   9.963  15.976   9.140  0.1115 -0.2613 -0.0866
 1157ERGO   ROH15303   2.117  14.802   6.295 -0.1374 -0.3616 -0.0915
 1157ERGO    R115304   1.960  14.871   6.521 -0.1109 -0.2228 -0.1148
 1157ERGO    R215305   1.790  14.691   6.645 -0.0425 -0.1669  0.0590
 1157ERGO    R315306   1.931  14.762   6.866 -0.0189  0.0424 -0.0197
 1157ERGO    R415307   1.677  14.658   6.970  0.1417 -0.2395  0.1166
 1157ERGO    R515308   1.767  14.851   7.016 -0.0608 -0.1204  0.0369
 1157ERGO    C115309   1.744  14.704   7.367  0.2711 -0.0851  0.0764
 1157ERGO    C215310   1.601  14.668   7.646  0.3695 -0.0623 -0.0244
 1158ERGO   ROH15311   2.004   4.394   9.543 -0.0642  0.0031  0.0094
 1158ERGO    R115312   2.084   4.287   9.294  0.0950  0.0367  0.0445
 1158ERGO    R215313   1.904   4.226   9.093  0.1857 -0.2476  0.0415
 1158ERGO    R315314   2.065   4.388   8.944 -0.0042 -0.0786  0.0168
 1158ERGO    R415315   1.945   4.203   8.750  0.0345 -0.0946  0.0126
 1158ERGO    R515316   2.158   4.242   8.778  0.0193  0.0490 -0.0806
 1158ERGO    C115317   2.119   4.342   8.412 -0.2317  0.1532 -0.0273
 1158ERGO    C215318   1.956   4.279   8.123  0.4140  0.1890  0.0283
 1159ERGO   ROH15319   5.873   6.521   6.839 -0.0568  0.0138  0.0011
 1159ERGO    R115320   5.851   6.320   7.037 -0.1544 -0.0587 -0.0832
 1159ERGO    R215321   5.983   6.334   7.279 -0.0952 -0.2550 -0.1045
 1159ERGO    R315322   5.734   6.298   7.381 -0.0997 -0.1301 -0.0682
 1159ERGO    R415323   5.913   6.272   7.612 -0.0984  0.0542 -0.0434
 1159ERGO    R515324   5.761   6.128   7.547 -0.1193  0.0140  0.0867
 1159ERGO    C115325   5.637   6.201   7.901 -0.1044  0.3514  0.0263
 1159ERGO    C215326   5.489   6.163   8.112  0.0732  0.0636  0.1735
 1160ERGO   ROH15327  16.701   3.202   6.261 -0.0530 -0.2503 -0.0242
 1160ERGO    R115328  16.654   3.370   6.484  0.0278 -0.1831 -0.0569
 1160ERGO    R215329  16.485   3.298   6.691 -0.0382 -0.0445 -0.0620
 1160ERGO    R315330  16.703   3.350   6.844 -0.0204 -0.1539 -0.0483
 1160ERGO    R415331  16.475   3.438   7.007  0.0038 -0.1600 -0.0084
 1160ERGO    R515332  16.650   3.557   6.954  0.0312 -0.1812  0.0305
 1160ERGO    C115333  16.674   3.570   7.334  0.0449 -0.3299  0.0356
 1160ERGO    C215334  16.771   3.812   7.535  0.2026  0.0170 -0.1023
 1161ERGO   ROH15335   4.863  10.292   6.532  0.0453  0.2737  0.0582
 1161ERGO    R115336   4.922  10.318   6.808  0.0884  0.0454  0.0723
 1161ERGO    R215337   4.726  10.343   7.001  0.1236  0.1680  0.0937
 1161ERGO    R315338   4.853  10.130   7.111 -0.1227 -0.0500 -0.0328
 1161ERGO    R415339   4.664  10.216   7.316  0.1532  0.2161  0.1188
 1161ERGO    R515340   4.878  10.187   7.342  0.1332 -0.1193 -0.0398
 1161ERGO    C115341   4.748   9.942   7.603 -0.0608  0.0395  0.0147
 1161ERGO    C215342   4.623   9.778   7.785  0.1386 -0.1344  0.0031
 1162ERGO   ROH15343   4.272   6.144   6.610 -0.1437 -0.0146  0.0917
 1162ERGO    R115344   4.119   6.303   6.787 -0.1694 -0.1022  0.1490
 1162ERGO    R215345   3.855   6.246   6.849 -0.1660 -0.1581  0.1170
 1162ERGO    R315346   3.947   6.255   7.104 -0.1754 -0.2484  0.1236
 1162ERGO    R415347   3.658   6.211   7.130 -0.1848 -0.1856  0.1004
 1162ERGO    R515348   3.775   6.369   7.225 -0.1517 -0.2398  0.1473
 1162ERGO    C115349   3.630   6.200   7.535 -0.2046 -0.2864  0.0970
 1162ERGO    C215350   3.567   6.224   7.889 -0.2479 -0.0287  0.0990
 1163ERGO   ROH15351   9.876  14.759   6.983  0.0439 -0.3015  0.0225
 1163ERGO    R115352   9.706  14.738   7.209  0.0051 -0.1191  0.0133
 1163ERGO    R215353   9.656  14.498   7.336 -0.2138 -0.0635  0.0534
 1163ERGO    R315354   9.739  14.634   7.556 -0.1077 -0.0925  0.0297
 1163ERGO    R415355   9.684  14.363   7.653 -0.1862 -0.0516  0.0548
 1163ERGO    R515356   9.603  14.549   7.734 -0.0897 -0.0256  0.0664
 1163ERGO    C115357   9.777  14.413   8.044 -0.0705 -0.0717  0.0334
 1163ERGO    C215358  10.105  14.282   8.156 -0.1018  0.0762  0.3797
 1164ERGO   ROH15359   4.446   3.610   9.917  0.4773  0.1129  0.0008
 1164ERGO    R115360   4.409   3.475   9.670  0.2637 -0.1356  0.1638
 1164ERGO    R215361   4.448   3.598   9.426 -0.1791 -0.3084 -0.0018
 1164ERGO    R315362   4.615   3.388   9.383 -0.0427 -0.1942 -0.0440
 1164ERGO    R415363   4.612   3.533   9.129 -0.0829 -0.1075  0.0043
 1164ERGO    R515364   4.570   3.321   9.158  0.0393 -0.1447 -0.0765
 1164ERGO    C115365   4.864   3.298   8.915  0.1013  0.1167 -0.0317
 1164ERGO    C215366   5.069   3.137   8.649  0.1878 -0.3994  0.0658
 1165ERGO   ROH15367  10.839   1.741   6.717  0.0122  0.1810 -0.0132
 1165ERGO    R115368  10.903   1.735   6.992 -0.0270  0.1005 -0.0056
 1165ERGO    R215369  10.742   1.848   7.186 -0.0554  0.0407  0.0040
 1165ERGO    R315370  10.755   1.600   7.296 -0.0677  0.0087 -0.0653
 1165ERGO    R415371  10.684   1.777   7.519  0.1602 -0.0132  0.0314
 1165ERGO    R515372  10.851   1.637   7.513  0.1054 -0.0764 -0.1240
 1165ERGO    C115373  10.663   1.503   7.817  0.2739 -0.0747 -0.0178
 1165ERGO    C215374  10.500   1.432   8.151 -0.1479  0.2230 -0.0167
 1166ERGO   ROH15375   0.290   6.064   6.190 -0.0747 -0.0570 -0.1975
 1166ERGO    R115376   0.300   6.198   6.439 -0.0575 -0.0130 -0.2215
 1166ERGO    R215377   0.074   6.292   6.567 -0.0593 -0.0789 -0.1735
 1166ERGO    R315378   0.169   6.144   6.774  0.0549 -0.0102 -0.1767
 1166ERGO    R415379   0.100   6.403   6.893 -0.1994 -0.0825 -0.1607
 1166ERGO    R515380   0.292   6.300   6.907 -0.1046  0.0933 -0.1485
 1166ERGO    C115381   0.205   6.328   7.278 -0.1738 -0.0201 -0.1563
 1166ERGO    C215382   0.275   6.233   7.597  0.2033  0.0249 -0.0457
 1167ERGO   ROH15383   4.311   7.327   6.667 -0.0236  0.0503 -0.0756
 1167ERGO    R115384   4.111   7.461   6.816  0.0784  0.1740 -0.0490
 1167ERGO    R215385   4.037   7.382   7.070 -0.1183  0.0572 -0.1420
 1167ERGO    R315386   4.093   7.640   7.133  0.1718 -0.0560  0.0893
 1167ERGO    R415387   3.930   7.544   7.357 -0.2466  0.0211 -0.1685
 1167ERGO    R515388   3.893   7.721   7.236  0.1509  0.1567 -0.1081
 1167ERGO    C115389   3.922   7.880   7.582 -0.0491 -0.1061  0.0333
 1167ERGO    C215390   3.858   8.033   7.908  0.0660 -0.3700 -0.0804
 1168ERGO   ROH15391  12.076  10.343  10.547 -0.1848 -0.3144  0.1217
 1168ERGO    R115392  12.182  10.408  10.293 -0.2256 -0.1634  0.1425
 1168ERGO    R215393  12.209  10.221  10.091 -0.0296 -0.1003  0.1106
 1168ERGO    R315394  12.065  10.402   9.948 -0.1929 -0.2100  0.1316
 1168ERGO    R415395  12.161  10.208   9.749  0.2651  0.0725  0.0585
 1168ERGO    R515396  12.187  10.425   9.743 -0.0564  0.1244  0.2410
 1168ERGO    C115397  11.997  10.371   9.416  0.2835  0.0700  0.0477
 1168ERGO    C215398  12.052  10.395   9.125 -0.3728  0.0058 -0.2049
 1169ERGO   ROH15399  10.530   8.438   6.818 -0.2539  0.2364 -0.0285
 1169ERGO    R115400  10.539   8.391   7.097 -0.0977  0.0999 -0.0551
 1169ERGO    R215401  10.491   8.589   7.283  0.0088  0.0095  0.0694
 1169ERGO    R315402  10.307   8.412   7.376  0.0590 -0.0333  0.0881
 1169ERGO    R415403  10.466   8.484   7.611 -0.1119  0.2274  0.1323
 1169ERGO    R515404  10.425   8.283   7.539  0.0469  0.1493  0.2481
 1169ERGO    C115405  10.279   8.257   7.890 -0.1351  0.3139  0.1864
 1169ERGO    C215406  10.216   8.270   8.146 -0.1836  0.0442 -0.3235
 1170ERGO   ROH15407   5.018   4.262   6.414 -0.1543 -0.0831 -0.0201
 1170ERGO    R115408   4.999   4.277   6.696 -0.0612 -0.1190 -0.0116
 1170ERGO    R215409   5.201   4.383   6.854 -0.0856  0.0328 -0.0787
 1170ERGO    R315410   5.000   4.540   6.947 -0.1794 -0.1351  0.0059
 1170ERGO    R415411   5.225   4.594   7.126 -0.1686  0.0072 -0.0516
 1170ERGO    R515412   5.024   4.533   7.185 -0.1057 -0.1553 -0.0027
 1170ERGO    C115413   5.050   4.864   7.373 -0.3049 -0.1652  0.0435
 1170ERGO    C215414   5.111   5.123   7.390  0.0924 -0.0314  0.0356
 1171ERGO   ROH15415   1.013   2.913   9.749 -0.0981  0.0274  0.0274
 1171ERGO    R115416   1.035   3.068   9.513  0.2489 -0.0295  0.0175
 1171ERGO    R215417   1.209   3.003   9.308  0.1796 -0.3781  0.0598
 1171ERGO    R315418   0.984   3.016   9.156  0.2286  0.0343  0.0120
 1171ERGO    R415419   1.204   3.031   8.964  0.2957 -0.3241  0.0625
 1171ERGO    R515420   1.038   3.171   8.982  0.5335 -0.0357  0.0433
 1171ERGO    C115421   0.990   3.060   8.621  0.4094  0.0944  0.0191
 1171ERGO    C215422   1.075   2.923   8.292 -0.0923 -0.0731  0.1233
 1172ERGO   ROH15423   1.848   8.559   9.473  0.0582 -0.0820 -0.0898
 1172ERGO    R115424   1.889   8.455   9.213 -0.0474 -0.0659 -0.1131
 1172ERGO    R215425   1.680   8.379   9.048 -0.1226  0.1373 -0.1112
 1172ERGO    R315426   1.801   8.550   8.873  0.0037  0.0732 -0.0889
 1172ERGO    R415427   1.619   8.391   8.708  0.0044  0.1171 -0.1358
 1172ERGO    R515428   1.832   8.420   8.675  0.0291  0.0359 -0.0618
 1172ERGO    C115429   1.696   8.558   8.346  0.1970  0.0452 -0.1291
 1172ERGO    C215430   1.862   8.626   8.084 -0.1501  0.0944 -0.1528
 1173ERGO   ROH15431  10.200   2.402  10.367 -0.0890 -0.1310 -0.0083
 1173ERGO    R115432  10.055   2.422  10.125 -0.0965 -0.2746 -0.0173
 1173ERGO    R215433  10.040   2.657   9.979 -0.4218 -0.2495  0.0456
 1173ERGO    R315434  10.130   2.499   9.777 -0.1687 -0.0681  0.0122
 1173ERGO    R415435   9.951   2.691   9.647 -0.3045 -0.1931  0.0198
 1173ERGO    R515436   9.941   2.474   9.632 -0.0770 -0.1972 -0.0842
 1173ERGO    C115437   9.984   2.562   9.264  0.0015  0.0100 -0.0265
 1173ERGO    C215438   9.940   2.589   8.865  0.0025 -0.1438  0.0082
 1174ERGO   ROH15439   0.400  15.263   6.009 -0.1353 -0.0804 -0.0037
 1174ERGO    R115440   0.423  15.467   6.205  0.0794 -0.2195  0.1177
 1174ERGO    R215441   0.216  15.639   6.266  0.3565  0.1667 -0.0121
 1174ERGO    R315442   0.261  15.551   6.519 -0.0706 -0.0503 -0.0011
 1174ERGO    R415443   0.078  15.778   6.551  0.3609  0.3349 -0.0902
 1174ERGO    R515444   0.270  15.751   6.651  0.2221 -0.1146  0.0913
 1174ERGO    C115445   0.041  15.777   6.954 -0.0373  0.2291 -0.1253
 1174ERGO    C215446  -0.230  15.877   7.143 -0.1591 -0.0056  0.1140
 1175ERGO   ROH15447   4.100  14.599   6.274  0.1311  0.0578 -0.0404
 1175ERGO    R115448   4.240  14.628   6.519  0.0434 -0.1667  0.0382
 1175ERGO    R215449   4.260  14.870   6.650  0.3344 -0.2009  0.0609
 1175ERGO    R315450   4.158  14.728   6.859  0.0048 -0.0644 -0.0002
 1175ERGO    R415451   4.183  15.002   6.961  0.5254 -0.1294  0.0790
 1175ERGO    R515452   4.265  14.822   7.052  0.1529 -0.3236  0.0496
 1175ERGO    C115453   4.043  14.946   7.337  0.3272  0.0404  0.0321
 1175ERGO    C215454   4.041  15.080   7.667  0.1321 -0.1405 -0.0463
 1176ERGO   ROH15455  17.140  11.636   6.247  0.0187 -0.0020 -0.1225
 1176ERGO    R115456  17.105  11.547   6.513  0.0885  0.0287 -0.1027
 1176ERGO    R215457  17.183  11.295   6.597  0.1219  0.0417 -0.0907
 1176ERGO    R315458  17.320  11.435   6.785  0.1616  0.0727 -0.1426
 1176ERGO    R415459  17.329  11.158   6.879  0.0512  0.1129 -0.0186
 1176ERGO    R515460  17.261  11.331   6.992  0.1085  0.1877 -0.1002
 1176ERGO    C115461  17.543  11.210   7.219  0.0470  0.1835 -0.0255
 1176ERGO    C215462  17.789  11.200   7.409  0.0845  0.1837  0.2309
 1177ERGO   ROH15463   5.086   2.083  10.518  0.1271  0.2377 -0.0717
 1177ERGO    R115464   5.087   2.131  10.239  0.1097  0.0065 -0.1132
 1177ERGO    R215465   5.300   2.249  10.109  0.0420  0.0327 -0.2005
 1177ERGO    R315466   5.287   2.026   9.954  0.1885 -0.1073 -0.0176
 1177ERGO    R415467   5.394   2.234   9.777 -0.1160 -0.1322 -0.2400
 1177ERGO    R515468   5.221   2.108   9.739 -0.0091 -0.3441 -0.0515
 1177ERGO    C115469   5.437   2.017   9.438 -0.0705 -0.3596 -0.0913
 1177ERGO    C215470   5.538   1.967   9.039  0.0496  0.2580 -0.1575
 1178ERGO   ROH15471  13.882   1.781   6.624 -0.0709 -0.1167 -0.0186
 1178ERGO    R115472  14.083   1.741   6.819 -0.0600 -0.1231 -0.0303
 1178ERGO    R215473  14.088   1.879   7.058  0.0732  0.0267 -0.1148
 1178ERGO    R315474  14.097   1.629   7.165 -0.0703  0.0859  0.0382
 1178ERGO    R415475  14.265   1.791   7.342  0.0047  0.0989 -0.0497
 1178ERGO    R515476  14.322   1.605   7.243 -0.0900  0.0084  0.0679
 1178ERGO    C115477  14.377   1.506   7.607 -0.1700  0.1965  0.1320
 1178ERGO    C215478  14.482   1.375   7.883 -0.0636  0.0808  0.1149
 1179ERGO   ROH15479   6.049   6.110   6.688 -0.0291 -0.2536 -0.0105
 1179ERGO    R115480   6.023   5.896   6.871 -0.0990 -0.1825  0.0640
 1179ERGO    R215481   6.162   5.885   7.109 -0.1852 -0.0932  0.1188
 1179ERGO    R315482   5.914   5.853   7.215 -0.2242 -0.0467  0.0423
 1179ERGO    R415483   6.098   5.795   7.436 -0.2996 -0.1594  0.0785
 1179ERGO    R515484   5.936   5.667   7.364 -0.3193 -0.0931  0.0005
 1179ERGO    C115485   5.827   5.713   7.727 -0.4028 -0.1543 -0.0168
 1179ERGO    C215486   5.816   5.740   8.042 -0.1697 -0.1453  0.1874
 1180ERGO   ROH15487   4.064   1.957  10.241 -0.3037 -0.1752 -0.0110
 1180ERGO    R115488   4.007   2.093   9.999 -0.2371 -0.1966 -0.0416
 1180ERGO    R215489   4.199   2.139   9.806 -0.1042  0.0374  0.1210
 1180ERGO    R315490   4.019   2.017   9.644  0.1598 -0.1415 -0.0406
 1180ERGO    R415491   4.227   2.117   9.463  0.0759  0.2674  0.1203
 1180ERGO    R515492   4.013   2.155   9.448  0.0370 -0.0510  0.0401
 1180ERGO    C115493   4.075   1.990   9.110  0.4286  0.2335 -0.0318
 1180ERGO    C215494   4.214   1.974   8.815 -0.2203 -0.0287  0.1575
 1181ERGO   ROH15495   2.703   1.417   9.996 -0.4305 -0.1142 -0.0525
 1181ERGO    R115496   2.888   1.514   9.805 -0.4339  0.0548  0.0270
 1181ERGO    R215497   3.100   1.362   9.714 -0.2276  0.2597  0.1466
 1181ERGO    R315498   2.995   1.421   9.470 -0.1733  0.1217  0.0896
 1181ERGO    R415499   3.276   1.357   9.416 -0.1067  0.3173  0.2164
 1181ERGO    R515500   3.170   1.538   9.356 -0.2162  0.2229  0.1307
 1181ERGO    C115501   3.279   1.409   9.013  0.0146  0.2214  0.2036
 1181ERGO    C215502   3.371   1.296   8.659 -0.0437 -0.2215 -0.0138
 1182ERGO   ROH15503   7.345   4.906   6.545 -0.2554 -0.1263 -0.0517
 1182ERGO    R115504   7.318   4.879   6.825 -0.3263 -0.2810 -0.0714
 1182ERGO    R215505   7.283   4.634   6.950  0.2175 -0.4249 -0.1680
 1182ERGO    R315506   7.500   4.712   7.093 -0.0308  0.0737 -0.0437
 1182ERGO    R415507   7.369   4.513   7.261  0.3553 -0.2743 -0.1470
 1182ERGO    R515508   7.425   4.714   7.320 -0.1530 -0.1428 -0.0813
 1182ERGO    C115509   7.624   4.516   7.577  0.2025  0.2814 -0.0182
 1182ERGO    C215510   7.691   4.268   7.849 -0.1914  0.1843  0.2262
 1183ERGO   ROH15511  12.265   6.042   6.952 -0.2670 -0.0437  0.0126
 1183ERGO    R115512  12.124   6.037   7.197 -0.2397  0.0635  0.0306
 1183ERGO    R215513  12.217   5.902   7.419 -0.2485  0.1049  0.0569
 1183ERGO    R315514  12.185   6.144   7.540 -0.1737  0.1475 -0.0064
 1183ERGO    R415515  12.265   5.963   7.756 -0.4294  0.1300  0.0794
 1183ERGO    R515516  12.089   6.092   7.753 -0.3479  0.2431 -0.0583
 1183ERGO    C115517  12.262   6.225   8.065 -0.4644  0.1845  0.0330
 1183ERGO    C215518  12.431   6.325   8.272 -0.1694  0.0456  0.1535
 1184ERGO   ROH15519   2.953   7.627   6.034 -0.0636  0.4127 -0.1910
 1184ERGO    R115520   2.860   7.600   6.300 -0.0895  0.1887 -0.2204
 1184ERGO    R215521   2.806   7.817   6.462  0.0534  0.0559  0.0152
 1184ERGO    R315522   2.563   7.697   6.488 -0.0296  0.1900 -0.1266
 1184ERGO    R415523   2.570   7.899   6.701  0.1092 -0.0617  0.1107
 1184ERGO    R515524   2.528   7.686   6.724 -0.0366 -0.0627 -0.1379
 1184ERGO    C115525   2.205   7.833   6.864  0.0636 -0.0042  0.0333
 1184ERGO    C215526   1.956   7.692   7.025  0.1282 -0.0985  0.0829
 1185ERGO   ROH15527   7.770   7.015   6.455 -0.0201 -0.0702 -0.0469
 1185ERGO    R115528   7.867   7.168   6.672 -0.0354 -0.0289 -0.0688
 1185ERGO    R215529   7.702   7.271   6.868 -0.0366 -0.0849 -0.0396
 1185ERGO    R315530   7.872   7.139   7.035  0.0432 -0.0191 -0.0691
 1185ERGO    R415531   7.694   7.289   7.213 -0.0704 -0.1953 -0.0341
 1185ERGO    R515532   7.912   7.294   7.213 -0.0737 -0.0458 -0.0196
 1185ERGO    C115533   7.849   7.177   7.570 -0.0151 -0.1978 -0.0586
 1185ERGO    C215534   7.810   7.116   7.870  0.1665  0.1860  0.0431
 1186ERGO   ROH15535   0.674  10.465   5.620  0.0770  0.2541  0.0980
 1186ERGO    R115536   0.577  10.487   5.884 -0.0240  0.1014  0.0749
 1186ERGO    R215537   0.313  10.550   5.941 -0.0796 -0.0804  0.0113
 1186ERGO    R315538   0.325  10.321   6.089  0.0094 -0.1248 -0.0628
 1186ERGO    R415539   0.086  10.460   6.186  0.0177 -0.1859  0.0643
 1186ERGO    R515540   0.252  10.388   6.307  0.0753 -0.1985 -0.0151
 1186ERGO    C115541  -0.035  10.194   6.467  0.1579 -0.2889  0.0256
 1186ERGO    C215542  -0.336  10.066   6.500  0.3474 -0.0550 -0.0903
 1187ERGO   ROH15543   3.100   2.911   9.961  0.0618  0.0920  0.0778
 1187ERGO    R115544   3.245   2.977   9.727  0.1278  0.0199  0.0973
 1187ERGO    R215545   3.391   2.791   9.584  0.0110 -0.0664  0.0860
 1187ERGO    R315546   3.240   2.879   9.376  0.0871  0.0644  0.0859
 1187ERGO    R415547   3.477   2.760   9.251 -0.0577 -0.2217  0.0821
 1187ERGO    R515548   3.400   2.961   9.218  0.1622 -0.1411  0.0544
 1187ERGO    C115549   3.386   2.824   8.862 -0.0263 -0.1893  0.0797
 1187ERGO    C215550   3.615   2.620   8.690 -0.0489 -0.0049 -0.0284
 1188ERGO   ROH15551  14.185  13.528   6.689 -0.0463 -0.0977 -0.0143
 1188ERGO    R115552  14.321  13.387   6.894 -0.1632 -0.2238 -0.0223
 1188ERGO    R215553  14.481  13.513   7.080  0.1582 -0.3929 -0.1756
 1188ERGO    R315554  14.321  13.384   7.257  0.0367 -0.0376 -0.0194
 1188ERGO    R415555  14.581  13.398   7.390  0.0721 -0.2043 -0.0767
 1188ERGO    R515556  14.462  13.219   7.357 -0.1378 -0.1037  0.1204
 1188ERGO    C115557  14.488  13.211   7.738 -0.0920  0.2389  0.1276
 1188ERGO    C215558  14.660  13.217   8.040 -0.1112 -0.1661  0.0795
 1189ERGO   ROH15559  13.902  13.895   6.604  0.0608 -0.0047  0.1695
 1189ERGO    R115560  13.978  13.922   6.875  0.0508  0.0483  0.1672
 1189ERGO    R215561  13.819  13.836   7.084  0.0953 -0.0222  0.1740
 1189ERGO    R315562  14.042  13.698   7.155  0.1672  0.0936  0.1770
 1189ERGO    R415563  13.882  13.711   7.400  0.0203 -0.2525  0.0999
 1189ERGO    R515564  14.090  13.772   7.377 -0.0159 -0.0648  0.2701
 1189ERGO    C115565  14.128  13.508   7.650  0.0443 -0.2778  0.0595
 1189ERGO    C215566  14.012  13.333   7.940  0.1899 -0.2253  0.2571
 1190ERGO   ROH15567  12.786   3.913   6.909  0.0887 -0.1523  0.0788
 1190ERGO    R115568  12.863   3.762   7.136  0.0489 -0.1736  0.0792
 1190ERGO    R215569  13.079   3.831   7.294  0.1064 -0.2655  0.0460
 1190ERGO    R315570  12.895   3.821   7.494  0.1275 -0.1618  0.0701
 1190ERGO    R415571  13.139   3.708   7.611  0.1088 -0.2048  0.0682
 1190ERGO    R515572  12.942   3.615   7.607  0.0809 -0.1474  0.1149
 1190ERGO    C115573  13.002   3.626   7.983  0.1302 -0.0722  0.1037
 1190ERGO    C215574  13.240   3.521   8.211  0.2080  0.1908 -0.0692
 1191ERGO   ROH15575   5.382  10.951   8.002  0.0150 -0.2240 -0.0761
 1191ERGO    R115576   5.192  11.102   7.856  0.0526 -0.0808  0.0214
 1191ERGO    R215577   4.990  10.985   7.708  0.0783  0.0627 -0.1307
 1191ERGO    R315578   4.831  11.145   7.859  0.0539 -0.0675 -0.0153
 1191ERGO    R415579   4.645  10.993   7.691  0.0813  0.0795 -0.1827
 1191ERGO    R515580   4.654  11.209   7.710  0.0797  0.0642  0.0096
 1191ERGO    C115581   4.295  11.148   7.822  0.0600 -0.0330 -0.1048
 1191ERGO    C215582   3.987  11.082   7.957 -0.0626  0.1520 -0.1852
 1192ERGO   ROH15583   8.764   1.435   7.099  0.0901 -0.0528  0.0754
 1192ERGO    R115584   8.751   1.365   7.373  0.2857  0.0729  0.1191
 1192ERGO    R215585   8.797   1.547   7.575 -0.0742  0.3007  0.0087
 1192ERGO    R315586   8.553   1.465   7.662  0.1074 -0.1836  0.0882
 1192ERGO    R415587   8.679   1.591   7.896 -0.3448  0.7845 -0.1468
 1192ERGO    R515588   8.594   1.390   7.887  0.2311  0.4906  0.3115
 1192ERGO    C115589   8.381   1.539   8.166 -0.3317  0.6117 -0.1627
 1192ERGO    C215590   8.163   1.468   8.472 -0.0955 -0.3355  0.0513
 1193ERGO   ROH15591   7.252  16.213   7.127 -0.0041  0.0743 -0.1144
 1193ERGO    R115592   6.977  16.231   7.192 -0.0007  0.0450 -0.0981
 1193ERGO    R215593   6.828  16.011   7.268  0.0437  0.0423 -0.0460
 1193ERGO    R315594   6.770  16.165   7.485  0.0253  0.0731 -0.0704
 1193ERGO    R415595   6.608  15.924   7.521  0.2319 -0.0621  0.0859
 1193ERGO    R515596   6.537  16.130   7.523  0.0637 -0.1090  0.0484
 1193ERGO    C115597   6.427  16.019   7.871  0.3242 -0.0941  0.1399
 1193ERGO    C215598   6.389  16.062   8.251  0.1103 -0.1414 -0.1434
 1194ERGO   ROH15599   8.536   5.551   6.733  0.1231 -0.0096  0.0116
 1194ERGO    R115600   8.590   5.470   6.999  0.0246 -0.1205 -0.0005
 1194ERGO    R215601   8.610   5.650   7.208  0.3754 -0.1587  0.0096
 1194ERGO    R315602   8.421   5.491   7.321  0.1045  0.1633  0.0238
 1194ERGO    R415603   8.575   5.596   7.547  0.3731 -0.1962  0.0031
 1194ERGO    R515604   8.533   5.386   7.504 -0.0387 -0.1069 -0.0438
 1194ERGO    C115605   8.376   5.415   7.851  0.1174  0.0843  0.0127
 1194ERGO    C215606   8.294   5.633   8.101 -0.0319 -0.1905  0.1196
 1195ERGO   ROH15607   7.109  14.959   6.739  0.3219  0.0441 -0.0170
 1195ERGO    R115608   7.235  14.935   6.992  0.1330  0.1030  0.0843
 1195ERGO    R215609   7.256  15.147   7.169 -0.0338  0.1341  0.0665
 1195ERGO    R315610   7.137  14.972   7.340 -0.1394  0.1444  0.0059
 1195ERGO    R415611   7.222  15.196   7.509 -0.3104  0.1874  0.0349
 1195ERGO    R515612   7.269  14.986   7.539 -0.2977  0.2011  0.1090
 1195ERGO    C115613   7.092  15.061   7.869 -0.5706  0.2281 -0.0404
 1195ERGO    C215614   7.203  15.209   8.235 -0.1491 -0.0221  0.1772
 1196ERGO   ROH15615  11.292  14.557   6.821  0.2770  0.3328  0.1152
 1196ERGO    R115616  11.163  14.472   7.058  0.0791  0.2234 -0.0289
 1196ERGO    R215617  11.295  14.336   7.259 -0.0926  0.1139  0.0109
 1196ERGO    R315618  11.196  14.536   7.414 -0.2028  0.0431  0.0335
 1196ERGO    R415619  11.201  14.302   7.590 -0.0387  0.0311  0.0178
 1196ERGO    R515620  11.030  14.430   7.550 -0.1244 -0.0719  0.0427
 1196ERGO    C115621  11.054  14.469   7.928 -0.1106 -0.0835  0.0430
 1196ERGO    C215622  10.990  14.420   8.222  0.2339  0.3261  0.0880
 1197ERGO   ROH15623  13.084  11.352   6.622  0.1846  0.0939 -0.0077
 1197ERGO    R115624  13.077  11.342   6.905  0.2606 -0.0235 -0.0098
 1197ERGO    R215625  13.293  11.414   7.062  0.1890  0.2421 -0.0325
 1197ERGO    R315626  13.111  11.579   7.179 -0.0362 -0.0712  0.0722
 1197ERGO    R415627  13.315  11.535   7.385  0.1479  0.2456 -0.0307
 1197ERGO    R515628  13.100  11.504   7.406  0.2021 -0.1184  0.0723
 1197ERGO    C115629  13.157  11.760   7.683 -0.0874 -0.0466  0.0687
 1197ERGO    C215630  13.282  11.839   7.966 -0.1110 -0.1707  0.0635
 1198ERGO   ROH15631  13.646  10.057  10.251 -0.1006  0.0916  0.0724
 1198ERGO    R115632  13.584   9.935  10.003 -0.0078  0.0315  0.0788
 1198ERGO    R215633  13.437  10.063   9.807 -0.1831 -0.1217  0.1096
 1198ERGO    R315634  13.652  10.001   9.652 -0.1389  0.1204  0.0687
 1198ERGO    R415635  13.427  10.017   9.465 -0.1940 -0.1115  0.1081
 1198ERGO    R515636  13.565   9.849   9.488 -0.0056  0.0336  0.0746
 1198ERGO    C115637  13.622   9.931   9.120 -0.1588  0.1218  0.0689
 1198ERGO    C215638  13.636   9.951   8.777  0.1846 -0.0878 -0.0445
 1199ERGO   ROH15639   9.790   6.497   6.682  0.0716 -0.0009  0.1929
 1199ERGO    R115640   9.907   6.413   6.926  0.1263  0.0387  0.1802
 1199ERGO    R215641   9.986   6.591   7.122  0.0369  0.0625  0.1944
 1199ERGO    R315642   9.827   6.437   7.280  0.1261 -0.0398  0.1858
 1199ERGO    R415643  10.056   6.506   7.449 -0.0153  0.2681  0.2607
 1199ERGO    R515644   9.981   6.305   7.408  0.2097  0.1699  0.3066
 1199ERGO    C115645   9.948   6.312   7.788  0.0381  0.2918  0.2912
 1199ERGO    C215646  10.009   6.308   8.066  0.0299  0.1031  0.2209
 1200ERGO   ROH15647  11.097   6.412   6.747 -0.1576  0.0029  0.0505
 1200ERGO    R115648  11.052   6.431   7.026 -0.1130 -0.0198  0.0589
 1200ERGO    R215649  10.956   6.220   7.176 -0.0411 -0.0454  0.0642
 1200ERGO    R315650  11.178   6.269   7.326 -0.0267 -0.0063  0.0311
 1200ERGO    R415651  10.995   6.130   7.507  0.0024 -0.0006  0.0718
 1200ERGO    R515652  11.092   6.321   7.543 -0.0086  0.0151  0.0354
 1200ERGO    C115653  11.225   6.123   7.841  0.0413  0.0622  0.0452
 1200ERGO    C215654  11.183   6.032   8.129 -0.0475  0.1513  0.1166
 1201ERGO   ROH15655   2.662  13.876   6.447 -0.1090  0.1093 -0.0387
 1201ERGO    R115656   2.668  13.968   6.714  0.0767  0.0286 -0.0134
 1201ERGO    R215657   2.440  13.991   6.869  0.1457  0.2463  0.0611
 1201ERGO    R315658   2.580  13.835   7.041  0.0222  0.0342 -0.0262
 1201ERGO    R415659   2.378  13.965   7.208  0.1942  0.1816  0.0652
 1201ERGO    R515660   2.593  13.964   7.243  0.2010 -0.0546  0.0199
 1201ERGO    C115661   2.474  13.802   7.567  0.1065 -0.0552 -0.0145
 1201ERGO    C215662   2.461  13.603   7.828 -0.1188  0.2654 -0.2622
 1202ERGO   ROH15663   1.645  11.525   6.132  0.2364 -0.1283  0.2699
 1202ERGO    R115664   1.440  11.584   6.318  0.2005  0.1217  0.1544
 1202ERGO    R215665   1.334  11.394   6.488 -0.1600  0.2384  0.0639
 1202ERGO    R315666   1.401  11.575   6.679 -0.0326  0.1221  0.1317
 1202ERGO    R415667   1.159  11.446   6.781 -0.0828  0.1926  0.1190
 1202ERGO    R515668   1.191  11.660   6.757  0.0196  0.1914  0.2067
 1202ERGO    C115669   1.119  11.646   7.132  0.0817  0.0567  0.2147
 1202ERGO    C215670   0.995  11.504   7.467  0.0381  0.3903 -0.1363
 1203ERGO   ROH15671  12.925  13.513   6.728 -0.0259  0.1488 -0.1026
 1203ERGO    R115672  12.898  13.708   6.932 -0.1667  0.0900 -0.0637
 1203ERGO    R215673  12.687  13.708   7.111 -0.1351 -0.1356 -0.0203
 1203ERGO    R315674  12.886  13.711   7.295 -0.0982  0.0148 -0.0614
 1203ERGO    R415675  12.661  13.845   7.427 -0.1616 -0.1381 -0.0216
 1203ERGO    R515676  12.863  13.923   7.404 -0.2226  0.0029 -0.0672
 1203ERGO    C115677  12.833  13.927   7.784 -0.1424  0.0017 -0.0608
 1203ERGO    C215678  12.583  13.893   8.070 -0.1716  0.0565 -0.0462
 1204ERGO   ROH15679   6.264  10.455   9.938 -0.1253 -0.0914 -0.0349
 1204ERGO    R115680   6.428  10.409   9.712 -0.0929 -0.0744 -0.0143
 1204ERGO    R215681   6.368  10.220   9.520 -0.1163  0.0079 -0.0865
 1204ERGO    R315682   6.393  10.431   9.351 -0.0082  0.0535 -0.0161
 1204ERGO    R415683   6.404  10.195   9.178 -0.3672  0.1045 -0.1226
 1204ERGO    R515684   6.550  10.357   9.186 -0.1900 -0.0473 -0.1496
 1204ERGO    C115685   6.448  10.378   8.819 -0.4119  0.2034 -0.0776
 1204ERGO    C215686   6.374  10.317   8.535  0.0332 -0.2844 -0.0276
 1205ERGO   ROH15687   1.090   4.795   5.947 -0.0059 -0.0900 -0.0651
 1205ERGO    R115688   1.254   4.807   6.177  0.0267 -0.1108 -0.0860
 1205ERGO    R215689   1.258   5.026   6.346  0.2241 -0.0233 -0.1919
 1205ERGO    R315690   1.205   4.839   6.537  0.0818  0.1116 -0.0983
 1205ERGO    R415691   1.205   5.094   6.681 -0.1167  0.2138 -0.2890
 1205ERGO    R515692   1.322   4.917   6.730 -0.1266  0.2796 -0.0409
 1205ERGO    C115693   1.125   4.958   7.054 -0.4487  0.4785 -0.2576
 1205ERGO    C215694   1.079   4.821   7.385  0.1864 -0.2324 -0.1663
 1206ERGO   ROH15695   8.257  16.429   6.767  0.1025 -0.1076  0.1806
 1206ERGO    R115696   8.192  16.507   7.032  0.2112 -0.2313  0.2426
 1206ERGO    R215697   8.383  16.532   7.231  0.4048  0.3622 -0.0106
 1206ERGO    R315698   8.277  16.781   7.255 -0.2896  0.0850  0.0661
 1206ERGO    R415699   8.294  16.682   7.529  0.6357  0.2499  0.1197
 1206ERGO    R515700   8.117  16.762   7.431  0.1436 -0.3144  0.4550
 1206ERGO    C115701   8.142  17.004   7.725  0.1181 -0.0759  0.2677
 1206ERGO    C215702   8.082  17.196   7.898  0.0558  0.0681  0.1285
 1207ERGO   ROH15703  16.597  12.502   9.504  0.1054  0.0171 -0.0432
 1207ERGO    R115704  16.493  12.641   9.281  0.0514  0.0381 -0.0045
 1207ERGO    R215705  16.629  12.663   9.042  0.0133  0.1006 -0.0187
 1207ERGO    R315706  16.400  12.560   8.939  0.0152  0.0825 -0.0060
 1207ERGO    R415707  16.546  12.662   8.706  0.0639 -0.0331 -0.0318
 1207ERGO    R515708  16.341  12.710   8.762  0.0593  0.0158 -0.0805
 1207ERGO    C115709  16.282  12.565   8.414  0.0951 -0.1281 -0.0276
 1207ERGO    C215710  16.109  12.421   8.284  0.0503  0.0592 -0.0579
 1208ERGO   ROH15711  16.467   1.337   6.760 -0.1893 -0.1461  0.0032
 1208ERGO    R115712  16.430   1.462   7.011 -0.0768 -0.0401 -0.0322
 1208ERGO    R215713  16.317   1.332   7.227 -0.0441  0.0730  0.0521
 1208ERGO    R315714  16.545   1.411   7.352  0.0159  0.0596 -0.0476
 1208ERGO    R415715  16.396   1.264   7.557  0.1111  0.0361  0.0083
 1208ERGO    R515716  16.476   1.466   7.574  0.1199  0.0355 -0.0075
 1208ERGO    C115717  16.657   1.298   7.866  0.2580  0.0021 -0.1109
 1208ERGO    C215718  16.774   1.066   7.988 -0.2532 -0.3721  0.1525
 1209ERGO   ROH15719   0.369  13.389   6.214  0.2209  0.2610 -0.0317
 1209ERGO    R115720   0.522  13.390   6.452  0.0488  0.1359  0.0817
 1209ERGO    R215721   0.479  13.572   6.657 -0.0662  0.0586  0.1243
 1209ERGO    R315722   0.458  13.347   6.808 -0.2163  0.0013  0.0206
 1209ERGO    R415723   0.491  13.563   7.002  0.1774 -0.1295  0.1139
 1209ERGO    R515724   0.610  13.382   6.989 -0.0387 -0.2665 -0.0691
 1209ERGO    C115725   0.478  13.347   7.345  0.1782 -0.2929  0.0106
 1209ERGO    C215726   0.390  13.273   7.648  0.0653  0.3204 -0.0740
 1210ERGO   ROH15727  11.311   3.466   6.898 -0.1380 -0.2746 -0.2883
 1210ERGO    R115728  11.497   3.388   7.096 -0.0580 -0.1221 -0.3010
 1210ERGO    R215729  11.431   3.216   7.302  0.0147  0.0625 -0.1197
 1210ERGO    R315730  11.645   3.075   7.210 -0.0417 -0.0404 -0.0947
 1210ERGO    R415731  11.633   3.014   7.496  0.1291  0.2753 -0.0147
 1210ERGO    R515732  11.806   3.090   7.387  0.0650  0.1553 -0.2038
 1210ERGO    C115733  11.951   2.765   7.524  0.1426  0.3026  0.0699
 1210ERGO    C215734  11.920   2.614   7.812 -0.2817 -0.1565 -0.3077
 1211ERGO   ROH15735   2.207   6.263   6.057  0.2416 -0.0604 -0.0763
 1211ERGO    R115736   2.068   6.232   6.302  0.0988  0.1346 -0.1286
 1211ERGO    R215737   2.128   6.031   6.483 -0.3200 -0.0222 -0.1443
 1211ERGO    R315738   2.153   6.239   6.656  0.0000 -0.0929 -0.1006
 1211ERGO    R415739   2.046   6.021   6.818 -0.3983  0.0640 -0.1612
 1211ERGO    R515740   1.963   6.221   6.799 -0.0561  0.2076 -0.1393
 1211ERGO    C115741   2.022   6.211   7.176 -0.1435  0.0479 -0.1301
 1211ERGO    C215742   2.089   6.261   7.473 -0.1239  0.0867  0.1474
 1212ERGO   ROH15743  13.434   5.177   6.688 -0.0492  0.0507  0.0187
 1212ERGO    R115744  13.421   5.300   6.943  0.0057 -0.0424  0.0657
 1212ERGO    R215745  13.379   5.155   7.175  0.1405 -0.1354  0.0279
 1212ERGO    R315746  13.607   5.281   7.255  0.1282 -0.0873 -0.0082
 1212ERGO    R415747  13.474   5.203   7.504  0.2239 -0.2023  0.0146
 1212ERGO    R515748  13.543   5.402   7.451  0.1468 -0.1621  0.0485
 1212ERGO    C115749  13.743   5.348   7.770  0.2608 -0.1962 -0.0270
 1212ERGO    C215750  14.047   5.311   7.923  0.2967  0.3338 -0.0328
 1213ERGO   ROH15751   8.216   8.235   6.581 -0.0503 -0.1047 -0.0661
 1213ERGO    R115752   8.128   8.012   6.730 -0.0425 -0.0317  0.0493
 1213ERGO    R215753   8.046   8.031   6.993 -0.1135  0.1136  0.0188
 1213ERGO    R315754   7.822   7.910   6.899 -0.0648  0.0110  0.0337
 1213ERGO    R415755   7.801   7.889   7.190 -0.0594  0.0395  0.0332
 1213ERGO    R515756   7.787   7.725   7.047  0.0070  0.0165  0.0558
 1213ERGO    C115757   7.447   7.692   7.216  0.0178 -0.1000  0.0556
 1213ERGO    C215758   7.283   7.633   7.466  0.0182 -0.0280 -0.0523
 1214ERGO   ROH15759  12.796   0.751  10.262  0.0029 -0.1930 -0.0501
 1214ERGO    R115760  12.620   0.654  10.062  0.0595 -0.2054 -0.0942
 1214ERGO    R215761  12.411   0.803   9.963  0.0141 -0.2559 -0.0766
 1214ERGO    R315762  12.527   0.748   9.723  0.0608 -0.1500 -0.0788
 1214ERGO    R415763  12.243   0.790   9.660  0.0486 -0.2712 -0.0952
 1214ERGO    R515764  12.364   0.616   9.607  0.1346 -0.2020 -0.1218
 1214ERGO    C115765  12.255   0.730   9.260  0.1125 -0.1807 -0.1079
 1214ERGO    C215766  12.236   0.849   8.963  0.3121 -0.0678 -0.3206
 1215ERGO   ROH15767   1.726  13.788   9.644 -0.0182  0.0595 -0.0229
 1215ERGO    R115768   1.623  13.785   9.381 -0.0609  0.0374 -0.0051
 1215ERGO    R215769   1.645  14.001   9.209 -0.0293 -0.0040 -0.0463
 1215ERGO    R315770   1.758  13.817   9.044 -0.1079 -0.0639 -0.0359
 1215ERGO    R415771   1.674  14.034   8.867 -0.1098 -0.0713 -0.0605
 1215ERGO    R515772   1.623  13.823   8.847 -0.1616 -0.0710 -0.0052
 1215ERGO    C115773   1.797  13.881   8.512 -0.2305 -0.1667 -0.0589
 1215ERGO    C215774   1.895  13.983   8.207 -0.0189  0.1105 -0.0006
 1216ERGO   ROH15775   2.158  13.149   9.856  0.0454 -0.0509 -0.2482
 1216ERGO    R115776   2.185  13.004   9.614 -0.0811 -0.0501 -0.2638
 1216ERGO    R215777   1.987  12.996   9.423 -0.1318  0.0557 -0.2181
 1216ERGO    R315778   2.186  13.081   9.259 -0.1298 -0.0288 -0.2592
 1216ERGO    R415779   1.992  12.953   9.080 -0.1427 -0.0876 -0.2005
 1216ERGO    R515780   2.205  12.908   9.094 -0.1470 -0.0984 -0.1874
 1216ERGO    C115781   2.182  13.007   8.726 -0.1471 -0.2504 -0.2289
 1216ERGO    C215782   1.968  12.983   8.435 -0.0803  0.1959  0.0856
 1217ERGO   ROH15783   5.770   8.688   6.422 -0.0469  0.2195 -0.0292
 1217ERGO    R115784   5.791   8.631   6.699 -0.1545  0.1218 -0.0401
 1217ERGO    R215785   5.980   8.751   6.861 -0.1704  0.0123  0.0621
 1217ERGO    R315786   5.762   8.817   7.010 -0.2001  0.0289  0.0114
 1217ERGO    R415787   5.973   8.763   7.207 -0.2094  0.1659  0.0568
 1217ERGO    R515788   5.774   8.673   7.201 -0.1868  0.1180  0.0773
 1217ERGO    C115789   5.765   8.832   7.547 -0.2601  0.2710  0.0061
 1217ERGO    C215790   5.680   8.857   7.933 -0.1648 -0.1411  0.3653
 1218ERGO   ROH15791   8.557  10.767   6.957 -0.2266 -0.0536  0.2479
 1218ERGO    R115792   8.586  10.853   7.225  0.0258 -0.0251  0.2142
 1218ERGO    R215793   8.416  10.771   7.426  0.0585  0.1948  0.3368
 1218ERGO    R315794   8.648  10.696   7.547  0.0574 -0.0227  0.2087
 1218ERGO    R415795   8.453  10.716   7.766  0.1536 -0.0398  0.2905
 1218ERGO    R515796   8.648  10.815   7.755  0.2080 -0.1530  0.2830
 1218ERGO    C115797   8.693  10.614   8.077  0.2079 -0.3804  0.1432
 1218ERGO    C215798   8.813  10.391   8.415  0.1284  0.1419  0.1062
 1219ERGO   ROH15799  13.545   8.270   6.873  0.1123 -0.1474  0.0244
 1219ERGO    R115800  13.525   8.271   7.155 -0.0168  0.1186  0.0166
 1219ERGO    R215801  13.283   8.250   7.287 -0.0527 -0.0401 -0.0755
 1219ERGO    R315802  13.407   8.043   7.413  0.1451  0.2350  0.1971
 1219ERGO    R415803  13.215   8.147   7.610 -0.4841 -0.1251 -0.1871
 1219ERGO    R515804  13.429   8.117   7.640 -0.4610  0.3306  0.2442
 1219ERGO    C115805  13.292   7.892   7.916 -0.5497  0.0837  0.0038
 1219ERGO    C215806  13.147   7.879   8.250 -0.2592 -0.1323  0.1690
 1220ERGO   ROH15807  10.995  17.773   7.072  0.2404 -0.0079  0.1218
 1220ERGO    R115808  11.139  17.879   7.293  0.1900  0.0450  0.1298
 1220ERGO    R215809  11.042  18.087   7.447  0.1627  0.0998  0.0425
 1220ERGO    R315810  11.085  17.912   7.651  0.0938  0.1527  0.1062
 1220ERGO    R415811  11.161  18.173   7.760  0.1034  0.1780  0.0437
 1220ERGO    R515812  11.283  17.993   7.758  0.0818  0.1590  0.1257
 1220ERGO    C115813  11.270  18.059   8.134  0.0042  0.2732  0.1041
 1220ERGO    C215814  11.464  18.179   8.422  0.0600 -0.0275  0.2434
 1221ERGO   ROH15815  16.052   7.993   6.544 -0.0494  0.1731 -0.0605
 1221ERGO    R115816  16.152   7.990   6.809  0.0550  0.2087 -0.0988
 1221ERGO    R215817  16.327   8.182   6.904 -0.1913  0.4319 -0.0863
 1221ERGO    R315818  16.139   8.210   7.098 -0.1647  0.0718 -0.0008
 1221ERGO    R415819  16.394   8.250   7.236 -0.1534  0.2491 -0.0556
 1221ERGO    R515820  16.238   8.110   7.292  0.0159  0.0261 -0.1103
 1221ERGO    C115821  16.257   8.317   7.612 -0.1061 -0.1954  0.0427
 1221ERGO    C215822  16.378   8.326   7.883  0.1777 -0.0420  0.0124
 1222ERGO   ROH15823  15.294  10.390   6.231  0.0542 -0.0521  0.1055
 1222ERGO    R115824  15.167  10.495   6.461 -0.0192 -0.1037  0.0890
 1222ERGO    R215825  15.265  10.456   6.716  0.0365  0.0435  0.0908
 1222ERGO    R315826  15.255  10.727   6.728 -0.1966  0.0396  0.0253
 1222ERGO    R415827  15.235  10.640   7.007  0.1194  0.0926  0.0685
 1222ERGO    R515828  15.098  10.773   6.903 -0.0914 -0.0564  0.1477
 1222ERGO    C115829  15.208  11.002   7.187 -0.0513  0.1175 -0.0059
 1222ERGO    C215830  15.174  11.005   7.492 -0.1688 -0.0213 -0.0299
 1223ERGO   ROH15831  15.973  11.083   6.081 -0.0340  0.1544  0.0384
 1223ERGO    R115832  16.018  10.991   6.345 -0.0062  0.1127  0.0195
 1223ERGO    R215833  16.269  10.925   6.439  0.0026  0.0710 -0.0251
 1223ERGO    R315834  16.207  11.102   6.636  0.0488  0.0528  0.0059
 1223ERGO    R415835  16.413  10.931   6.754  0.0640  0.0416 -0.0525
 1223ERGO    R515836  16.216  10.974   6.837  0.0861  0.0379 -0.0086
 1223ERGO    C115837  16.437  11.101   7.121  0.1430  0.0075 -0.0394
 1223ERGO    C215838  16.382  11.214   7.490  0.1495 -0.0909  0.2476
 1224ERGO   ROH15839  16.444  13.599   6.439  0.0313  0.0495 -0.1394
 1224ERGO    R115840  16.220  13.522   6.594  0.0400 -0.0673 -0.1838
 1224ERGO    R215841  16.231  13.318   6.780  0.1231 -0.0294 -0.1458
 1224ERGO    R315842  16.135  13.510   6.947 -0.0423 -0.0604 -0.2034
 1224ERGO    R415843  16.117  13.260   7.101  0.3865 -0.0004 -0.0447
 1224ERGO    R515844  15.955  13.402   7.064  0.1689 -0.2409 -0.0370
 1224ERGO    C115845  15.961  13.406   7.445  0.3848 -0.0126 -0.0399
 1224ERGO    C215846  15.870  13.619   7.734 -0.0623 -0.1918 -0.1142
 1225ERGO   ROH15847   3.719   5.170   6.691  0.0238  0.1266 -0.0557
 1225ERGO    R115848   3.728   5.315   6.935 -0.0493  0.0267  0.0089
 1225ERGO    R215849   3.578   5.245   7.156  0.0296 -0.1848  0.0052
 1225ERGO    R315850   3.820   5.246   7.280  0.0501 -0.0648 -0.0371
 1225ERGO    R415851   3.626   5.260   7.498  0.0937 -0.1484 -0.0061
 1225ERGO    R515852   3.793   5.395   7.464  0.0188 -0.0746 -0.0400
 1225ERGO    C115853   3.881   5.270   7.813  0.1502 -0.0146 -0.0524
 1225ERGO    C215854   3.836   5.413   8.131  0.0275  0.2278 -0.0886
 1226ERGO   ROH15855   1.432   9.672   9.585 -0.2441 -0.1421  0.0720
 1226ERGO    R115856   1.554   9.662   9.330 -0.1946  0.0577  0.0859
 1226ERGO    R215857   1.546   9.437   9.170  0.1025  0.0756  0.0376
 1226ERGO    R315858   1.444   9.610   8.987 -0.0862 -0.0078  0.0614
 1226ERGO    R415859   1.615   9.429   8.831  0.1591  0.2368  0.0451
 1226ERGO    R515860   1.624   9.647   8.833 -0.1097  0.2494  0.0941
 1226ERGO    C115861   1.560   9.588   8.462  0.0151  0.2524  0.0717
 1226ERGO    C215862   1.498   9.730   8.132 -0.2093  0.2633 -0.0083
 1227ERGO   ROH15863  16.994   5.957   5.989 -0.1822  0.0135  0.1391
 1227ERGO    R115864  16.935   5.858   6.247 -0.1071  0.1498  0.2099
 1227ERGO    R215865  17.043   5.624   6.346 -0.2705  0.0704  0.2053
 1227ERGO    R315866  17.120   5.785   6.551  0.0271  0.0592  0.1072
 1227ERGO    R415867  17.145   5.512   6.656 -0.3219  0.0665  0.2206
 1227ERGO    R515868  17.034   5.676   6.747 -0.0613  0.2676  0.1867
 1227ERGO    C115869  17.276   5.596   7.030 -0.0725  0.0536  0.1373
 1227ERGO    C215870  17.359   5.622   7.395 -0.1781 -0.2248  0.1227
 1228ERGO   ROH15871   2.869   5.067   6.135  0.1649 -0.0403  0.0431
 1228ERGO    R115872   2.925   5.135   6.403  0.0562  0.0716  0.0392
 1228ERGO    R215873   2.773   5.315   6.546 -0.1307 -0.0257 -0.0276
 1228ERGO    R315874   2.755   5.111   6.724  0.0159 -0.0045  0.0112
 1228ERGO    R415875   2.713   5.353   6.885 -0.0939 -0.0063 -0.0238
 1228ERGO    R515876   2.860   5.195   6.923 -0.0002  0.0854 -0.0215
 1228ERGO    C115877   2.662   5.182   7.249  0.0651  0.0249  0.0148
 1228ERGO    C215878   2.471   5.412   7.394  0.0857 -0.0263  0.1711
 1229ERGO   ROH15879   0.933   2.158   6.229  0.1075  0.0163 -0.0296
 1229ERGO    R115880   0.912   2.287   6.480  0.0181  0.0270 -0.0432
 1229ERGO    R215881   0.777   2.176   6.694  0.0276 -0.0061 -0.0604
 1229ERGO    R315882   1.013   2.218   6.823 -0.0117  0.0940 -0.0190
 1229ERGO    R415883   0.814   2.186   7.037  0.0136 -0.3796 -0.0428
 1229ERGO    R515884   0.953   2.353   7.012 -0.1615 -0.1909  0.1494
 1229ERGO    C115885   1.056   2.232   7.358 -0.0315 -0.5032  0.0064
 1229ERGO    C215886   0.921   2.079   7.687 -0.1366  0.1936  0.3894
 1230ERGO   ROH15887   3.954   6.469  10.268  0.0001 -0.0211  0.0773
 1230ERGO    R115888   3.975   6.503   9.988  0.0641 -0.0020  0.0834
 1230ERGO    R215889   4.152   6.681   9.873  0.0168  0.0886  0.1368
 1230ERGO    R315890   4.234   6.461   9.736  0.1579  0.1274  0.1597
 1230ERGO    R415891   4.267   6.683   9.547 -0.2295  0.0823  0.0488
 1230ERGO    R515892   4.157   6.498   9.512 -0.0489 -0.0497  0.2045
 1230ERGO    C115893   4.410   6.477   9.228 -0.2406  0.1151  0.0191
 1230ERGO    C215894   4.584   6.602   8.880 -0.0514  0.0761 -0.0855
 1231ERGO   ROH15895  10.596  12.347   6.887  0.2103  0.3834 -0.0638
 1231ERGO    R115896  10.650  12.200   7.123  0.2272  0.2514 -0.1499
 1231ERGO    R215897  10.878  12.240   7.274  0.1123  0.3513 -0.0069
 1231ERGO    R315898  10.699  12.276   7.476 -0.0237  0.0260 -0.0620
 1231ERGO    R415899  10.959  12.265   7.610 -0.0679  0.2018  0.0505
 1231ERGO    R515900  10.784  12.144   7.656  0.0302 -0.0156 -0.1143
 1231ERGO    C115901  10.837  12.314   7.993 -0.3005 -0.1905  0.0321
 1231ERGO    C215902  10.771  12.502   8.325 -0.3547  0.3195  0.2369
 1232ERGO   ROH15903   2.482  17.429  10.113  0.0842 -0.0330 -0.0732
 1232ERGO    R115904   2.459  17.317   9.854 -0.1588  0.0925 -0.1093
 1232ERGO    R215905   2.355  17.458   9.639  0.1860  0.4131 -0.0827
 1232ERGO    R315906   2.591  17.390   9.522  0.0503 -0.1124 -0.0715
 1232ERGO    R415907   2.427  17.495   9.303  0.4183  0.6050 -0.0150
 1232ERGO    R515908   2.527  17.302   9.309 -0.1196  0.3068 -0.1976
 1232ERGO    C115909   2.689  17.452   8.997  0.4263  0.2233  0.0351
 1232ERGO    C215910   2.780  17.526   8.726  0.0608 -0.2290  0.3132
 1233ERGO   ROH15911   9.144   7.322   8.616 -0.2035  0.3062 -0.1230
 1233ERGO    R115912   9.418   7.391   8.618 -0.1369  0.0530 -0.1410
 1233ERGO    R215913   9.544   7.504   8.400 -0.1301  0.2407 -0.0403
 1233ERGO    R315914   9.614   7.696   8.580  0.1262 -0.0661  0.1992
 1233ERGO    R415915   9.822   7.709   8.374 -0.1177  0.2240 -0.0420
 1233ERGO    R515916   9.853   7.686   8.588  0.1394 -0.1365 -0.1071
 1233ERGO    C115917  10.048   8.008   8.528  0.1300 -0.0737  0.1821
 1233ERGO    C215918  10.313   8.210   8.632  0.1308  0.3058  0.1787
 1234ERGO   ROH15919   9.731   2.308   6.640  0.0727  0.0782  0.0119
 1234ERGO    R115920   9.633   2.354   6.902  0.1636  0.0086  0.0577
 1234ERGO    R215921   9.477   2.171   7.036  0.0657  0.0520 -0.0117
 1234ERGO    R315922   9.667   2.198   7.229  0.1213 -0.1892 -0.0277
 1234ERGO    R415923   9.423   2.121   7.374 -0.0550  0.3452  0.0164
 1234ERGO    R515924   9.549   2.295   7.414  0.2804  0.1475 -0.0844
 1234ERGO    C115925   9.569   2.117   7.751 -0.0730  0.2895  0.0176
 1234ERGO    C215926   9.412   2.037   8.005  0.1796 -0.0460 -0.0249
 1235ERGO   ROH15927   7.518  17.223   6.765 -0.1289 -0.2370  0.0598
 1235ERGO    R115928   7.548  17.332   7.024  0.1519  0.1095 -0.1089
 1235ERGO    R215929   7.499  17.598   7.081 -0.3295  0.0772 -0.3102
 1235ERGO    R315930   7.334  17.494   7.270  0.2640 -0.1085  0.1364
 1235ERGO    R415931   7.341  17.781   7.327 -0.3495  0.0019 -0.2676
 1235ERGO    R515932   7.383  17.620   7.468  0.3163  0.2783 -0.1149
 1235ERGO    C115933   7.094  17.790   7.649  0.1959 -0.2164  0.1764
 1235ERGO    C215934   6.914  18.138   7.740  0.1287  0.1139  0.1731
 1236ERGO   ROH15935  11.789  15.960   6.788 -0.0752 -0.0348  0.1530
 1236ERGO    R115936  11.794  15.938   7.070 -0.2319 -0.0277  0.1576
 1236ERGO    R215937  12.029  15.940   7.215 -0.3073 -0.1250  0.2834
 1236ERGO    R315938  11.907  16.142   7.349 -0.2885 -0.0694  0.2103
 1236ERGO    R415939  12.167  16.114   7.479 -0.1742  0.1513  0.0367
 1236ERGO    R515940  11.973  16.111   7.577 -0.0980  0.1460  0.1873
 1236ERGO    C115941  12.133  16.405   7.759 -0.0791  0.3643 -0.1756
 1236ERGO    C215942  12.264  16.649   8.062 -0.1236  0.0917 -0.2838
 1237ERGO   ROH15943   7.095  12.957  10.390 -0.2263  0.1499 -0.0527
 1237ERGO    R115944   7.127  13.076  10.136 -0.0119 -0.0103 -0.1027
 1237ERGO    R215945   7.353  13.037   9.981  0.0480 -0.2382  0.0424
 1237ERGO    R315946   7.171  12.960   9.794  0.1034 -0.2253 -0.0182
 1237ERGO    R415947   7.405  13.045   9.639  0.0436  0.0869  0.0456
 1237ERGO    R515948   7.201  13.116   9.614 -0.0162 -0.0485  0.1088
 1237ERGO    C115949   7.265  12.977   9.265  0.0930  0.2883 -0.0093
 1237ERGO    C215950   7.400  12.996   8.946  0.0812  0.1957 -0.2047
 1238ERGO   ROH15951  13.702   4.207   6.542  0.1057  0.0083 -0.0071
 1238ERGO    R115952  13.899   4.163   6.740  0.0882 -0.1086 -0.0146
 1238ERGO    R215953  13.883   4.274   6.993  0.1980 -0.0413 -0.0378
 1238ERGO    R315954  13.912   4.016   7.073 -0.0024 -0.0490  0.0164
 1238ERGO    R415955  13.929   4.173   7.320  0.1198 -0.0040 -0.0152
 1238ERGO    R515956  14.074   4.027   7.249  0.0083 -0.1343  0.0144
 1238ERGO    C115957  13.983   3.872   7.586 -0.1137  0.0105  0.0489
 1238ERGO    C215958  13.734   3.862   7.809  0.0285 -0.3936 -0.5139
 1239ERGO   ROH15959   8.241  15.104   6.866  0.0021  0.1117 -0.0305
 1239ERGO    R115960   8.349  15.110   7.127  0.1053 -0.1115 -0.0654
 1239ERGO    R215961   8.221  15.236   7.337  0.3766  0.0540  0.0024
 1239ERGO    R315962   8.249  14.994   7.457  0.0314 -0.0189 -0.0542
 1239ERGO    R415963   8.169  15.175   7.674  0.4302  0.0855  0.0170
 1239ERGO    R515964   8.343  15.044   7.672  0.2182 -0.2079 -0.0872
 1239ERGO    C115965   8.164  14.912   7.982  0.1372  0.0355 -0.0276
 1239ERGO    C215966   7.951  14.856   8.212  0.0996 -0.1478 -0.1868
 1240ERGO   ROH15967  17.044   8.454   6.107 -0.1367 -0.0971  0.0882
 1240ERGO    R115968  17.016   8.601   6.347 -0.0403  0.0275  0.0236
 1240ERGO    R215969  17.059   8.488   6.596 -0.1779  0.0902  0.0733
 1240ERGO    R315970  17.231   8.697   6.625  0.0062 -0.0499  0.0158
 1240ERGO    R415971  17.190   8.595   6.897 -0.2124  0.1542  0.0666
 1240ERGO    R515972  17.164   8.801   6.830  0.0089  0.1420 -0.0766
 1240ERGO    C115973  17.429   8.853   7.099 -0.0594  0.0599  0.0086
 1240ERGO    C215974  17.387   9.048   7.449  0.0844 -0.1136  0.1090
 1241ERGO   ROH15975   3.192   9.265   6.178 -0.0257  0.0217 -0.0582
 1241ERGO    R115976   3.244   9.442   6.392 -0.0950  0.0873 -0.0940
 1241ERGO    R215977   3.055   9.504   6.584 -0.1083  0.0195 -0.0793
 1241ERGO    R315978   3.249   9.423   6.756 -0.0430  0.1491 -0.0923
 1241ERGO    R415979   3.034   9.523   6.928 -0.0306  0.1383 -0.0812
 1241ERGO    R515980   3.243   9.585   6.933 -0.0538  0.2089 -0.1512
 1241ERGO    C115981   3.204   9.458   7.290  0.0760  0.3291 -0.0945
 1241ERGO    C215982   3.197   9.461   7.510 -0.0880 -0.0094 -0.3899
 1242ERGO   ROH15983   2.370   3.528   6.236  0.0078 -0.1545  0.3885
 1242ERGO    R115984   2.352   3.742   6.421  0.1657  0.0972  0.1207
 1242ERGO    R215985   2.389   4.005   6.348 -0.1238  0.0241 -0.3162
 1242ERGO    R315986   2.145   4.038   6.464  0.0350  0.0207  0.0317
 1242ERGO    R415987   2.304   4.265   6.560  0.0717  0.2353 -0.4908
 1242ERGO    R515988   2.195   4.122   6.683  0.3405  0.3138 -0.1380
 1242ERGO    C115989   2.027   4.447   6.792  0.3347  0.3551 -0.2658
 1242ERGO    C215990   1.839   4.790   6.922 -0.0992 -0.0890 -0.2036
 1243ERGO   ROH15991   7.042  10.309   6.647  0.0207  0.0575  0.0175
 1243ERGO    R115992   6.984  10.263   6.920  0.1168  0.1687  0.0575
 1243ERGO    R215993   7.130  10.086   7.076  0.0323  0.0625  0.0185
 1243ERGO    R315994   7.158  10.303   7.238  0.3195  0.0727 -0.0400
 1243ERGO    R415995   7.136  10.076   7.421 -0.0175  0.1511  0.0223
 1243ERGO    R515996   7.016  10.257   7.424  0.2337  0.3244 -0.0403
 1243ERGO    C115997   7.167  10.273   7.774  0.2230  0.2123 -0.0303
 1243ERGO    C215998   7.299  10.409   8.097  0.0844 -0.2124 -0.1197
 1244ERGO   ROH15999   9.181  16.846   7.225 -0.1038 -0.0804 -0.0021
 1244ERGO    R116000   9.238  16.845   7.502 -0.0248 -0.1592 -0.0180
 1244ERGO    R216001   9.227  16.615   7.655  0.1396 -0.2270 -0.1029
 1244ERGO    R316002   9.482  16.686   7.721  0.1216 -0.1184 -0.1500
 1244ERGO    R416003   9.377  16.553   7.961  0.0756  0.2327  0.0294
 1244ERGO    R516004   9.468  16.751   7.951  0.0686  0.2250 -0.2459
 1244ERGO    C116005   9.703  16.583   8.200  0.0214  0.6022  0.0622
 1244ERGO    C216006   9.878  16.316   8.409  0.0737 -0.0113  0.1140
 1245ERGO   ROH16007  17.584   3.710   6.462 -0.0702  0.0938  0.0950
 1245ERGO    R116008  17.643   3.955   6.591 -0.0192  0.1028  0.0544
 1245ERGO    R216009  17.586   3.999   6.858  0.0746  0.1258  0.0685
 1245ERGO    R316010  17.850   4.063   6.870  0.0803  0.1228 -0.0259
 1245ERGO    R416011  17.749   4.115   7.140  0.1650  0.1601  0.0029
 1245ERGO    R516012  17.859   4.254   7.014  0.1278  0.1432 -0.0527
 1245ERGO    C116013  18.092   4.242   7.315  0.2233  0.1774 -0.1240
 1245ERGO    C216014  18.241   4.033   7.555 -0.0664 -0.0095  0.2016
 1246ERGO   ROH16015   0.339  11.975   5.987  0.1204  0.1985  0.1231
 1246ERGO    R116016   0.230  12.037   6.241  0.0820  0.0826  0.1358
 1246ERGO    R216017   0.216  11.852   6.446  0.1255  0.0108  0.0767
 1246ERGO    R316018   0.349  12.044   6.585  0.0556  0.0091  0.1461
 1246ERGO    R416019   0.174  11.916   6.783  0.0950 -0.1147  0.0972
 1246ERGO    R516020   0.186  12.129   6.739  0.0239 -0.0971  0.1701
 1246ERGO    C116021   0.274  12.134   7.110  0.0116 -0.1894  0.1742
 1246ERGO    C216022   0.329  12.245   7.412 -0.0325 -0.2268 -0.1013
 1247ERGO   ROH16023  10.170  14.000   6.908  0.1816  0.0861  0.0062
 1247ERGO    R116024  10.162  13.832   7.136  0.1973  0.0968  0.0141
 1247ERGO    R216025  10.371  13.812   7.314  0.1736  0.1710  0.0458
 1247ERGO    R316026  10.180  13.874   7.497  0.1277  0.1211  0.0158
 1247ERGO    R416027  10.402  13.761   7.654  0.0660  0.0053  0.0322
 1247ERGO    R516028  10.193  13.696   7.658  0.0491  0.0401 -0.0624
 1247ERGO    C116029  10.240  13.789   8.025 -0.0398 -0.1380 -0.0041
 1247ERGO    C216030  10.236  13.841   8.419 -0.0215  0.0852 -0.2133
 1248ERGO   ROH16031   9.292   5.642  10.517  0.0767 -0.1758  0.1182
 1248ERGO    R116032   9.338   5.527  10.262 -0.1339 -0.2053  0.0911
 1248ERGO    R216033   9.163   5.560  10.050 -0.1055  0.1249  0.1111
 1248ERGO    R316034   9.386   5.649   9.923  0.0358 -0.2135  0.1117
 1248ERGO    R416035   9.214   5.548   9.709 -0.1635  0.1351  0.1025
 1248ERGO    R516036   9.420   5.492   9.746 -0.2494 -0.2261  0.0634
 1248ERGO    C116037   9.452   5.625   9.390 -0.0644 -0.1767  0.0979
 1248ERGO    C216038   9.445   5.556   9.048  0.0048  0.0818  0.0466
 1249ERGO   ROH16039   9.081   9.364  10.361 -0.0028 -0.3709  0.0139
 1249ERGO    R116040   9.127   9.450  10.096 -0.1245 -0.3391  0.0028
 1249ERGO    R216041   9.376   9.529  10.005 -0.2275 -0.0241 -0.0154
 1249ERGO    R316042   9.331   9.342   9.814  0.0079 -0.1065  0.0065
 1249ERGO    R416043   9.468   9.560   9.674 -0.2859  0.0671 -0.0234
 1249ERGO    R516044   9.278   9.469   9.618 -0.1731 -0.1920 -0.0030
 1249ERGO    C116045   9.478   9.401   9.301 -0.0988  0.0431 -0.0074
 1249ERGO    C216046   9.497   9.419   8.960 -0.0269  0.1118 -0.1730
 1250ERGO   ROH16047  10.933   9.487  10.448 -0.1705  0.0839  0.0538
 1250ERGO    R116048  10.820   9.387  10.209 -0.0630  0.0774  0.0052
 1250ERGO    R216049  10.706   9.552  10.018 -0.0640  0.0647 -0.0060
 1250ERGO    R316050  10.880   9.425   9.852  0.0320  0.1497  0.0290
 1250ERGO    R416051  10.701   9.572   9.673 -0.0990 -0.0628 -0.0137
 1250ERGO    R516052  10.747   9.360   9.665  0.0766 -0.0280  0.0589
 1250ERGO    C116053  10.861   9.466   9.316 -0.0293 -0.0573  0.0145
 1250ERGO    C216054  10.885   9.424   8.944  0.1506  0.0183 -0.3337
 1251ERGO   ROH16055   3.184   3.951   9.919 -0.0204  0.1792 -0.0788
 1251ERGO    R116056   3.102   3.836   9.673  0.0109  0.1912 -0.0960
 1251ERGO    R216057   3.058   3.987   9.445  0.1870  0.1867 -0.1395
 1251ERGO    R316058   3.235   3.812   9.336  0.1339  0.0700 -0.0386
 1251ERGO    R416059   3.097   3.931   9.106  0.2731  0.0788 -0.1114
 1251ERGO    R516060   3.118   3.718   9.149  0.1518  0.0818 -0.0518
 1251ERGO    C116061   3.285   3.734   8.806  0.2734 -0.0936 -0.0004
 1251ERGO    C216062   3.365   3.619   8.400 -0.0008 -0.0512 -0.3013
 1252ERGO   ROH16063   8.838  13.656   6.988  0.1025 -0.0616 -0.0557
 1252ERGO    R116064   8.648  13.540   7.163  0.0952 -0.1431 -0.1164
 1252ERGO    R216065   8.716  13.354   7.354  0.1359 -0.0191 -0.0073
 1252ERGO    R316066   8.592  13.528   7.522 -0.0915 -0.0498 -0.1410
 1252ERGO    R416067   8.560  13.265   7.650 -0.0129 -0.0363 -0.0909
 1252ERGO    R516068   8.401  13.407   7.602 -0.0712 -0.1492 -0.2407
 1252ERGO    C116069   8.352  13.377   7.979 -0.3130 -0.0751 -0.2650
 1252ERGO    C216070   8.434  13.282   8.275 -0.2601 -0.2117  0.0127
 1253ERGO   ROH16071   9.446   3.835   6.798 -0.0282 -0.1064 -0.0481
 1253ERGO    R116072   9.372   3.800   7.069  0.0094 -0.2540 -0.0551
 1253ERGO    R216073   9.536   3.678   7.255  0.1194 -0.1786 -0.0978
 1253ERGO    R316074   9.496   3.908   7.394 -0.0659 -0.2524 -0.0274
 1253ERGO    R416075   9.602   3.721   7.592  0.1918 -0.1922 -0.1106
 1253ERGO    R516076   9.418   3.836   7.608  0.0811 -0.3820 -0.0184
 1253ERGO    C116077   9.602   3.961   7.918  0.0601 -0.2694 -0.0520
 1253ERGO    C216078   9.802   3.960   8.246  0.5984 -0.0153  0.1191
 1254ERGO   ROH16079   3.039   7.522   9.857 -0.1568 -0.2003  0.0253
 1254ERGO    R116080   3.076   7.352   9.634 -0.1692 -0.1659 -0.0052
 1254ERGO    R216081   2.919   7.367   9.407 -0.2228 -0.1662  0.0189
 1254ERGO    R316082   3.159   7.392   9.282 -0.2483 -0.0975 -0.0127
 1254ERGO    R416083   2.979   7.284   9.077 -0.1908 -0.2519  0.0473
 1254ERGO    R516084   3.172   7.201   9.138 -0.1565 -0.1321  0.0564
 1254ERGO    C116085   3.239   7.259   8.767 -0.1960 -0.2372  0.0340
 1254ERGO    C216086   3.246   7.072   8.424  0.1977  0.1972 -0.1178
 1255ERGO   ROH16087   3.378  17.108  10.065  0.0066  0.1218 -0.1714
 1255ERGO    R116088   3.513  17.021   9.833  0.0638  0.1000 -0.1303
 1255ERGO    R216089   3.380  16.936   9.606  0.1162 -0.1129 -0.0868
 1255ERGO    R316090   3.535  17.124   9.484 -0.0218 -0.0603 -0.1836
 1255ERGO    R416091   3.451  16.946   9.267 -0.0935 -0.0827 -0.1311
 1255ERGO    R516092   3.655  17.003   9.317 -0.0839 -0.0147 -0.2587
 1255ERGO    C116093   3.637  17.128   8.957 -0.3452 -0.0158 -0.2476
 1255ERGO    C216094   3.551  17.116   8.570 -0.1012  0.0075  0.1269
 1256ERGO   ROH16095   1.259   4.296   6.182  0.1274 -0.2280 -0.1528
 1256ERGO    R116096   1.214   4.238   6.456  0.1642 -0.0554 -0.1093
 1256ERGO    R216097   1.022   4.058   6.540  0.0968  0.0841  0.0361
 1256ERGO    R316098   1.231   3.945   6.671  0.0721  0.0535  0.0495
 1256ERGO    R416099   0.993   3.846   6.811  0.0430  0.0429 -0.0016
 1256ERGO    R516100   1.165   3.946   6.901  0.0357  0.0214  0.0404
 1256ERGO    C116101   1.172   3.616   7.092 -0.0116 -0.0098 -0.0110
 1256ERGO    C216102   1.214   3.324   7.309 -0.0752 -0.0964  0.3940
 1257ERGO   ROH16103   3.799  16.282   6.510 -0.0091 -0.2295 -0.0629
 1257ERGO    R116104   3.616  16.391   6.696  0.0428 -0.0215 -0.1292
 1257ERGO    R216105   3.499  16.239   6.895 -0.2240  0.1000 -0.1863
 1257ERGO    R316106   3.599  16.433   7.057 -0.0521 -0.0319 -0.1323
 1257ERGO    R416107   3.387  16.307   7.215 -0.1571  0.1046 -0.1643
 1257ERGO    R516108   3.408  16.520   7.171  0.0249  0.1003 -0.1030
 1257ERGO    C116109   3.416  16.529   7.553  0.0432 -0.0167 -0.1009
 1257ERGO    C216110   3.352  16.618   7.887  0.0834 -0.4037 -0.1914
 1258ERGO   ROH16111   6.386   3.054  10.266 -0.1176  0.0085 -0.1082
 1258ERGO    R116112   6.628   3.012  10.126 -0.0621  0.0317 -0.0206
 1258ERGO    R216113   6.651   2.828   9.921  0.0833 -0.1116  0.1199
 1258ERGO    R316114   6.743   3.043   9.782 -0.0007 -0.1642 -0.0185
 1258ERGO    R416115   6.843   2.810   9.634  0.2054 -0.2198  0.2078
 1258ERGO    R516116   6.962   2.977   9.709  0.0695 -0.0833  0.1191
 1258ERGO    C116117   7.042   3.001   9.337  0.1977 -0.3320  0.1290
 1258ERGO    C216118   7.088   2.812   9.143 -0.1889  0.0664  0.1505
 1259ERGO   ROH16119  14.954   6.403   6.747  0.2548 -0.1502 -0.0547
 1259ERGO    R116120  15.075   6.543   6.961  0.3342 -0.2510 -0.0346
 1259ERGO    R216121  14.940   6.605   7.193  0.3095 -0.0351 -0.1123
 1259ERGO    R316122  15.149   6.478   7.311  0.1056 -0.2625  0.0146
 1259ERGO    R416123  15.059   6.674   7.510  0.3836  0.0673 -0.1607
 1259ERGO    R516124  15.262   6.650   7.434  0.3638 -0.3181 -0.1293
 1259ERGO    C116125  15.324   6.595   7.806  0.2353 -0.0865 -0.0699
 1259ERGO    C216126  15.286   6.636   8.181  0.0401  0.1254  0.0369
 1260ERGO   ROH16127   0.650   8.838   9.521 -0.2349 -0.1674 -0.0709
 1260ERGO    R116128   0.634   8.737   9.257 -0.3896 -0.0352 -0.1137
 1260ERGO    R216129   0.499   8.870   9.055  0.0214  0.3941 -0.1253
 1260ERGO    R316130   0.737   8.847   8.925  0.0302 -0.1696 -0.0336
 1260ERGO    R416131   0.540   8.884   8.712  0.1941  0.3737 -0.1061
 1260ERGO    R516132   0.685   8.723   8.727 -0.2046 -0.0025 -0.0815
 1260ERGO    C116133   0.787   8.871   8.391  0.3030 -0.1674 -0.0090
 1260ERGO    C216134   0.783   8.992   8.118 -0.0149 -0.0027  0.1950
 1261ERGO   ROH16135  12.413   8.866  10.059 -0.1019  0.2330  0.0777
 1261ERGO    R116136  12.345   8.789   9.796 -0.1965  0.1984  0.1111
 1261ERGO    R216137  12.257   8.969   9.606 -0.0911  0.2059  0.0645
 1261ERGO    R316138  12.461   8.867   9.459 -0.1855  0.0075  0.0701
 1261ERGO    R416139  12.261   8.950   9.261 -0.1533  0.0806  0.0707
 1261ERGO    R516140  12.352   8.753   9.278 -0.2924  0.0214  0.1264
 1261ERGO    C116141  12.455   8.843   8.922 -0.2783 -0.1787  0.0797
 1261ERGO    C216142  12.426   9.083   8.700  0.0037 -0.0171 -0.0422
 1262ERGO   ROH16143   8.161  10.247  10.249 -0.2210  0.0481  0.0005
 1262ERGO    R116144   8.145  10.330   9.979 -0.1164 -0.0080 -0.0233
 1262ERGO    R216145   8.368  10.393   9.829 -0.0632  0.0266  0.0719
 1262ERGO    R316146   8.265  10.209   9.657  0.0709 -0.0350  0.0552
 1262ERGO    R416147   8.368  10.422   9.484 -0.0901  0.0612  0.0743
 1262ERGO    R516148   8.166  10.339   9.482 -0.0302 -0.0900  0.0696
 1262ERGO    C116149   8.271  10.266   9.123  0.0200  0.0236  0.0601
 1262ERGO    C216150   8.436  10.167   8.785 -0.0392  0.0606 -0.3289
 1263ERGO   ROH16151   6.500   2.783   7.018  0.3937 -0.1833 -0.1516
 1263ERGO    R116152   6.410   2.810   7.285  0.2022 -0.1408 -0.2200
 1263ERGO    R216153   6.478   2.631   7.484  0.0951 -0.0836 -0.1346
 1263ERGO    R316154   6.561   2.856   7.613 -0.0354 -0.0414 -0.1207
 1263ERGO    R416155   6.489   2.669   7.827  0.1072 -0.1164 -0.1308
 1263ERGO    R516156   6.416   2.873   7.802 -0.0291 -0.1577 -0.1016
 1263ERGO    C116157   6.574   2.903   8.148 -0.0083 -0.0959 -0.1155
 1263ERGO    C216158   6.529   2.935   8.403  0.2377  0.0483 -0.0660
 1264ERGO   ROH16159   1.375   9.589   5.970 -0.1852  0.1336 -0.0652
 1264ERGO    R116160   1.230   9.771   6.131 -0.2405 -0.0221  0.0648
 1264ERGO    R216161   1.051   9.689   6.324 -0.0502 -0.2172  0.1667
 1264ERGO    R316162   1.203   9.846   6.486 -0.0768 -0.1212  0.0984
 1264ERGO    R416163   0.973   9.770   6.651 -0.0567 -0.0869  0.1328
 1264ERGO    R516164   1.044   9.972   6.613 -0.0933 -0.0938  0.0459
 1264ERGO    C116165   1.070   9.965   6.993 -0.0855  0.0791  0.0490
 1264ERGO    C216166   1.032  10.098   7.356 -0.3666 -0.0436 -0.0938
 1265ERGO   ROH16167  12.008   9.614   7.075 -0.2114  0.0978 -0.0135
 1265ERGO    R116168  12.167   9.547   7.299 -0.1101 -0.1933 -0.1664
 1265ERGO    R216169  12.116   9.645   7.552  0.4611  0.1239 -0.1525
 1265ERGO    R316170  12.116   9.381   7.619 -0.1855  0.1470  0.0006
 1265ERGO    R416171  12.171   9.522   7.871  0.5756  0.1613 -0.1577
 1265ERGO    R516172  12.290   9.362   7.783  0.0073 -0.2392 -0.2397
 1265ERGO    C116173  12.203   9.204   8.119  0.0352  0.2049 -0.0171
 1265ERGO    C216174  12.056   9.216   8.375  0.0547  0.1548 -0.2113
 1266ERGO   ROH16175   7.823  11.515   6.804  0.1156  0.0404 -0.0979
 1266ERGO    R116176   7.888  11.586   7.070 -0.0299  0.2187 -0.1093
 1266ERGO    R216177   7.718  11.733   7.230 -0.2573  0.0482 -0.1967
 1266ERGO    R316178   7.750  11.525   7.401 -0.0128  0.1492 -0.1135
 1266ERGO    R416179   7.559  11.703   7.535 -0.2039  0.0023 -0.1721
 1266ERGO    R516180   7.745  11.626   7.619 -0.1059  0.2387 -0.1528
 1266ERGO    C116181   7.496  11.490   7.874  0.0567  0.0704 -0.0799
 1266ERGO    C216182   7.251  11.270   8.066 -0.2579 -0.2455  0.2455
 1267ERGO   ROH16183   8.093   2.137  10.603 -0.1692 -0.0466 -0.0704
 1267ERGO    R116184   8.018   2.083  10.335 -0.0645 -0.0002 -0.1103
 1267ERGO    R216185   8.036   2.273  10.134  0.0327  0.0306 -0.0774
 1267ERGO    R316186   8.183   2.080  10.010  0.0694  0.0374 -0.0428
 1267ERGO    R416187   8.063   2.235   9.792  0.0311 -0.0350 -0.0696
 1267ERGO    R516188   8.052   2.019   9.820  0.0785 -0.0299 -0.0256
 1267ERGO    C116189   8.217   2.032   9.476  0.0646 -0.0668 -0.0326
 1267ERGO    C216190   8.150   2.109   9.153  0.0193  0.0108  0.1898
 1268ERGO   ROH16191   5.254   5.428   6.823 -0.0091  0.1998 -0.0839
 1268ERGO    R116192   5.126   5.625   6.980  0.1412  0.1405  0.1146
 1268ERGO    R216193   4.887   5.578   7.113  0.1044  0.1899  0.0501
 1268ERGO    R316194   5.029   5.664   7.329  0.1568 -0.1386  0.1543
 1268ERGO    R416195   4.749   5.670   7.416  0.1266  0.1297  0.0806
 1268ERGO    R516196   4.892   5.834   7.426  0.3284 -0.0400  0.2407
 1268ERGO    C116197   4.801   5.804   7.795  0.1888 -0.2137  0.1960
 1268ERGO    C216198   4.744   5.801   8.204  0.1155 -0.0220 -0.1002
 1269ERGO   ROH16199   9.660   5.105   6.584 -0.0545  0.1921 -0.1766
 1269ERGO    R116200   9.801   5.112   6.830 -0.0059  0.1472 -0.2037
 1269ERGO    R216201   9.823   5.342   6.982 -0.0660  0.0929 -0.1157
 1269ERGO    R316202   9.722   5.184   7.178  0.0397 -0.0275 -0.1561
 1269ERGO    R416203   9.904   5.366   7.317 -0.1850  0.1541 -0.0901
 1269ERGO    R516204   9.906   5.149   7.327  0.0365  0.1514 -0.1062
 1269ERGO    C116205   9.857   5.231   7.696 -0.1550  0.0767 -0.1132
 1269ERGO    C216206   9.902   5.329   8.005  0.0673 -0.1024  0.0260
 1270ERGO   ROH16207   4.782   4.580  10.141  0.2361  0.1005  0.0411
 1270ERGO    R116208   4.733   4.670   9.878  0.0837  0.0772  0.0602
 1270ERGO    R216209   4.935   4.708   9.693 -0.0069  0.1899 -0.0198
 1270ERGO    R316210   4.783   4.542   9.541  0.0226  0.1073  0.0401
 1270ERGO    R416211   4.957   4.680   9.350 -0.0573  0.1224 -0.0177
 1270ERGO    R516212   4.740   4.668   9.341 -0.0529  0.0487  0.0207
 1270ERGO    C116213   4.827   4.508   9.006 -0.0589  0.0055  0.0398
 1270ERGO    C216214   5.027   4.593   8.668  0.0421 -0.1742 -0.1271
 1271ERGO   ROH16215  13.810   8.578  10.585 -0.0647 -0.0300 -0.0152
 1271ERGO    R116216  13.656   8.489  10.365 -0.0676  0.0473 -0.0437
 1271ERGO    R216217  13.475   8.652  10.234  0.0266  0.1289 -0.0618
 1271ERGO    R316218  13.618   8.578  10.015  0.0247  0.0783 -0.0475
 1271ERGO    R416219  13.366   8.682   9.907  0.1699  0.4314 -0.0861
 1271ERGO    R516220  13.455   8.488   9.865 -0.0353  0.3429 -0.1545
 1271ERGO    C116221  13.436   8.631   9.512  0.2516  0.5600 -0.0868
 1271ERGO    C216222  13.376   8.542   9.248  0.0474  0.1200  0.3757
 1272ERGO   ROH16223   4.485   3.022   6.701  0.3635 -0.3435 -0.2629
 1272ERGO    R116224   4.421   3.003   6.976  0.1921  0.0629 -0.2673
 1272ERGO    R216225   4.498   2.789   7.133 -0.2255  0.1027  0.0143
 1272ERGO    R316226   4.605   2.984   7.290  0.0076  0.1144 -0.1548
 1272ERGO    R416227   4.537   2.767   7.476 -0.1746  0.3210  0.0234
 1272ERGO    R516228   4.475   2.975   7.491  0.0418  0.3982 -0.1183
 1272ERGO    C116229   4.661   2.936   7.822  0.0738  0.4591 -0.1301
 1272ERGO    C216230   4.769   3.061   8.163  0.0134  0.2953 -0.1025
 1273ERGO   ROH16231   0.856   5.660   9.672  0.1603  0.1490 -0.0159
 1273ERGO    R116232   0.778   5.648   9.400  0.1541 -0.1060 -0.0064
 1273ERGO    R216233   0.750   5.874   9.243 -0.2687 -0.2100 -0.1047
 1273ERGO    R316234   0.922   5.741   9.080 -0.0371  0.0244 -0.0542
 1273ERGO    R416235   0.751   5.894   8.898 -0.1512 -0.1751 -0.1015
 1273ERGO    R516236   0.790   5.680   8.890  0.1203 -0.1222 -0.1131
 1273ERGO    C116237   0.914   5.782   8.544  0.1347  0.0652 -0.0524
 1273ERGO    C216238   1.197   5.946   8.342 -0.3608  0.2236  0.2587
 1274ERGO   ROH16239   9.444  12.791   6.850 -0.2324  0.0984 -0.0373
 1274ERGO    R116240   9.436  12.697   7.117 -0.5304  0.0499 -0.0608
 1274ERGO    R216241   9.615  12.781   7.310 -0.2594 -0.5430 -0.0313
 1274ERGO    R316242   9.388  12.843   7.447 -0.0936  0.1287 -0.0273
 1274ERGO    R416243   9.601  12.851   7.648 -0.0493 -0.4666 -0.0372
 1274ERGO    R516244   9.416  12.737   7.660 -0.3932  0.0603 -0.0198
 1274ERGO    C116245   9.380  12.951   7.973  0.2286  0.2084 -0.0368
 1274ERGO    C216246   9.355  12.978   8.372  0.0098 -0.2547  0.1256
 1275ERGO   ROH16247  15.647   7.260  10.450 -0.1821 -0.4543  0.0825
 1275ERGO    R116248  15.554   7.191  10.192 -0.1382 -0.1910 -0.0082
 1275ERGO    R216249  15.366   7.343  10.056 -0.0936 -0.0271  0.0925
 1275ERGO    R316250  15.556   7.343   9.861 -0.0449  0.1363  0.1414
 1275ERGO    R416251  15.308   7.274   9.723  0.0735 -0.0995  0.0787
 1275ERGO    R516252  15.495   7.162   9.718  0.1705  0.0781  0.1328
 1275ERGO    C116253  15.453   7.234   9.346  0.2166  0.0119  0.1166
 1275ERGO    C216254  15.463   7.336   9.031  0.1541  0.0491 -0.2173
 1276ERGO   ROH16255  13.676  16.679   6.970  0.0391  0.0483 -0.1146
 1276ERGO    R116256  13.892  16.589   7.130  0.0209  0.0821 -0.0703
 1276ERGO    R216257  14.001  16.743   7.333 -0.0420  0.1007 -0.0501
 1276ERGO    R316258  13.949  16.522   7.483 -0.0390  0.0950 -0.0577
 1276ERGO    R416259  14.212  16.613   7.574 -0.1149  0.2019  0.0686
 1276ERGO    R516260  14.161  16.413   7.504 -0.0074  0.1751  0.0589
 1276ERGO    C116261  14.286  16.331   7.855 -0.1547  0.2554  0.1305
 1276ERGO    C216262  14.211  16.180   8.138  0.1897 -0.0370 -0.2265
 1277ERGO   ROH16263   8.166  10.753  10.294 -0.1980  0.1966 -0.0437
 1277ERGO    R116264   8.093  10.844  10.036 -0.0377  0.0992 -0.1253
 1277ERGO    R216265   8.279  10.903   9.840  0.0857  0.0244 -0.0330
 1277ERGO    R316266   8.132  10.728   9.694  0.1760 -0.0314 -0.0578
 1277ERGO    R416267   8.268  10.894   9.495  0.0875  0.0657 -0.0342
 1277ERGO    R516268   8.054  10.856   9.508  0.1082 -0.0470 -0.0391
 1277ERGO    C116269   8.123  10.724   9.157  0.1736  0.0373 -0.0583
 1277ERGO    C216270   8.196  10.729   8.929 -0.0449 -0.1186 -0.0770
 1278ERGO   ROH16271  11.598  12.085   6.781  0.1646  0.2671 -0.2946
 1278ERGO    R116272  11.806  12.203   6.933  0.1630  0.0304 -0.1005
 1278ERGO    R216273  11.798  12.466   7.017  0.3944  0.0524 -0.1267
 1278ERGO    R316274  11.839  12.355   7.262  0.0223  0.0111 -0.0779
 1278ERGO    R416275  11.942  12.628   7.286  0.4591 -0.1556 -0.0356
 1278ERGO    R516276  12.049  12.444   7.333  0.1194 -0.3297  0.0734
 1278ERGO    C116277  12.065  12.618   7.672  0.1476 -0.3154  0.0633
 1278ERGO    C216278  11.965  12.580   8.116 -0.0705  0.0539  0.1278
 1279ERGO   ROH16279  10.455  11.895   6.849  0.0826 -0.4728  0.0014
 1279ERGO    R116280  10.415  11.788   7.109  0.0279 -0.3381  0.0509
 1279ERGO    R216281  10.623  11.692   7.263 -0.0089 -0.3251  0.1211
 1279ERGO    R316282  10.525  11.868   7.446  0.0210 -0.2037  0.0201
 1279ERGO    R416283  10.702  11.691   7.600 -0.0527 -0.1634  0.1316
 1279ERGO    R516284  10.493  11.736   7.644 -0.0381 -0.0836  0.0854
 1279ERGO    C116285  10.655  11.855   7.968 -0.0502  0.0447  0.0429
 1279ERGO    C216286  10.672  11.987   8.304 -0.0300 -0.2250 -0.1853
 1280ERGO   ROH16287  14.796  12.459  10.245 -0.0759  0.1131 -0.0451
 1280ERGO    R116288  14.697  12.354  10.001 -0.2352  0.0939  0.0264
 1280ERGO    R216289  14.474  12.457   9.875 -0.0753  0.3612 -0.0512
 1280ERGO    R316290  14.643  12.477   9.663 -0.0291 -0.0550 -0.0622
 1280ERGO    R416291  14.375  12.467   9.543 -0.0381  0.2505 -0.0661
 1280ERGO    R516292  14.544  12.338   9.494 -0.2247 -0.0414  0.0408
 1280ERGO    C116293  14.477  12.492   9.152  0.0270 -0.2046 -0.0851
 1280ERGO    C216294  14.399  12.518   8.883 -0.3248  0.1056  0.1221
 1281ERGO   ROH16295   7.062  15.835  10.291  0.0701  0.1428  0.0627
 1281ERGO    R116296   6.992  15.780  10.022  0.1565 -0.1043  0.0894
 1281ERGO    R216297   6.954  15.979   9.834 -0.0793 -0.2601 -0.0303
 1281ERGO    R316298   7.139  15.838   9.694  0.1095 -0.1165  0.0664
 1281ERGO    R416299   7.013  16.014   9.496  0.0585 -0.2414 -0.0061
 1281ERGO    R516300   7.034  15.798   9.482  0.2476 -0.2240  0.0185
 1281ERGO    C116301   7.221  15.902   9.166  0.3160 -0.0958  0.0986
 1281ERGO    C216302   7.179  15.840   8.793 -0.2930 -0.1597 -0.0476
 1282ERGO   ROH16303  15.370  15.142   6.463  0.1078  0.3507  0.0808
 1282ERGO    R116304  15.526  15.079   6.690  0.1060  0.1746  0.0352
 1282ERGO    R216305  15.443  14.899   6.883 -0.0595  0.2949  0.0797
 1282ERGO    R316306  15.682  14.781   6.830 -0.2222 -0.0135  0.0096
 1282ERGO    R416307  15.620  14.705   7.107 -0.0810  0.3486  0.1438
 1282ERGO    R516308  15.804  14.799   7.036 -0.0361  0.0824 -0.1081
 1282ERGO    C116309  15.948  14.481   7.187 -0.2462  0.0904  0.1154
 1282ERGO    C216310  16.186  14.342   7.339  0.2468  0.0434 -0.1237
 1283ERGO   ROH16311   1.974   7.281   6.073  0.0565 -0.0166  0.0173
 1283ERGO    R116312   1.792   7.450   6.208 -0.0926 -0.0871 -0.0918
 1283ERGO    R216313   1.557   7.357   6.320  0.0689 -0.2547  0.1176
 1283ERGO    R316314   1.655   7.476   6.544  0.0277  0.1179 -0.0570
 1283ERGO    R416315   1.368   7.442   6.597  0.1433 -0.5355  0.2580
 1283ERGO    R516316   1.481   7.628   6.611 -0.2736 -0.2461  0.0221
 1283ERGO    C116317   1.349   7.604   6.968  0.1481 -0.3492  0.1757
 1283ERGO    C216318   1.223   7.903   7.230  0.0595  0.0002 -0.2923
 1284ERGO   ROH16319  16.661   0.438   6.291 -0.2170 -0.2879  0.0286
 1284ERGO    R116320  16.545   0.297   6.508 -0.1575 -0.1713  0.1375
 1284ERGO    R216321  16.682   0.247   6.743 -0.1418  0.0853  0.1881
 1284ERGO    R316322  16.467   0.368   6.856 -0.2070  0.0727  0.0785
 1284ERGO    R416323  16.585   0.209   7.072 -0.1604  0.2833  0.2064
 1284ERGO    R516324  16.378   0.203   7.005 -0.1497  0.1428  0.1893
 1284ERGO    C116325  16.325   0.300   7.370 -0.2324  0.3867  0.1142
 1284ERGO    C216326  16.383   0.310   7.709 -0.0708 -0.1760  0.1237
 1285ERGO   ROH16327   7.381   1.396   6.621 -0.0755 -0.0329  0.0668
 1285ERGO    R116328   7.229   1.349   6.855 -0.0749 -0.0331  0.0675
 1285ERGO    R216329   7.327   1.206   7.070 -0.1131 -0.1307  0.0237
 1285ERGO    R316330   7.256   1.429   7.209 -0.0108 -0.1366  0.0857
 1285ERGO    R416331   7.282   1.220   7.412 -0.2987 -0.2493  0.0052
 1285ERGO    R516332   7.109   1.348   7.380 -0.1745 -0.0942 -0.0354
 1285ERGO    C116333   7.189   1.437   7.742 -0.3107 -0.3240  0.0527
 1285ERGO    C216334   7.415   1.599   8.006  0.0678 -0.0026  0.1019
 1286ERGO   ROH16335   1.616  15.628   6.570  0.0091 -0.1231 -0.0212
 1286ERGO    R116336   1.704  15.824   6.754  0.0108 -0.1987  0.0587
 1286ERGO    R216337   1.533  15.953   6.929 -0.0162 -0.1461 -0.0118
 1286ERGO    R316338   1.710  15.865   7.115 -0.1567 -0.2620  0.0706
 1286ERGO    R416339   1.524  16.036   7.264  0.0560  0.1180 -0.0726
 1286ERGO    R516340   1.741  16.053   7.261  0.0891 -0.1898 -0.0645
 1286ERGO    C116341   1.685  16.002   7.634 -0.0339  0.1629 -0.0307
 1286ERGO    C216342   1.697  15.997   8.010 -0.0441  0.3039  0.0622
 1287ERGO   ROH16343   5.455   2.564   6.943  0.1453  0.1368  0.0378
 1287ERGO    R116344   5.378   2.428   7.179  0.1502  0.1377  0.0416
 1287ERGO    R216345   5.558   2.286   7.333  0.1236 -0.0191 -0.0566
 1287ERGO    R316346   5.463   2.444   7.532  0.3101  0.0114  0.0079
 1287ERGO    R416347   5.547   2.197   7.667  0.1513 -0.0714 -0.0704
 1287ERGO    R516348   5.351   2.293   7.680  0.2368  0.0770  0.0105
 1287ERGO    C116349   5.451   2.295   8.049  0.3423 -0.0732 -0.0179
 1287ERGO    C216350   5.556   2.352   8.368  0.1525  0.0995 -0.1150
 1288ERGO   ROH16351  10.981  13.403   6.749 -0.0383  0.2004 -0.1067
 1288ERGO    R116352  10.912  13.317   7.010  0.0272  0.1570 -0.1036
 1288ERGO    R216353  10.896  13.491   7.225 -0.0647  0.1456 -0.1023
 1288ERGO    R316354  10.646  13.385   7.249 -0.0014 -0.0037 -0.0876
 1288ERGO    R416355  10.736  13.427   7.525  0.0024  0.0303 -0.0904
 1288ERGO    R516356  10.661  13.241   7.440  0.1034 -0.0102 -0.0980
 1288ERGO    C116357  10.409  13.291   7.722  0.1010 -0.1769 -0.0697
 1288ERGO    C216358  10.320  13.235   7.942  0.2038 -0.0381 -0.1168
 1289ERGO   ROH16359  15.981  14.851   9.775 -0.0662  0.0849  0.0168
 1289ERGO    R116360  15.877  14.745   9.534  0.1154 -0.1213  0.0257
 1289ERGO    R216361  15.774  14.905   9.333 -0.1669 -0.3139  0.0118
 1289ERGO    R316362  15.953  14.771   9.179  0.0721 -0.0181  0.0236
 1289ERGO    R416363  15.755  14.874   8.990  0.0684 -0.1100 -0.0221
 1289ERGO    R516364  15.820  14.668   9.010  0.2832 -0.0547 -0.1229
 1289ERGO    C116365  15.913  14.731   8.645  0.4297  0.2863 -0.0308
 1289ERGO    C216366  15.955  14.672   8.312 -0.1106 -0.0811  0.4230
 1290ERGO   ROH16367   5.775  16.250   6.604 -0.0358 -0.1099 -0.1695
 1290ERGO    R116368   5.739  16.083   6.830  0.0785  0.0393 -0.0412
 1290ERGO    R216369   5.736  16.182   7.088 -0.1174  0.2557 -0.1313
 1290ERGO    R316370   5.497  16.053   7.100  0.0219 -0.0106 -0.0946
 1290ERGO    R416371   5.576  16.087   7.380 -0.2063  0.5614 -0.0755
 1290ERGO    R516372   5.520  15.900   7.283  0.0826  0.3177  0.1888
 1290ERGO    C116373   5.259  15.911   7.560 -0.1274  0.4894 -0.0085
 1290ERGO    C216374   5.073  16.009   7.877 -0.0345  0.1676 -0.0802
 1291ERGO   ROH16375  17.190  14.094   6.260  0.0340 -0.1393 -0.0235
 1291ERGO    R116376  17.248  14.181   6.524 -0.0535 -0.0018 -0.0473
 1291ERGO    R216377  17.199  14.023   6.746 -0.0579  0.0806  0.0184
 1291ERGO    R316378  17.462  14.071   6.796 -0.0833  0.1834  0.0493
 1291ERGO    R416379  17.364  13.936   7.037  0.0113 -0.0631 -0.0635
 1291ERGO    R516380  17.469  14.127   7.029 -0.0974 -0.0045  0.0899
 1291ERGO    C116381  17.707  13.930   7.254  0.0282 -0.0502 -0.0822
 1291ERGO    C216382  18.061  13.883   7.327 -0.0685  0.0613  0.1784
 1292ERGO   ROH16383   3.352   0.380  10.132 -0.1329  0.0668  0.0090
 1292ERGO    R116384   3.355   0.276   9.869  0.1444 -0.0562  0.0566
 1292ERGO    R216385   3.218   0.395   9.661 -0.0517 -0.4273 -0.0379
 1292ERGO    R316386   3.462   0.392   9.541 -0.0026  0.0114  0.0330
 1292ERGO    R416387   3.269   0.360   9.321  0.1201 -0.4753 -0.0079
 1292ERGO    R516388   3.439   0.230   9.365  0.3756 -0.1169  0.0964
 1292ERGO    C116389   3.528   0.337   9.010  0.2662 -0.0914  0.0761
 1292ERGO    C216390   3.593   0.385   8.698  0.0752 -0.1172 -0.0957
 1293ERGO   ROH16391   9.143   8.990   6.661  0.0841  0.0330  0.0315
 1293ERGO    R116392   9.111   9.099   6.921  0.1462  0.0863  0.0168
 1293ERGO    R216393   8.883   9.061   7.071  0.1467  0.1918  0.0430
 1293ERGO    R316394   9.059   8.970   7.257  0.1306  0.1595  0.0431
 1293ERGO    R416395   8.801   8.975   7.396  0.1044  0.0753  0.0026
 1293ERGO    R516396   8.986   9.070   7.462  0.0802  0.0837  0.0635
 1293ERGO    C116397   8.919   8.840   7.759  0.0647 -0.0228 -0.0210
 1293ERGO    C216398   8.893   8.822   8.080  0.0828 -0.1268  0.0591
 1294ERGO   ROH16399   2.094   8.815   6.069  0.1382  0.0616 -0.0321
 1294ERGO    R116400   1.922   8.761   6.288  0.1096 -0.0835 -0.0909
 1294ERGO    R216401   1.971   8.556   6.468  0.2937  0.0407 -0.0030
 1294ERGO    R316402   1.949   8.756   6.651 -0.0476  0.0774 -0.0745
 1294ERGO    R416403   1.911   8.510   6.805  0.3082  0.0568  0.0026
 1294ERGO    R516404   1.777   8.682   6.800  0.0355 -0.1441 -0.0802
 1294ERGO    C116405   1.856   8.670   7.173 -0.0038  0.1007 -0.0614
 1294ERGO    C216406   1.821   8.546   7.539  0.0534 -0.0470 -0.0541
 1295ERGO   ROH16407   6.037  17.030   6.757  0.1150 -0.1887 -0.1363
 1295ERGO    R116408   6.069  17.144   7.014  0.1950 -0.0893 -0.1900
 1295ERGO    R216409   5.915  17.067   7.231  0.1100  0.1530 -0.1644
 1295ERGO    R316410   6.157  17.025   7.346  0.0647 -0.0038 -0.1232
 1295ERGO    R416411   5.975  17.067   7.571  0.0332  0.0185 -0.1498
 1295ERGO    R516412   6.161  17.173   7.534  0.0966 -0.0616 -0.0762
 1295ERGO    C116413   6.237  17.027   7.878 -0.0541 -0.2067 -0.1027
 1295ERGO    C216414   6.273  17.083   8.257 -0.1576  0.3415 -0.2602
 1296ERGO   ROH16415  12.788   1.733   6.643  0.0604 -0.0564  0.0325
 1296ERGO    R116416  12.920   1.669   6.885  0.0918  0.0129  0.0347
 1296ERGO    R216417  13.130   1.819   6.984  0.0265  0.1172  0.0317
 1296ERGO    R316418  12.975   1.830   7.206  0.0156  0.0516  0.0262
 1296ERGO    R416419  13.249   1.834   7.308 -0.0055  0.0586  0.0459
 1296ERGO    R516420  13.091   1.696   7.367  0.0121  0.0339  0.0056
 1296ERGO    C116421  13.173   1.853   7.705 -0.0343 -0.0371  0.0490
 1296ERGO    C216422  13.271   1.963   7.990  0.1998 -0.3843  0.1325
 1297ERGO   ROH16423   4.158  10.262   9.758 -0.0921 -0.0387 -0.0541
 1297ERGO    R116424   4.115  10.140   9.506 -0.1114 -0.0083 -0.0637
 1297ERGO    R216425   3.926  10.232   9.327  0.0241  0.1414 -0.1206
 1297ERGO    R316426   4.138  10.239   9.157  0.0809 -0.0376 -0.0625
 1297ERGO    R416427   3.905  10.204   8.983  0.0927  0.0846 -0.1218
 1297ERGO    R516428   4.084  10.080   8.987  0.0136 -0.0416 -0.0452
 1297ERGO    C116429   4.092  10.195   8.624  0.1860 -0.1165 -0.0679
 1297ERGO    C216430   3.982  10.125   8.376  0.3640  0.0109  0.1960
 1298ERGO   ROH16431   4.374  12.289   6.546  0.1212  0.0954 -0.2404
 1298ERGO    R116432   4.303  12.285   6.819  0.0849 -0.0028 -0.2517
 1298ERGO    R216433   4.344  12.065   6.981  0.2729  0.0197 -0.2739
 1298ERGO    R316434   4.476  12.244   7.137  0.0786  0.1288 -0.2292
 1298ERGO    R416435   4.358  12.053   7.326  0.2403 -0.0263 -0.2733
 1298ERGO    R516436   4.336  12.269   7.330  0.0238 -0.0430 -0.2407
 1298ERGO    C116437   4.491  12.213   7.674  0.0388  0.0492 -0.2308
 1298ERGO    C216438   4.576  12.284   7.931 -0.0563 -0.4070  0.3501
 1299ERGO   ROH16439   4.161  12.684  10.055  0.2586 -0.0558  0.0906
 1299ERGO    R116440   4.158  12.550   9.806 -0.0156 -0.0270  0.0757
 1299ERGO    R216441   3.949  12.575   9.626 -0.0537  0.2741  0.1552
 1299ERGO    R316442   4.148  12.644   9.454 -0.0193  0.0258  0.0903
 1299ERGO    R416443   3.912  12.613   9.284 -0.1468  0.4471  0.1835
 1299ERGO    R516444   4.105  12.516   9.257 -0.3053  0.1569  0.0644
 1299ERGO    C116445   4.077  12.701   8.925 -0.1687  0.3148  0.1390
 1299ERGO    C216446   3.996  12.738   8.569  0.3430  0.0546 -0.2145
 1300ERGO   ROH16447   2.509  12.245   9.924 -0.0007 -0.0745 -0.1001
 1300ERGO    R116448   2.620  12.167   9.675 -0.0470 -0.0979 -0.1136
 1300ERGO    R216449   2.465  12.083   9.463 -0.1032  0.1051 -0.1540
 1300ERGO    R316450   2.598  12.278   9.329  0.0840  0.0275 -0.0830
 1300ERGO    R416451   2.527  12.082   9.123  0.0561  0.0758 -0.1252
 1300ERGO    R516452   2.726  12.160   9.165  0.0888 -0.0500 -0.0268
 1300ERGO    C116453   2.689  12.265   8.800  0.3246 -0.0140 -0.0417
 1300ERGO    C216454   2.549  12.195   8.528 -0.0223  0.0879 -0.0310
 1301ERGO   ROH16455  11.046   4.601   6.705  0.0132  0.0082 -0.1677
 1301ERGO    R116456  11.118   4.583   6.978 -0.1672 -0.0718 -0.1249
 1301ERGO    R216457  11.194   4.802   7.127  0.1749 -0.1790 -0.1377
 1301ERGO    R316458  10.996   4.717   7.293 -0.0835  0.2330 -0.2183
 1301ERGO    R416459  11.222   4.778   7.471  0.0319 -0.3561 -0.1364
 1301ERGO    R516460  11.111   4.591   7.462 -0.4197 -0.1014 -0.2250
 1301ERGO    C116461  11.053   4.684   7.827 -0.2939 -0.0725 -0.2112
 1301ERGO    C216462  11.103   4.428   8.069  0.1562 -0.2004  0.2290
 1302ERGO   ROH16463  17.458   8.802   9.800 -0.2064 -0.2883 -0.0094
 1302ERGO    R116464  17.451   8.849   9.521 -0.1054 -0.2462 -0.0058
 1302ERGO    R216465  17.270   8.723   9.354 -0.1877 -0.0614 -0.0603
 1302ERGO    R316466  17.210   8.978   9.281  0.0607  0.0050 -0.0410
 1302ERGO    R416467  17.162   8.818   9.040  0.0809  0.0978 -0.1075
 1302ERGO    R516468  17.288   8.995   9.055  0.2141 -0.0051  0.0103
 1302ERGO    C116469  17.042   9.112   8.788  0.4703  0.2530 -0.1169
 1302ERGO    C216470  17.034   9.346   8.542 -0.1892  0.1337  0.0410
 1303ERGO   ROH16471   0.089   1.274   9.888  0.1477 -0.2510  0.0709
 1303ERGO    R116472   0.095   1.443   9.661  0.1408 -0.2111  0.0999
 1303ERGO    R216473   0.165   1.353   9.410  0.0552 -0.1859  0.0646
 1303ERGO    R316474  -0.075   1.460   9.339  0.0675 -0.1061  0.1443
 1303ERGO    R416475   0.066   1.420   9.085 -0.0276 -0.1340  0.1003
 1303ERGO    R516476  -0.023   1.606   9.156  0.0538 -0.1121  0.1381
 1303ERGO    C116477  -0.216   1.561   8.830 -0.0642 -0.0289  0.1958
 1303ERGO    C216478  -0.287   1.558   8.505 -0.1541  0.0782 -0.0786
 1304ERGO   ROH16479   2.787   8.412   9.518 -0.0219 -0.0585 -0.0081
 1304ERGO    R116480   2.817   8.259   9.282 -0.2650 -0.1027 -0.0127
 1304ERGO    R216481   2.613   8.227   9.097 -0.2580  0.4130 -0.1255
 1304ERGO    R316482   2.800   8.319   8.923  0.0658 -0.0023 -0.0147
 1304ERGO    R416483   2.633   8.141   8.763 -0.1738  0.2839 -0.0885
 1304ERGO    R516484   2.849   8.132   8.783 -0.1974 -0.1431  0.0747
 1304ERGO    C116485   2.820   8.178   8.405  0.1792 -0.1813  0.0371
 1304ERGO    C216486   2.747   8.333   8.118 -0.0427  0.0268 -0.1042
 1305ERGO   ROH16487  16.268   9.082   9.525 -0.3892  0.1245  0.0076
 1305ERGO    R116488  16.201   8.985   9.268 -0.2509  0.0033  0.0161
 1305ERGO    R216489  15.985   9.081   9.125 -0.1569 -0.0410 -0.1581
 1305ERGO    R316490  16.172   9.124   8.932 -0.0387 -0.1613 -0.0727
 1305ERGO    R416491  15.915   9.153   8.794  0.0343  0.3746 -0.1147
 1305ERGO    R516492  16.080   9.022   8.736 -0.1564  0.1616 -0.1902
 1305ERGO    C116493  16.049   9.236   8.421  0.2565  0.5035 -0.0093
 1305ERGO    C216494  15.844   9.326   8.040  0.1869  0.0807 -0.1627
 1306ERGO   ROH16495   7.509   9.754  10.490 -0.1540  0.0239 -0.0273
 1306ERGO    R116496   7.470   9.612  10.248  0.0229 -0.0039 -0.0410
 1306ERGO    R216497   7.300   9.702  10.049 -0.0471 -0.1686 -0.0527
 1306ERGO    R316498   7.521   9.674   9.893 -0.0002  0.0710 -0.0326
 1306ERGO    R416499   7.297   9.623   9.712  0.0624 -0.2937 -0.0254
 1306ERGO    R516500   7.469   9.493   9.746  0.2405 -0.0578  0.0295
 1306ERGO    C116501   7.503   9.551   9.370  0.1702 -0.1415  0.0094
 1306ERGO    C216502   7.559   9.445   9.039 -0.1359  0.1367  0.3842
 1307ERGO   ROH16503   9.277  15.584   6.928  0.1227  0.1956  0.0479
 1307ERGO    R116504   9.464  15.586   7.140  0.0932  0.2048  0.0751
 1307ERGO    R216505   9.429  15.738   7.369  0.0182  0.1501  0.1058
 1307ERGO    R316506   9.464  15.499   7.494  0.0649  0.1316  0.0559
 1307ERGO    R416507   9.508  15.699   7.703 -0.0175  0.0864  0.1063
 1307ERGO    R516508   9.643  15.538   7.648  0.0301  0.1387  0.0890
 1307ERGO    C116509   9.586  15.452   8.015  0.0055  0.0320  0.0597
 1307ERGO    C216510   9.793  15.299   8.265  0.1940  0.0794  0.0263
 1308ERGO   ROH16511   7.598  12.595   7.021 -0.0478 -0.3220  0.0834
 1308ERGO    R116512   7.492  12.629   7.281 -0.0532 -0.3456  0.0846
 1308ERGO    R216513   7.574  12.477   7.497  0.1689 -0.1558  0.1382
 1308ERGO    R316514   7.619  12.720   7.610 -0.1160 -0.0483  0.0291
 1308ERGO    R416515   7.528  12.551   7.831  0.2837 -0.1215  0.1467
 1308ERGO    R516516   7.445  12.743   7.772 -0.0458 -0.2595  0.1389
 1308ERGO    C116517   7.543  12.822   8.132  0.0832 -0.0004  0.0493
 1308ERGO    C216518   7.407  12.859   8.432  0.1926  0.1831 -0.2875
 1309ERGO   ROH16519   7.002  13.410  10.446  0.4763 -0.0348  0.0346
 1309ERGO    R116520   7.047  13.565  10.213  0.2961 -0.0794 -0.0336
 1309ERGO    R216521   7.276  13.542  10.062  0.1830 -0.1108 -0.2145
 1309ERGO    R316522   7.100  13.500   9.859  0.0178 -0.1526 -0.0628
 1309ERGO    R416523   7.362  13.517   9.728 -0.1328  0.1502 -0.3180
 1309ERGO    R516524   7.184  13.634   9.679 -0.2834  0.0190 -0.0768
 1309ERGO    C116525   7.246  13.465   9.343 -0.4717  0.2629 -0.2359
 1309ERGO    C216526   7.213  13.457   8.947  0.3765  0.0399 -0.3257
 1310ERGO   ROH16527   7.010   0.916  10.575 -0.3174  0.0668 -0.0590
 1310ERGO    R116528   6.891   0.915  10.318 -0.1778  0.0554 -0.1248
 1310ERGO    R216529   6.937   1.115  10.133 -0.0325  0.0163 -0.1297
 1310ERGO    R316530   7.006   0.906   9.973  0.0076 -0.0217 -0.0633
 1310ERGO    R416531   6.997   1.138   9.793  0.0139 -0.0629 -0.1269
 1310ERGO    R516532   6.892   0.949   9.767  0.0313 -0.0818 -0.0921
 1310ERGO    C116533   7.098   0.956   9.446  0.0786 -0.1448 -0.0630
 1310ERGO    C216534   7.144   1.027   9.051 -0.1494  0.1691  0.1212
 1311ERGO   ROH16535  11.399   8.905   7.295  0.0306  0.0709  0.1130
 1311ERGO    R116536  11.511   8.819   7.540 -0.1085  0.0755  0.1791
 1311ERGO    R216537  11.366   8.814   7.775 -0.2995 -0.0968  0.0636
 1311ERGO    R316538  11.446   8.554   7.782 -0.1224 -0.0437  0.0462
 1311ERGO    R416539  11.268   8.584   8.014 -0.0028 -0.1356  0.1509
 1311ERGO    R516540  11.472   8.506   8.015  0.0509  0.0000  0.0364
 1311ERGO    C116541  11.286   8.206   8.159  0.3362 -0.1083  0.1854
 1311ERGO    C216542  11.095   7.932   8.227  0.4492 -0.1984 -0.0062
 1312ERGO   ROH16543  14.968   9.514  10.142 -0.1388 -0.0524  0.1833
 1312ERGO    R116544  14.784   9.454   9.936 -0.0636 -0.0565  0.1171
 1312ERGO    R216545  14.654   9.650   9.789  0.0893 -0.0594 -0.0237
 1312ERGO    R316546  14.759   9.515   9.578  0.1360 -0.1866  0.0789
 1312ERGO    R416547  14.528   9.656   9.468  0.2105 -0.1790 -0.0746
 1312ERGO    R516548  14.569   9.443   9.453  0.1637 -0.1983  0.0421
 1312ERGO    C116549  14.552   9.533   9.082  0.3248 -0.3680 -0.0080
 1312ERGO    C216550  14.515   9.545   8.767 -0.1323 -0.1830  0.1788
 1313ERGO   ROH16551   5.750  13.399   6.612 -0.0055 -0.0578 -0.0264
 1313ERGO    R116552   5.669  13.302   6.865  0.0107  0.0373  0.0156
 1313ERGO    R216553   5.775  13.073   6.978 -0.0729  0.0096  0.0388
 1313ERGO    R316554   5.827  13.239   7.187  0.0613  0.0304 -0.0105
 1313ERGO    R416555   5.716  12.998   7.310 -0.1150  0.1464  0.0629
 1313ERGO    R516556   5.647  13.202   7.340  0.0391  0.2085  0.0089
 1313ERGO    C116557   5.731  13.109   7.700 -0.0135  0.2456  0.0307
 1313ERGO    C216558   5.719  12.928   7.972 -0.1553 -0.1827 -0.1037
 1314ERGO   ROH16559  15.090   9.255   6.362 -0.3360 -0.0448  0.1155
 1314ERGO    R116560  15.103   9.329   6.635 -0.1533 -0.0856  0.1199
 1314ERGO    R216561  15.146   9.146   6.837  0.0537 -0.1076  0.0608
 1314ERGO    R316562  15.350   9.314   6.902  0.0535 -0.0578 -0.0680
 1314ERGO    R416563  15.309   9.153   7.142  0.2413 -0.0591 -0.0389
 1314ERGO    R516564  15.311   9.370   7.131  0.1828 -0.0607 -0.0462
 1314ERGO    C116565  15.594   9.314   7.380  0.3505  0.0159 -0.2177
 1314ERGO    C216566  15.836   9.162   7.529 -0.0107 -0.2105 -0.0884
 1315ERGO   ROH16567   1.028  16.125  10.194  0.0552 -0.1094  0.0246
 1315ERGO    R116568   0.971  16.030   9.933 -0.0082 -0.0230  0.0078
 1315ERGO    R216569   0.815  16.172   9.754  0.1053  0.1237  0.0306
 1315ERGO    R316570   1.031  16.144   9.592  0.0862 -0.0126  0.0258
 1315ERGO    R416571   0.806  16.179   9.409  0.0673 -0.0559  0.0261
 1315ERGO    R516572   0.951  16.016   9.406  0.0331 -0.0959  0.0993
 1315ERGO    C116573   1.004  16.156   9.056  0.0273 -0.2886  0.0190
 1315ERGO    C216574   0.966  16.197   8.745 -0.1229  0.0291  0.0368
 1316ERGO   ROH16575   2.998  10.377   5.824 -0.1008 -0.3129  0.0060
 1316ERGO    R116576   3.063  10.317   6.093 -0.0717 -0.1719  0.0305
 1316ERGO    R216577   3.321  10.331   6.191 -0.0739 -0.0665  0.0075
 1316ERGO    R316578   3.207  10.494   6.377 -0.0964 -0.0075 -0.0560
 1316ERGO    R416579   3.471  10.428   6.486 -0.1626 -0.1129  0.0694
 1316ERGO    R516580   3.279  10.404   6.587 -0.2256 -0.0299 -0.0151
 1316ERGO    C116581   3.452  10.638   6.832 -0.2353 -0.0844  0.0459
 1316ERGO    C216582   3.488  10.787   7.078  0.0060  0.0614  0.2064
 1317ERGO   ROH16583   1.529   0.244  10.011  0.0419  0.0007 -0.0473
 1317ERGO    R116584   1.552   0.165   9.740  0.0760  0.0133 -0.0486
 1317ERGO    R216585   1.332   0.119   9.579  0.0946 -0.0002 -0.0738
 1317ERGO    R316586   1.455   0.299   9.416  0.0958  0.0183 -0.0518
 1317ERGO    R416587   1.375   0.080   9.239  0.2165 -0.0184 -0.0567
 1317ERGO    R516588   1.575   0.164   9.259  0.1845  0.0396 -0.0009
 1317ERGO    C116589   1.514   0.225   8.887  0.2886 -0.0115 -0.0261
 1317ERGO    C216590   1.645   0.272   8.533  0.1265  0.0030  0.0308
 1318ERGO   ROH16591  17.272  15.895   9.920 -0.0919 -0.2127  0.1724
 1318ERGO    R116592  17.220  16.010   9.667 -0.1060 -0.2161  0.1749
 1318ERGO    R216593  17.421  16.095   9.498 -0.1219 -0.0796  0.2291
 1318ERGO    R316594  17.298  15.931   9.320  0.0124 -0.1318  0.1812
 1318ERGO    R416595  17.467  16.106   9.156 -0.1022  0.0322  0.2339
 1318ERGO    R516596  17.252  16.072   9.131 -0.0772 -0.1205  0.2094
 1318ERGO    C116597  17.377  15.958   8.789  0.0352  0.0484  0.1917
 1318ERGO    C216598  17.350  15.905   8.461 -0.0822  0.2277 -0.0504
 1319ERGO   ROH16599  12.541   8.217   6.639  0.0025  0.0042  0.1663
 1319ERGO    R116600  12.360   8.147   6.846 -0.0491  0.1039  0.1556
 1319ERGO    R216601  12.391   7.920   7.001 -0.2715 -0.0038  0.0510
 1319ERGO    R316602  12.375   8.098   7.206 -0.0558 -0.0755  0.1319
 1319ERGO    R416603  12.273   7.848   7.318 -0.0591 -0.0775  0.1144
 1319ERGO    R516604  12.173   8.041   7.320  0.0103 -0.0443  0.2632
 1319ERGO    C116605  12.190   7.973   7.695  0.2670 -0.1877  0.2273
 1319ERGO    C216606  12.045   7.805   8.072  0.0610  0.2500 -0.3164
 1320ERGO   ROH16607  12.800  12.510   6.875 -0.0124  0.0368  0.0221
 1320ERGO    R116608  12.945  12.526   7.118 -0.0211  0.0409  0.0275
 1320ERGO    R216609  13.057  12.762   7.209  0.0262  0.0325 -0.0001
 1320ERGO    R316610  12.914  12.705   7.433 -0.0001  0.0944 -0.0014
 1320ERGO    R416611  13.104  12.911   7.518  0.2232 -0.1341  0.0524
 1320ERGO    R516612  13.074  12.717   7.611  0.0371 -0.1386 -0.0189
 1320ERGO    C116613  12.997  12.944   7.907  0.3132 -0.1730  0.0818
 1320ERGO    C216614  13.033  13.062   8.147 -0.0783 -0.0080 -0.1540
 1321ERGO   ROH16615   5.088   1.445   6.613 -0.0186 -0.1170 -0.0551
 1321ERGO    R116616   5.036   1.345   6.872  0.1614  0.0630  0.0532
 1321ERGO    R216617   5.140   1.461   7.100 -0.0115  0.4725 -0.0690
 1321ERGO    R316618   4.879   1.467   7.177 -0.0233  0.1249 -0.0651
 1321ERGO    R416619   5.030   1.451   7.428  0.0067  0.3344 -0.0665
 1321ERGO    R516620   4.869   1.319   7.365  0.1800  0.1133 -0.0606
 1321ERGO    C116621   4.722   1.451   7.691  0.0064 -0.0722 -0.0613
 1321ERGO    C216622   4.594   1.468   8.052  0.0429 -0.2343 -0.1756
 1322ERGO   ROH16623   5.935   7.591   6.786  0.1312  0.0063  0.0538
 1322ERGO    R116624   6.092   7.424   6.952  0.0848 -0.1000 -0.0082
 1322ERGO    R216625   6.253   7.524   7.153  0.1684 -0.2144 -0.0187
 1322ERGO    R316626   6.113   7.350   7.308  0.1164 -0.1805 -0.0265
 1322ERGO    R416627   6.361   7.399   7.457  0.0906 -0.1871  0.0208
 1322ERGO    R516628   6.281   7.205   7.400  0.0824 -0.1866  0.0278
 1322ERGO    C116629   6.293   7.163   7.779 -0.0035 -0.1393  0.0365
 1322ERGO    C216630   6.385   7.145   8.226  0.0079  0.1713  0.3843
 1323ERGO   ROH16631  13.346   9.956   6.805 -0.0180 -0.0250  0.0173
 1323ERGO    R116632  13.459   9.993   7.061  0.0532  0.0644 -0.0265
 1323ERGO    R216633  13.314  10.089   7.276  0.0766  0.0119  0.0146
 1323ERGO    R316634  13.404   9.862   7.396  0.2400  0.0715  0.0077
 1323ERGO    R416635  13.312  10.032   7.617 -0.2185 -0.1447 -0.0096
 1323ERGO    R516636  13.508   9.939   7.598 -0.0743  0.1172  0.1578
 1323ERGO    C116637  13.396   9.787   7.929 -0.2368 -0.1800 -0.0300
 1323ERGO    C216638  12.991   9.778   8.055 -0.1783 -0.3399  0.1235
 1324ERGO   ROH16639  10.148   1.060   6.828  0.0221  0.1293 -0.0693
 1324ERGO    R116640  10.024   0.994   7.074  0.0970  0.1699 -0.0206
 1324ERGO    R216641   9.994   1.176   7.279 -0.1581  0.3071 -0.1772
 1324ERGO    R316642   9.732   1.104   7.261 -0.0665 -0.0609 -0.1327
 1324ERGO    R416643   9.782   1.133   7.549 -0.1238  0.3031 -0.1503
 1324ERGO    R516644   9.698   0.959   7.448  0.1132  0.0805  0.0171
 1324ERGO    C116645   9.413   1.040   7.689 -0.0177 -0.0448 -0.0929
 1324ERGO    C216646   9.104   1.135   7.792  0.0974  0.1117 -0.1560
 1325ERGO   ROH16647  11.042  17.025   6.951 -0.0301 -0.0061 -0.0019
 1325ERGO    R116648  11.083  17.077   7.227 -0.1668 -0.0772  0.0318
 1325ERGO    R216649  10.994  16.905   7.425 -0.1178 -0.2120 -0.0643
 1325ERGO    R316650  11.254  16.914   7.503 -0.1519 -0.0563  0.0358
 1325ERGO    R416651  11.105  16.851   7.747 -0.2125 -0.1470 -0.0200
 1325ERGO    R516652  11.247  17.014   7.721 -0.2978 -0.0595  0.0353
 1325ERGO    C116653  11.413  16.828   8.009 -0.2996  0.0373  0.0997
 1325ERGO    C216654  11.765  16.731   8.175 -0.0206  0.0729 -0.0158
 1326ERGO   ROH16655  17.052   0.300   6.500 -0.2779 -0.1236  0.0194
 1326ERGO    R116656  17.134   0.185   6.745 -0.2084 -0.1576 -0.0185
 1326ERGO    R216657  17.300   0.315   6.923 -0.0042 -0.2546 -0.1281
 1326ERGO    R316658  17.099   0.263   7.099  0.0615 -0.0957 -0.0053
 1326ERGO    R416659  17.346   0.216   7.251  0.1070 -0.1150 -0.1009
 1326ERGO    R516660  17.179   0.077   7.227  0.0467 -0.0614  0.0468
 1326ERGO    C116661  17.185   0.109   7.607  0.2333  0.1155  0.0301
 1326ERGO    C216662  17.346   0.170   7.884 -0.1678 -0.0168 -0.1239
 1327ERGO   ROH16663   1.572  10.655   5.751 -0.2092 -0.0945  0.0080
 1327ERGO    R116664   1.548  10.604   6.028 -0.1146  0.0624  0.0456
 1327ERGO    R216665   1.735  10.458   6.170 -0.1476  0.0104  0.0292
 1327ERGO    R316666   1.739  10.679   6.328  0.0747  0.0874 -0.0787
 1327ERGO    R416667   1.851  10.465   6.495 -0.3256 -0.0017  0.0946
 1327ERGO    R516668   1.685  10.596   6.547 -0.1743  0.2672 -0.0665
 1327ERGO    C116669   1.922  10.676   6.834 -0.2206  0.0636  0.0313
 1327ERGO    C216670   2.077  10.547   7.219 -0.1392  0.0437  0.2401
 1328ERGO   ROH16671   8.814  11.920   6.923 -0.2058  0.0240 -0.0066
 1328ERGO    R116672   8.782  11.989   7.196 -0.3678 -0.2025  0.0352
 1328ERGO    R216673   8.684  11.813   7.384  0.1798 -0.6051 -0.0302
 1328ERGO    R316674   8.913  11.875   7.515  0.0390  0.0148 -0.0483
 1328ERGO    R416675   8.722  11.808   7.727  0.2454 -0.5767 -0.0370
 1328ERGO    R516676   8.840  11.991   7.711 -0.2635 -0.2298 -0.0121
 1328ERGO    C116677   8.960  11.864   8.051  0.1513  0.0216 -0.0578
 1328ERGO    C216678   9.008  11.672   8.364 -0.1399 -0.2043 -0.2267
 1329ERGO   ROH16679  11.011   9.570   6.893  0.2734  0.0392 -0.0896
 1329ERGO    R116680  10.853   9.677   7.102  0.2397  0.0433 -0.1174
 1329ERGO    R216681  10.775   9.528   7.321  0.1186  0.0190 -0.1773
 1329ERGO    R316682  10.889   9.732   7.460  0.1391 -0.0500 -0.0919
 1329ERGO    R416683  10.785   9.550   7.666 -0.0766 -0.0190 -0.1682
 1329ERGO    R516684  10.744   9.764   7.648  0.0409  0.0050 -0.1749
 1329ERGO    C116685  10.898   9.754   7.997 -0.1710 -0.1059 -0.0827
 1329ERGO    C216686  11.040   9.906   8.199 -0.0473 -0.0145  0.1888
 1330ERGO   ROH16687   3.051   5.813  10.093 -0.1514 -0.0217 -0.0781
 1330ERGO    R116688   3.044   5.900   9.823  0.0422  0.1803 -0.0207
 1330ERGO    R216689   3.263   6.011   9.697  0.3415 -0.3311  0.0253
 1330ERGO    R316690   3.216   5.816   9.514 -0.2272 -0.0960 -0.1007
 1330ERGO    R416691   3.410   5.995   9.384  0.0981 -0.4229 -0.0870
 1330ERGO    R516692   3.217   5.931   9.303 -0.1139  0.0696 -0.0136
 1330ERGO    C116693   3.451   5.802   9.030 -0.5775 -0.2557 -0.2706
 1330ERGO    C216694   3.711   5.906   8.784  0.1601 -0.1598 -0.1375
 1331ERGO   ROH16695   4.824  13.851   6.589  0.3299 -0.1559  0.0970
 1331ERGO    R116696   4.897  13.811   6.859  0.1326  0.0299  0.1801
 1331ERGO    R216697   4.782  13.953   7.067 -0.2806 -0.0771  0.0340
 1331ERGO    R316698   4.730  13.705   7.165 -0.0069 -0.1309  0.0507
 1331ERGO    R416699   4.680  13.886   7.390 -0.1490 -0.1745  0.0561
 1331ERGO    R516700   4.811  13.712   7.390  0.0314 -0.0418  0.0348
 1331ERGO    C116701   4.573  13.614   7.671  0.1846 -0.2817  0.0846
 1331ERGO    C216702   4.440  13.622   7.832 -0.3656 -0.2243  0.2319
 1332ERGO   ROH16703   3.384  15.302   6.357 -0.0079  0.0714  0.0237
 1332ERGO    R116704   3.381  15.226   6.629 -0.1163 -0.0159 -0.0024
 1332ERGO    R216705   3.399  15.410   6.835 -0.0350 -0.0977  0.0555
 1332ERGO    R316706   3.170  15.288   6.919 -0.1342  0.0294 -0.0227
 1332ERGO    R416707   3.268  15.433   7.154  0.0104 -0.2125  0.0843
 1332ERGO    R516708   3.217  15.222   7.144 -0.1682 -0.1729 -0.0678
 1332ERGO    C116709   2.977  15.334   7.419 -0.0562 -0.1601  0.0278
 1332ERGO    C216710   2.866  15.612   7.683 -0.2361  0.3816  0.0007
 1333ERGO   ROH16711  12.028   1.342   6.869 -0.0846 -0.1200 -0.0380
 1333ERGO    R116712  11.971   1.162   7.080 -0.1056 -0.2297 -0.1360
 1333ERGO    R216713  12.070   0.904   7.086  0.2110 -0.1142 -0.0721
 1333ERGO    R316714  12.161   0.979   7.331 -0.1618 -0.0368  0.0488
 1333ERGO    R416715  12.047   0.713   7.373 -0.1708 -0.0438 -0.0499
 1333ERGO    R516716  11.998   0.893   7.484 -0.3701 -0.0281 -0.1649
 1333ERGO    C116717  12.120   0.672   7.770 -0.7430  0.0699  0.0764
 1333ERGO    C216718  12.106   0.365   7.784 -0.2046 -0.2147  0.0192
 1334ERGO   ROH16719   2.736  17.089   6.198  0.0295  0.0888 -0.0039
 1334ERGO    R116720   2.842  17.041   6.456 -0.0790  0.0389  0.0320
 1334ERGO    R216721   2.988  17.230   6.595 -0.0579 -0.0205  0.0908
 1334ERGO    R316722   2.803  17.182   6.789 -0.1436  0.0398  0.0245
 1334ERGO    R416723   2.982  17.383   6.905  0.0281 -0.1963  0.1806
 1334ERGO    R516724   2.927  17.191   6.994 -0.1732 -0.1995  0.0569
 1334ERGO    C116725   2.806  17.428   7.267 -0.0023 -0.2418  0.1706
 1334ERGO    C216726   2.606  17.664   7.526 -0.1292  0.1315 -0.2214
 1335ERGO   ROH16727  10.276   8.258  10.662  0.2259 -0.0433 -0.1089
 1335ERGO    R116728  10.286   8.138  10.405 -0.1266 -0.2092 -0.0484
 1335ERGO    R216729  10.067   8.126  10.238 -0.1822  0.3231 -0.0090
 1335ERGO    R316730  10.234   8.246  10.061  0.1486 -0.2349 -0.1049
 1335ERGO    R416731  10.047   8.093   9.895 -0.5338  0.3911 -0.0015
 1335ERGO    R516732  10.265   8.083   9.888 -0.5316 -0.3697 -0.1405
 1335ERGO    C116733  10.193   8.187   9.529 -0.4280 -0.0932 -0.0872
 1335ERGO    C216734  10.229   8.300   9.183  0.3230 -0.0010  0.2094
 1336ERGO   ROH16735  16.911  11.038   9.861  0.0876  0.2175 -0.0029
 1336ERGO    R116736  16.940  10.869   9.636  0.0739  0.1771  0.0247
 1336ERGO    R216737  16.726  10.792   9.478  0.0511  0.0876  0.0927
 1336ERGO    R316738  16.880  10.892   9.278 -0.0241  0.0884  0.0358
 1336ERGO    R416739  16.675  10.735   9.141 -0.0704  0.0956  0.1098
 1336ERGO    R516740  16.891  10.716   9.116 -0.0835  0.0950  0.0289
 1336ERGO    C116741  16.790  10.796   8.757 -0.2113  0.1010  0.0665
 1336ERGO    C216742  16.756  10.857   8.372  0.1365 -0.0570 -0.1468
 1337ERGO   ROH16743   0.569   0.965  10.026 -0.0198 -0.2049  0.1299
 1337ERGO    R116744   0.621   1.110   9.788  0.0376 -0.0873  0.2131
 1337ERGO    R216745   0.866   1.102   9.661  0.0505 -0.0720  0.2352
 1337ERGO    R316746   0.716   1.030   9.446  0.0566  0.0763  0.1799
 1337ERGO    R416747   0.968   1.125   9.331  0.1567 -0.0873  0.2666
 1337ERGO    R516748   0.768   1.194   9.279  0.2213  0.0681  0.2230
 1337ERGO    C116749   0.887   1.071   8.938  0.2243  0.0431  0.2331
 1337ERGO    C216750   1.015   1.108   8.596  0.6362 -0.0833  0.1089
 1338ERGO   ROH16751   0.888  12.924   9.475  0.0332  0.0593  0.0802
 1338ERGO    R116752   0.988  12.896   9.212 -0.0117  0.0623  0.0618
 1338ERGO    R216753   0.826  12.916   8.988 -0.0402  0.1339  0.0831
 1338ERGO    R316754   1.008  13.104   8.914  0.0015  0.0931  0.0856
 1338ERGO    R416755   0.929  12.974   8.664  0.2016 -0.0821  0.1193
 1338ERGO    R516756   1.132  13.000   8.738  0.1413 -0.0174  0.2509
 1338ERGO    C116757   1.160  13.184   8.405  0.3816 -0.2459  0.1427
 1338ERGO    C216758   1.036  13.294   8.169  0.0779  0.1080  0.1068
 1339ERGO   ROH16759   8.715   3.001  10.592 -0.0386  0.0943 -0.0797
 1339ERGO    R116760   8.589   2.899  10.361 -0.2052  0.1321 -0.0051
 1339ERGO    R216761   8.444   3.059  10.188  0.0928  0.2559 -0.1366
 1339ERGO    R316762   8.611   2.953  10.001 -0.0814 -0.1965 -0.0526
 1339ERGO    R416763   8.386   3.061   9.847  0.2536  0.4207 -0.1652
 1339ERGO    R516764   8.464   2.858   9.837 -0.2751  0.1890 -0.1233
 1339ERGO    C116765   8.509   2.964   9.474  0.1837  0.0919 -0.1030
 1339ERGO    C216766   8.526   3.101   9.014 -0.2175  0.3695  0.0201
 1340ERGO   ROH16767   7.229  17.538   8.085 -0.1147  0.0248  0.1724
 1340ERGO    R116768   7.050  17.753   8.124 -0.1015  0.0437  0.1272
 1340ERGO    R216769   7.018  17.877   8.369 -0.0507  0.1343  0.0862
 1340ERGO    R316770   7.074  18.102   8.226 -0.0742  0.0819 -0.0068
 1340ERGO    R416771   6.938  18.199   8.468 -0.0230  0.1720 -0.0116
 1340ERGO    R516772   6.884  18.243   8.261 -0.0648  0.0989 -0.0178
 1340ERGO    C116773   6.943  18.596   8.391 -0.0289  0.1448 -0.1560
 1340ERGO    C216774   6.891  18.833   8.534 -0.0903 -0.1340  0.1088
 1341ERGO   ROH16775  15.114   3.479   6.526  0.0671 -0.0779 -0.1177
 1341ERGO    R116776  15.228   3.351   6.751  0.2048 -0.0001 -0.1422
 1341ERGO    R216777  15.416   3.474   6.913 -0.0676  0.2478 -0.0039
 1341ERGO    R316778  15.241   3.410   7.110 -0.0391 -0.1646 -0.1044
 1341ERGO    R416779  15.501   3.428   7.244 -0.0883  0.0145 -0.0293
 1341ERGO    R516780  15.363   3.259   7.251  0.1107 -0.1630 -0.2296
 1341ERGO    C116781  15.386   3.341   7.623 -0.0736 -0.5085 -0.1386
 1341ERGO    C216782  15.327   3.472   7.917  0.0714  0.0116 -0.0502
 1342ERGO   ROH16783  13.431   6.137   6.536 -0.1899  0.1167 -0.1066
 1342ERGO    R116784  13.423   6.150   6.818 -0.1654  0.0675 -0.1035
 1342ERGO    R216785  13.345   6.378   6.954 -0.0867  0.0660 -0.0569
 1342ERGO    R316786  13.169   6.208   7.073 -0.1299  0.0976 -0.0743
 1342ERGO    R416787  13.321   6.324   7.295 -0.2346  0.1870 -0.0462
 1342ERGO    R516788  13.293   6.112   7.254 -0.2034  0.1695  0.0160
 1342ERGO    C116789  13.143   6.132   7.604 -0.3611  0.2871 -0.0564
 1342ERGO    C216790  13.264   6.275   7.876 -0.1059  0.0951 -0.2105
 1343ERGO   ROH16791   1.020  12.409   5.885  0.1743  0.0643 -0.0964
 1343ERGO    R116792   1.117  12.412   6.152  0.1096  0.1034 -0.0742
 1343ERGO    R216793   1.216  12.641   6.272 -0.0546  0.1495 -0.0386
 1343ERGO    R316794   1.030  12.582   6.461 -0.0605  0.0317 -0.0790
 1343ERGO    R416795   1.243  12.719   6.607 -0.0501 -0.0530  0.0098
 1343ERGO    R516796   1.158  12.524   6.655 -0.0549 -0.0896 -0.1111
 1343ERGO    C116797   1.085  12.708   6.981 -0.0529 -0.2816  0.0002
 1343ERGO    C216798   0.925  12.912   7.155 -0.3257 -0.1475 -0.3069
 1344ERGO   ROH16799   3.879   1.405   6.826 -0.0093  0.0420  0.1200
 1344ERGO    R116800   3.744   1.288   7.046  0.0451 -0.0738  0.0929
 1344ERGO    R216801   3.860   1.095   7.207  0.1815  0.0313  0.1224
 1344ERGO    R316802   3.793   1.268   7.406 -0.0154 -0.0224  0.1040
 1344ERGO    R416803   3.818   1.007   7.538  0.1720 -0.0014  0.1124
 1344ERGO    R516804   3.646   1.141   7.547  0.0551 -0.1460  0.0679
 1344ERGO    C116805   3.730   1.118   7.918 -0.0185 -0.0709  0.0893
 1344ERGO    C216806   3.738   1.273   8.101 -0.0544  0.2159 -0.3364
 1345ERGO   ROH16807   2.408   0.857   9.834  0.0059 -0.0791 -0.0019
 1345ERGO    R116808   2.357   0.704   9.601  0.0437 -0.0893 -0.0037
 1345ERGO    R216809   2.213   0.804   9.387 -0.0184 -0.1362  0.0138
 1345ERGO    R316810   2.434   0.729   9.247 -0.0010 -0.0411 -0.0096
 1345ERGO    R416811   2.232   0.783   9.042  0.0292  0.0961  0.0006
 1345ERGO    R516812   2.349   0.601   9.064  0.0253  0.0825 -0.1084
 1345ERGO    C116813   2.450   0.701   8.710  0.0732  0.3208 -0.0290
 1345ERGO    C216814   2.466   0.682   8.366  0.1097  0.1009 -0.0390
 1346W        W16815  16.498  10.989  13.417 -0.4192 -0.3245 -0.3154
 1347W        W16816  17.048   4.049  14.288  0.2775 -0.0326  0.0961
 1348W        W16817   2.206  11.924  13.198 -0.2003 -0.0747  0.1893
 1349W        W16818   3.694   8.559   0.717  0.2332 -0.0784 -0.3682
 1350W        W16819   1.172   4.830  15.020 -0.0806  0.0229  0.2007
 1351W        W16820   5.852   1.938   5.859  0.0146  0.0877  0.1557
 1352W        W16821   0.020   2.200  15.898 -0.0072 -0.4860  0.1564
 1353W        W16822  16.813   7.001   2.595 -0.2236  0.0738  0.2661
 1354W        W16823   7.650   5.142  13.692 -0.1754  0.0124  0.2565
 1355W        W16824   8.167   5.384   3.073  0.0416 -0.3071  0.1940
 1356W        W16825  12.610   1.066   0.581  0.0388  0.1060 -0.0320
 1357W        W16826  11.697   1.223  13.924 -0.0791  0.1880 -0.3568
 1358W        W16827  10.152  16.512  16.633 -0.0392 -0.1679 -0.4901
 1359W        W16828   8.958  16.647  11.528  0.3023 -0.0564  0.1636
 1360W        W16829   3.165   0.357  15.265 -0.1333 -0.1822  0.2503
 1361W        W16830  11.527  16.576   4.455 -0.2102 -0.1906  0.1070
 1362W        W16831  13.174   6.722   3.159 -0.1113 -0.0189 -0.2000
 1363W        W16832   9.902   4.933  16.083  0.1317 -0.1989  0.0388
 1364W        W16833  12.452  12.984  14.259 -0.0255 -0.0308 -0.1860
 1365W        W16834   5.451   9.496   0.056 -0.0190 -0.1643  0.4291
 1366W        W16835   2.181  15.947  15.043 -0.0298  0.0291  0.0453
 1367W        W16836  17.500  12.066   3.495  0.1274 -0.1814 -0.0467
 1368W        W16837   6.833  13.744  12.834 -0.0806  0.1668 -0.0467
 1369W        W16838   4.458   0.812   5.488  0.0354 -0.0736 -0.0711
 1370W        W16839  11.037  11.608  11.863 -0.1335 -0.0291 -0.0114
 1371W        W16840   9.574   6.395  16.334 -0.0392  0.2886  0.0516
 1372W        W16841  15.007   1.147  12.580  0.1537 -0.1564  0.0713
 1373W        W16842  15.891   7.339  14.131  0.0007 -0.2105 -0.0840
 1374W        W16843  11.099  11.948   4.565 -0.3509 -0.1666 -0.2974
 1375W        W16844  12.031   1.689  14.162 -0.0428  0.0473 -0.1538
 1376W        W16845   4.409  17.591  14.164 -0.0909 -0.0852  0.0245
 1377W        W16846   8.941  11.245  13.027 -0.1448 -0.3083  0.0473
 1378W        W16847  13.514  16.628  13.520  0.2936 -0.0198  0.1317
 1379W        W16848  14.176  13.742   4.415 -0.0859  0.2573 -0.0200
 1380W        W16849  11.120   4.292  12.222  0.2499  0.0093 -0.0854
 1381W        W16850   8.672   6.357   4.610 -0.0960 -0.0768  0.1087
 1382W        W16851   2.979   9.131   4.144 -0.0119 -0.0709 -0.0712
 1383W        W16852  10.090   4.905  14.100  0.1575  0.0249 -0.2229
 1384W        W16853   9.689   7.971   1.499 -0.0076 -0.1185 -0.0838
 1385W        W16854   1.032  14.444   0.317  0.0692  0.0558  0.0923
 1386W        W16855  14.416  16.708  12.546 -0.0387 -0.0360  0.1985
 1387W        W16856  13.048  16.735  13.626 -0.1539  0.0015  0.3883
 1388W        W16857  11.156   9.917   1.240 -0.2099  0.0137 -0.0320
 1389W        W16858  10.162   3.025   0.875 -0.1182 -0.0794  0.1604
 1390W        W16859   6.859  16.711   4.947  0.0059  0.0177  0.3751
 1391W        W16860   3.264  15.940   2.808  0.1033  0.3338  0.2354
 1392W        W16861   7.013  11.901  11.539 -0.1369 -0.0707  0.0556
 1393W        W16862  10.318   2.145   3.724  0.3497 -0.0004 -0.1356
 1394W        W16863   2.002   9.200   3.774 -0.0825  0.1151  0.0304
 1395W        W16864   6.287   0.690   4.317 -0.2085 -0.1398  0.1503
 1396W        W16865  14.874   4.764   1.510 -0.0095  0.0303 -0.0393
 1397W        W16866   9.509   4.116  15.723 -0.2756  0.3240  0.0305
 1398W        W16867  11.794  17.430   0.822 -0.1425  0.0388 -0.1572
 1399W        W16868   1.911  14.048   2.634 -0.3405  0.3693  0.1517
 1400W        W16869  15.669   2.112  13.581 -0.0641  0.0142 -0.2823
 1401W        W16870   8.094   8.600  12.342 -0.3205 -0.0735 -0.0384
 1402W        W16871  13.175  10.437   0.217 -0.3030 -0.1599 -0.1193
 1403W        W16872  10.425  13.292  16.582  0.3454  0.0729  0.2582
 1404W        W16873   7.660   1.400  13.285  0.1024  0.0421 -0.0883
 1405W        W16874   9.555  10.696   5.771  0.1005 -0.0778  0.0625
 1406W        W16875  15.465   7.624   3.365 -0.0585 -0.2962 -0.4587
 1407W        W16876  16.837   2.815   4.994  0.4587  0.0158 -0.3169
 1408W        W16877   5.762  12.146  11.702 -0.3462 -0.0340  0.0803
 1409W        W16878  17.618   1.459   3.242  0.0640 -0.1926  0.1030
 1410W        W16879   9.127   7.796   3.508  0.0668  0.0179 -0.0052
 1411W        W16880   7.551   2.311  16.686  0.1693 -0.1486 -0.0991
 1412W        W16881  13.623  17.227   4.227 -0.1161  0.1460 -0.1293
 1413W        W16882   5.264  16.616  14.161  0.0462  0.0006 -0.1839
 1414W        W16883   3.905   8.143  15.478  0.2925  0.3838  0.0047
 1415W        W16884   1.959   8.687  14.567 -0.0677 -0.0231 -0.0945
 1416W        W16885   6.223   7.872   4.056 -0.1378  0.0851  0.1887
 1417W        W16886  17.660  10.273   9.928  0.1758  0.0633  0.0241
 1418W        W16887   5.075   2.496  13.853  0.1670  0.1926  0.2448
 1419W        W16888   4.246   5.748  16.068  0.0863 -0.1370  0.0531
 1420W        W16889  17.475  12.519   2.362  0.2681  0.0117  0.1284
 1421W        W16890   8.360  15.713   5.649  0.4433 -0.4437  0.0710
 1422W        W16891  16.493   3.605  13.797 -0.2303  0.1619 -0.1719
 1423W        W16892  17.691   8.133  16.349 -0.1492  0.0993 -0.1479
 1424W        W16893   6.544   9.381   0.953 -0.0109 -0.2156  0.2639
 1425W        W16894  16.988   4.690   4.276  0.0262 -0.1908 -0.0201
 1426W        W16895   7.353   7.621   4.768  0.1059 -0.3365  0.2223
 1427W        W16896   2.135   6.503   0.486 -0.0973 -0.4822 -0.1013
 1428W        W16897   3.098  17.117   0.322 -0.0322  0.0193  0.1426
 1429W        W16898   1.613  10.735  16.349  0.0855 -0.2225 -0.0193
 1430W        W16899  14.396   2.002   0.800 -0.0607  0.1227 -0.0231
 1431W        W16900   6.816   1.196  11.328  0.2954 -0.1822 -0.2296
 1432W        W16901   7.238  15.239   6.301  0.0443  0.1310  0.0308
 1433W        W16902   6.196   2.742   5.619  0.1349 -0.0164  0.1506
 1434W        W16903   0.917   7.525  14.478 -0.0551 -0.0935 -0.0201
 1435W        W16904  16.582  15.900  11.305 -0.0707  0.1291 -0.0107
 1436W        W16905  11.955   2.900   4.408 -0.4078 -0.0327  0.0424
 1437W        W16906  15.097   8.883  16.501 -0.1974 -0.2999  0.1498
 1438W        W16907   7.111   8.758  14.539  0.2141  0.0980  0.1891
 1439W        W16908   1.437   4.643  16.341  0.0497  0.0440  0.1713
 1440W        W16909   8.436   5.030   4.394  0.2397  0.0422 -0.3784
 1441W        W16910   9.336  11.205   5.860  0.1152  0.0732 -0.0372
 1442W        W16911   1.073   0.530  12.468  0.1653  0.2097 -0.0685
 1443W        W16912   7.589   2.003  14.305 -0.1372  0.2144  0.0323
 1444W        W16913   9.736   4.729  14.501  0.1940 -0.0534 -0.0323
 1445W        W16914   1.639   7.467  15.535  0.0913 -0.2339 -0.0950
 1446W        W16915   0.133   6.841  14.543 -0.0677  0.1632  0.2571
 1447W        W16916   6.834   5.502   1.001  0.1219 -0.1239 -0.0245
 1448W        W16917   1.573   0.043  16.496  0.0886  0.0858 -0.3173
 1449W        W16918   5.446   2.862  13.887 -0.1073 -0.1503 -0.2504
 1450W        W16919  16.229   0.540   2.263  0.0371  0.2849  0.3005
 1451W        W16920   5.086   4.703  13.478  0.1941  0.0086 -0.0066
 1452W        W16921   2.631  10.907  16.512 -0.3467  0.0266 -0.1926
 1453W        W16922  11.736  16.645   5.657 -0.2560  0.1351  0.2212
 1454W        W16923   6.082   6.169   3.469 -0.1160 -0.0924 -0.0294
 1455W        W16924  14.167  13.196  14.986 -0.3985 -0.1099  0.0267
 1456W        W16925  12.482   1.854   5.862  0.0943 -0.3526  0.1879
 1457W        W16926  16.796   7.344   4.967  0.0712 -0.2471  0.1145
 1458W        W16927  10.701   7.334   1.747 -0.0428  0.1792  0.0120
 1459W        W16928   1.632   1.223   0.495  0.1013 -0.2733 -0.0698
 1460W        W16929  14.457   1.188  13.865  0.1723  0.0508  0.4267
 1461W        W16930  17.067   6.577   1.979  0.0525  0.1002  0.1273
 1462W        W16931   1.388   3.783   4.259  0.0630 -0.0268 -0.2126
 1463W        W16932   9.448   8.353   5.063 -0.1966 -0.6718 -0.5242
 1464W        W16933   4.586   4.069   3.431  0.2428  0.1421 -0.1002
 1465W        W16934   8.079  16.852   1.761  0.1127 -0.0968 -0.2813
 1466W        W16935  10.421   3.117   3.784  0.2590  0.2171 -0.1801
 1467W        W16936   0.424  13.810   0.163 -0.1179  0.2212 -0.1456
 1468W        W16937   4.022  14.369   0.160 -0.0404 -0.0458  0.3858
 1469W        W16938  10.991  11.408   5.342 -0.1000 -0.0290  0.0555
 1470W        W16939   0.853  12.012   5.155  0.1182 -0.0754  0.0583
 1471W        W16940   2.292  17.226   5.999 -0.0440  0.0139 -0.2243
 1472W        W16941   0.993   6.633   4.989  0.0733 -0.1306  0.1371
 1473W        W16942  12.135   1.978  15.811 -0.0712 -0.2411  0.3444
 1474W        W16943   1.697  14.593  12.248 -0.1911 -0.0080  0.0015
 1475W        W16944  13.911   2.517   2.930  0.0650  0.2340 -0.0436
 1476W        W16945  10.816   4.033   2.548  0.0541 -0.2073  0.2034
 1477W        W16946  10.846   1.255  15.647 -0.2632  0.0336  0.2812
 1478W        W16947   7.962  16.568  14.117  0.2861 -0.2790 -0.0582
 1479W        W16948   2.363   7.769  14.393 -0.0184  0.2200 -0.2265
 1480W        W16949  11.880   3.629  16.298 -0.0299  0.0023  0.0241
 1481W        W16950  15.872  16.011  16.501 -0.2087 -0.2180  0.2362
 1482W        W16951  10.403  13.847   0.361 -0.0792 -0.1839  0.0882
 1483W        W16952   5.554  17.559   3.760  0.1091 -0.1887  0.0698
 1484W        W16953  15.730  11.732  14.015  0.2260 -0.2728 -0.1777
 1485W        W16954  12.374  13.082   2.696 -0.2382 -0.0631 -0.0661
 1486W        W16955  12.055   0.223   3.794 -0.1430 -0.0523 -0.1089
 1487W        W16956   0.646  14.834  11.213  0.1345  0.0212 -0.0280
 1488W        W16957   3.242  14.834   3.072  0.0947  0.1217 -0.1654
 1489W        W16958   6.732  13.993  14.248  0.0214  0.2296 -0.1330
 1490W        W16959   1.979   6.605   1.607 -0.2612 -0.0987  0.0343
 1491W        W16960   9.613   1.058   0.822 -0.2275  0.2136  0.0196
 1492W        W16961   6.600   9.612   6.248  0.1917  0.2526 -0.1215
 1493W        W16962   1.206  16.186  15.282  0.2593 -0.0506 -0.1491
 1494W        W16963  10.698   0.942  16.197  0.0315  0.1454  0.0865
 1495W        W16964   0.110   9.570  11.442 -0.2419  0.0840 -0.1376
 1496W        W16965   3.063  14.471  12.985 -0.1437  0.2501  0.3276
 1497W        W16966   2.430  13.249  12.998  0.2751  0.0705  0.1350
 1498W        W16967   2.149   6.131   3.610 -0.0470 -0.1946 -0.0565
 1499W        W16968   7.409  10.547  13.279 -0.0849  0.2783 -0.1439
 1500W        W16969   4.227  11.791   0.400 -0.2209  0.3842 -0.3068
 1501W        W16970   5.926  16.226  13.582 -0.0516 -0.0182 -0.0661
 1502W        W16971   1.186   7.772   0.110  0.2252  0.2662  0.2101
 1503W        W16972   9.933   5.767   1.037 -0.1234  0.1063  0.3055
 1504W        W16973   8.947  11.585  13.582 -0.1740  0.0560 -0.0512
 1505W        W16974  11.619  13.774   1.761 -0.1230  0.1619  0.1105
 1506W        W16975   4.303   9.237  14.582 -0.0329 -0.0940  0.1517
 1507W        W16976  10.133   5.937   2.936 -0.1029  0.0540  0.2522
 1508W        W16977  15.525   6.803   3.552 -0.0504 -0.2123 -0.0321
 1509W        W16978  11.615   8.386  13.890 -0.0279  0.2199 -0.0545
 1510W        W16979  13.468   0.854  11.978  0.1045  0.0601 -0.1160
 1511W        W16980  12.061   9.779   0.516  0.0329 -0.2644  0.2045
 1512W        W16981   0.201  13.950   5.314 -0.1963  0.0688 -0.1303
 1513W        W16982  16.022   1.288  12.007  0.0490  0.2188 -0.0344
 1514W        W16983   7.855  15.340  13.555  0.0522  0.2199  0.2568
 1515W        W16984  12.938   0.169   3.906 -0.0464  0.3600 -0.2358
 1516W        W16985  10.998  13.453   0.683  0.3686 -0.1566 -0.3551
 1517W        W16986   2.060  12.855  15.321  0.0456  0.1234  0.0533
 1518W        W16987   7.322   7.148  15.046 -0.3651 -0.0830  0.2018
 1519W        W16988  10.272  11.370   5.318  0.0264 -0.3031  0.0564
 1520W        W16989  13.192   3.740   0.728  0.2159  0.0886  0.2934
 1521W        W16990   4.396   2.672   2.094  0.1449  0.0920 -0.1319
 1522W        W16991   6.989   1.416   2.389 -0.0401 -0.1756  0.3521
 1523W        W16992   2.180  17.142   4.695 -0.2996 -0.1190 -0.2125
 1524W        W16993  17.516   1.812  14.300  0.4222 -0.2225  0.1637
 1525W        W16994   6.694   0.809   5.789  0.0955 -0.0585 -0.1345
 1526W        W16995  11.704  15.419   2.206  0.0056 -0.1934 -0.1167
 1527W        W16996   4.669  13.096  16.765  0.2770 -0.0241 -0.3234
 1528W        W16997  11.566  14.523  10.836  0.1237  0.4013  0.1820
 1529W        W16998   4.535   1.031   6.410  0.4762  0.0134  0.1227
 1530W        W16999  12.352   7.236  16.297 -0.0670  0.2168 -0.0897
 1531W        W17000   8.651   5.281   6.380 -0.0938  0.2401 -0.1397
 1532W        W17001   5.598   4.352  12.204  0.0337  0.1635 -0.0598
 1533W        W17002  16.732  13.315  12.876  0.5505 -0.0835  0.0679
 1534W        W17003  15.139   5.731  16.118 -0.0267 -0.3143  0.1289
 1535W        W17004   4.719   0.849  13.002 -0.0951 -0.2179  0.1165
 1536W        W17005  12.586   2.756   5.105 -0.0467 -0.0224  0.1881
 1537W        W17006  10.162  17.312  13.338 -0.1330 -0.0217 -0.0919
 1538W        W17007  15.682  17.700  11.353  0.3689  0.0707  0.0464
 1539W        W17008   5.435  10.478  14.094  0.3927  0.1571  0.1250
 1540W        W17009   3.079   8.087   2.101  0.0332  0.1029 -0.1263
 1541W        W17010  10.051   8.774  14.260 -0.0735  0.0965 -0.1536
 1542W        W17011   0.666   3.004   3.712 -0.1470  0.0840  0.2088
 1543W        W17012  17.764   1.592   1.364 -0.0175 -0.1019 -0.1366
 1544W        W17013   0.112   5.625   4.103  0.2050 -0.0889 -0.1260
 1545W        W17014   5.192  15.281  14.173  0.2071 -0.2481  0.0063
 1546W        W17015  12.916   1.911  14.682  0.1948 -0.3922 -0.2549
 1547W        W17016   9.646   3.733  14.471 -0.0823 -0.0485  0.3278
 1548W        W17017   3.334   6.696  12.591  0.0617  0.1592  0.0128
 1549W        W17018  12.914   1.719   3.916  0.1852  0.1994  0.0789
 1550W        W17019  17.348  14.078   0.694 -0.1740 -0.0257  0.2254
 1551W        W17020   9.595  10.897  16.267 -0.0824 -0.2318  0.1517
 1552W        W17021   8.104  12.128   3.384 -0.0987 -0.0015  0.1750
 1553W        W17022   9.835   7.167   1.314  0.0812 -0.2043 -0.1306
 1554W        W17023  10.695   9.808   1.965  0.0735 -0.0956 -0.0459
 1555W        W17024  13.433   7.254   2.057 -0.0441  0.0972 -0.0388
 1556W        W17025  15.375   1.082   3.917 -0.2325 -0.0179 -0.0236
 1557W        W17026  15.732  11.292  12.332 -0.1428 -0.2282 -0.3936
 1558W        W17027   3.624  11.593   6.300  0.0712 -0.0061 -0.1242
 1559W        W17028   5.579   3.790   3.130 -0.0204  0.2214 -0.2129
 1560W        W17029   6.196  15.633   0.085 -0.1306  0.2709  0.1473
 1561W        W17030   2.994   8.893   2.607  0.1856 -0.1161  0.0006
 1562W        W17031  11.728  15.733  13.075  0.0619  0.1121  0.1105
 1563W        W17032  13.511   7.593   4.513  0.0064  0.1545  0.1760
 1564W        W17033  14.495   4.332   5.580 -0.3218 -0.0600  0.0611
 1565W        W17034  16.267  12.486   4.204 -0.0160 -0.0164  0.1871
 1566W        W17035  14.482  11.301  12.616  0.2125 -0.2078  0.2347
 1567W        W17036   9.242   7.173  15.676 -0.1677  0.1486 -0.1435
 1568W        W17037  16.039  10.504  16.746 -0.1059 -0.0136  0.1222
 1569W        W17038  15.251   2.532   1.464  0.2745 -0.0086 -0.2944
 1570W        W17039   4.236  15.980   2.654  0.3050 -0.1068 -0.1811
 1571W        W17040   3.653  10.849   1.793  0.0763  0.0334 -0.0420
 1572W        W17041   3.572  10.389   4.222 -0.0687  0.2012  0.3936
 1573W        W17042  10.342   4.576   1.805 -0.0095 -0.2041  0.0401
 1574W        W17043   4.668   6.047   5.805  0.2021  0.0254 -0.0172
 1575W        W17044   4.066   5.837   1.168  0.0992 -0.1583 -0.2304
 1576W        W17045  15.959  14.944  14.798  0.0024 -0.1624  0.1092
 1577W        W17046   1.770  17.419  14.939  0.0474  0.0476 -0.2486
 1578W        W17047  14.826  11.496  12.916 -0.2200  0.0062 -0.5075
 1579W        W17048  14.770  10.948  16.650  0.1730 -0.1032  0.2198
 1580W        W17049   6.160  16.064   1.462  0.1207  0.0152  0.2227
 1581W        W17050   3.635  11.266  14.413  0.0982  0.2242  0.0528
 1582W        W17051  17.347   4.723  15.069 -0.0408 -0.2037  0.2373
 1583W        W17052  13.989  17.031   3.426 -0.1488  0.2105  0.0878
 1584W        W17053  15.658   4.821  12.278  0.1367 -0.2337  0.0577
 1585W        W17054   4.926   1.050   5.093 -0.0346 -0.3850 -0.0367
 1586W        W17055  10.469  15.863   2.540 -0.2242  0.1033  0.1539
 1587W        W17056   4.202  14.754  13.346 -0.0664 -0.1957 -0.4570
 1588W        W17057   9.778  15.907   3.192  0.0622  0.0838  0.3001
 1589W        W17058   4.465   2.111   1.888 -0.1848 -0.2540 -0.1278
 1590W        W17059  15.512  12.268  16.720  0.1169 -0.1054 -0.1822
 1591W        W17060   9.547   3.014  16.700 -0.3770  0.0083 -0.0781
 1592W        W17061   2.274   6.176  16.093 -0.0937  0.0145 -0.0430
 1593W        W17062   3.567   1.308   0.854  0.2084  0.1079 -0.0275
 1594W        W17063  14.439   5.898   4.207 -0.1015  0.0501 -0.3162
 1595W        W17064   6.588  14.440   0.913 -0.1851 -0.0355  0.0738
 1596W        W17065   8.167  10.297   0.079  0.0454  0.1251  0.1340
 1597W        W17066  11.687  11.051  13.153  0.4969 -0.2231 -0.3114
 1598W        W17067  15.080   1.556   4.258 -0.0475 -0.2247  0.1353
 1599W        W17068   9.641   5.783  14.274  0.1321 -0.1115 -0.0683
 1600W        W17069   1.114  12.042   2.810  0.2352 -0.0394 -0.1567
 1601W        W17070   1.773   0.755  12.724  0.0708  0.0734 -0.0004
 1602W        W17071   0.920  15.096   5.678 -0.0472 -0.0367 -0.2343
 1603W        W17072   7.441   4.768  14.702 -0.2543  0.2698 -0.1284
 1604W        W17073  11.266   0.370  12.474 -0.0863 -0.0887 -0.0341
 1605W        W17074   7.031   3.791   2.170  0.1838 -0.0770  0.0288
 1606W        W17075   5.461  11.105  15.849 -0.1067  0.2218  0.0333
 1607W        W17076  13.267  16.580   0.294 -0.1101  0.2111 -0.1381
 1608W        W17077  17.022   3.749   3.735  0.0742  0.0069 -0.3343
 1609W        W17078   2.429  11.911   3.631 -0.1870  0.2637  0.2078
 1610W        W17079   4.627  11.782   3.654 -0.1044  0.5012 -0.1754
 1611W        W17080   4.447  13.467   3.928  0.0839  0.1786  0.1870
 1612W        W17081  11.556   5.824   3.901 -0.2569  0.1321  0.1704
 1613W        W17082   6.933  14.432   6.605 -0.0316 -0.1708  0.0199
 1614W        W17083   9.145  15.596  13.202 -0.0536  0.2223  0.1724
 1615W        W17084  11.875   0.229  13.268  0.3224 -0.0241 -0.1027
 1616W        W17085  13.966  11.024  13.275 -0.2998  0.1546 -0.2815
 1617W        W17086   9.094   5.542   0.360  0.2687 -0.1265 -0.0484
 1618W        W17087  15.350  12.362   6.273  0.2218  0.3447 -0.0547
 1619W        W17088  10.834   6.811  12.183  0.0288  0.1598 -0.0974
 1620W        W17089  10.917  16.811   3.156  0.3160 -0.3353  0.1242
 1621W        W17090  15.939   4.594  13.250 -0.1828 -0.0550 -0.0405
 1622W        W17091  15.309   5.833  13.100  0.0351 -0.0330 -0.0948
 1623W        W17092   0.709  12.717   4.057 -0.1603  0.0395 -0.1153
 1624W        W17093  13.568  11.276   2.677 -0.2640  0.2043  0.1388
 1625W        W17094  13.467  16.841   3.470 -0.6559 -0.0359 -0.2971
 1626W        W17095   2.135   6.546   5.105 -0.2408  0.1867  0.0578
 1627W        W17096   0.444   0.966  11.012  0.0253 -0.3308  0.3359
 1628W        W17097   3.262  11.030   4.982  0.2681  0.0840 -0.1157
 1629W        W17098   4.696   7.091   3.447 -0.3714  0.0873  0.3807
 1630W        W17099   3.271  12.221   3.301 -0.2260  0.1428  0.1417
 1631W        W17100   1.094  17.594  11.575  0.0196  0.0858  0.0527
 1632W        W17101   8.571  14.966   6.496 -0.2984 -0.0634  0.3497
 1633W        W17102   0.047   3.516   1.033 -0.1661 -0.0000 -0.0939
 1634W        W17103  15.931  10.515  14.459 -0.0895  0.0536  0.0463
 1635W        W17104   0.434   6.540  14.145  0.2273 -0.2329  0.0380
 1636W        W17105  12.875   8.274   4.055 -0.0652  0.0995 -0.3218
 1637W        W17106   0.039   6.160   1.668  0.2492  0.0972  0.2837
 1638W        W17107  13.262  10.646  13.655  0.2738  0.3109 -0.0918
 1639W        W17108  11.829   4.465   5.185 -0.3434 -0.3208 -0.2228
 1640W        W17109   6.303   3.125  16.274  0.0677 -0.0956 -0.1333
 1641W        W17110   5.264   5.798  12.573 -0.2956  0.0712  0.1157
 1642W        W17111  13.880   1.678   0.424 -0.0071 -0.0325  0.0527
 1643W        W17112   1.849  17.038  11.244 -0.2374 -0.1800 -0.1389
 1644W        W17113   6.231  14.095  16.532 -0.1002 -0.0387  0.2299
 1645W        W17114  16.154   6.613  15.338 -0.1133 -0.1228  0.2036
 1646W        W17115   1.795   9.983   0.549 -0.1717 -0.3120 -0.0099
 1647W        W17116   2.989   2.376   0.538  0.1197  0.0930 -0.3686
 1648W        W17117  17.574  17.514   2.945 -0.2103 -0.0622  0.0122
 1649W        W17118  14.493   3.240  15.473 -0.1173 -0.0559  0.2847
 1650W        W17119   9.118  14.729  15.405  0.1214  0.2562  0.1303
 1651W        W17120   1.702  14.822  16.418 -0.1050 -0.0896 -0.3490
 1652W        W17121   7.990   2.066  16.826 -0.0112 -0.0410  0.0642
 1653W        W17122   0.529   4.161  16.382 -0.1558 -0.3242  0.0990
 1654W        W17123   2.673   7.010   2.918 -0.0852  0.0835  0.3454
 1655W        W17124  14.971  10.286  15.385  0.0406 -0.0388 -0.1500
 1656W        W17125   0.115   0.238   3.424 -0.4293  0.1910 -0.0116
 1657W        W17126  10.879   6.602   4.057  0.0786 -0.1225 -0.0618
 1658W        W17127  14.633   1.270   4.363 -0.0798  0.1113  0.0043
 1659W        W17128   4.234  10.566   1.306  0.0590 -0.1228  0.1000
 1660W        W17129  17.061   3.893  10.784 -0.1153  0.2567  0.1533
 1661W        W17130  12.722  13.513   1.991 -0.2571  0.0330  0.3618
 1662W        W17131  15.824   9.712  12.155 -0.2063  0.1079 -0.1653
 1663W        W17132   3.928  16.722   5.626  0.1506  0.1458 -0.1414
 1664W        W17133  10.141   6.621  14.736 -0.3874  0.0180  0.0665
 1665W        W17134   3.739  12.364  13.948  0.0348 -0.0532  0.0049
 1666W        W17135  13.890   1.786   0.957  0.2025  0.1083 -0.0761
 1667W        W17136  11.677   2.624   0.638  0.0021 -0.0208  0.1618
 1668W        W17137   4.783   6.392   1.412  0.3389  0.1419  0.2662
 1669W        W17138   0.627   0.104  16.553 -0.1910  0.0296 -0.0682
 1670W        W17139   3.411   2.654  14.597  0.0174 -0.0804 -0.0272
 1671W        W17140   5.091   0.519  16.822 -0.0153 -0.1817  0.0922
 1672W        W17141   7.480   1.087  12.139  0.2589  0.0887  0.1002
 1673W        W17142   6.303  16.702   4.766  0.2352  0.2232 -0.0668
 1674W        W17143   9.656  12.271   2.804  0.1418 -0.1256  0.0072
 1675W        W17144   5.617   4.504   5.063 -0.0895  0.1066 -0.0229
 1676W        W17145   9.600  14.801   5.054 -0.0300 -0.0080 -0.2773
 1677W        W17146   4.163  12.587  16.470 -0.0505  0.3967  0.0792
 1678W        W17147   3.318  13.712  12.854  0.1580 -0.1258  0.0337
 1679W        W17148  15.450  10.749   1.003  0.1524 -0.0960  0.4725
 1680W        W17149   7.056  16.786   1.876  0.5066  0.0058 -0.2494
 1681W        W17150   7.608   6.943   4.046 -0.1406 -0.3130 -0.2390
 1682W        W17151   4.738  16.731  12.699  0.2263  0.0741 -0.5524
 1683W        W17152   4.529   5.351   3.044 -0.2951 -0.2242  0.0169
 1684W        W17153  17.778   1.651  16.844  0.0807 -0.0894  0.0026
 1685W        W17154  14.622  13.428  12.909  0.3106 -0.1435  0.1874
 1686W        W17155  10.163  11.712  14.528  0.1306  0.0437  0.2559
 1687W        W17156   7.109   0.436   1.014  0.2191 -0.3265  0.0407
 1688W        W17157   7.473   2.145  15.806  0.2099  0.0286  0.0916
 1689W        W17158   0.661  15.363   4.621 -0.0243 -0.1749 -0.0156
 1690W        W17159  17.739   6.391  14.201  0.2494 -0.2604 -0.0055
 1691W        W17160   8.077   5.154  15.984 -0.0452 -0.0267 -0.2488
 1692W        W17161   4.429   6.874  15.961 -0.2565  0.2416 -0.0423
 1693W        W17162   4.226   9.708  16.737 -0.2432  0.1894 -0.0699
 1694W        W17163   8.349   6.431  12.833 -0.0104 -0.0592  0.0908
 1695W        W17164   8.050   0.862   1.858 -0.4263 -0.1139 -0.0059
 1696W        W17165  14.963  15.305  13.464 -0.0405  0.0027  0.1289
 1697W        W17166   0.303  14.527  10.735  0.1287 -0.1019 -0.1565
 1698W        W17167  14.720  11.557  15.167  0.0057  0.1424  0.0669
 1699W        W17168   3.549   1.878   1.546 -0.0021 -0.2621  0.2986
 1700W        W17169  16.893  13.374  11.712 -0.0837 -0.1643 -0.0461
 1701W        W17170   7.877  12.972   5.775 -0.0637 -0.1526  0.2030
 1702W        W17171   5.294   4.170   0.032  0.1379  0.0703  0.0064
 1703W        W17172  14.864  15.180   5.105  0.0618 -0.1268  0.0487
 1704W        W17173   8.572   3.166  16.081 -0.0978  0.1353 -0.1854
 1705W        W17174   9.940   8.136   2.341  0.3224  0.4237 -0.0131
 1706W        W17175   5.981  14.505  13.011  0.0416  0.0808  0.2534
 1707W        W17176   5.178  12.963   3.370 -0.0073  0.1091  0.1130
 1708W        W17177   6.332   0.473   3.222  0.0653 -0.1488  0.0868
 1709W        W17178  17.426   8.073  11.122 -0.0101 -0.0633 -0.2467
 1710W        W17179   6.694  17.350   2.978 -0.0239 -0.1598 -0.0307
 1711W        W17180   8.764   7.351  16.734 -0.0284 -0.0847  0.1898
 1712W        W17181  16.058   4.167   1.424  0.2205  0.0381  0.0326
 1713W        W17182  15.667  15.282   5.710  0.0348  0.1673  0.0550
 1714W        W17183   5.309   1.224   2.366 -0.2475 -0.1353 -0.0495
 1715W        W17184  16.954  13.356   1.401  0.1617 -0.1071  0.0664
 1716W        W17185   1.215   5.375  11.844 -0.3088  0.0833  0.2136
 1717W        W17186   2.269  15.934  13.322  0.0854  0.0668 -0.0921
 1718W        W17187  16.383  17.687   1.622  0.1299 -0.1104  0.0709
 1719W        W17188   6.471   5.649  11.133  0.0458 -0.3069  0.1108
 1720W        W17189   7.758  11.828   5.248  0.2174 -0.2915  0.0110
 1721W        W17190   2.375  13.098   4.662 -0.0540 -0.2749 -0.3535
 1722W        W17191   5.889  10.460  14.281 -0.0962  0.2696 -0.0079
 1723W        W17192   8.965   8.249   3.499 -0.0874 -0.2668  0.0233
 1724W        W17193   6.963   8.928  12.471 -0.0299 -0.0186  0.1403
 1725W        W17194   4.569  11.598   1.287  0.0597  0.2024 -0.1885
 1726W        W17195  13.072   6.112  16.621  0.1710 -0.0067  0.0214
 1727W        W17196  16.242   4.562   5.503 -0.1674  0.1389  0.3008
 1728W        W17197  15.855   9.627  14.245 -0.0309 -0.0391  0.2234
 1729W        W17198   7.174   6.955  14.111 -0.1900  0.1019 -0.1094
 1730W        W17199  10.152   9.791   2.895 -0.1319  0.0228 -0.2311
 1731W        W17200   1.395   5.446  11.257  0.3943 -0.1954 -0.0429
 1732W        W17201   3.276  11.814   4.000  0.1179  0.2051  0.0613
 1733W        W17202  17.627   5.136  15.157 -0.0680  0.1399 -0.2091
 1734W        W17203   3.216   8.867  13.835 -0.0442  0.0692 -0.0362
 1735W        W17204   5.373  13.146   2.151 -0.2009  0.0313  0.0549
 1736W        W17205  17.069   4.643  15.739  0.0027 -0.1437  0.0111
 1737W        W17206  15.529  11.314   2.271 -0.0593 -0.4201 -0.0566
 1738W        W17207  16.885  12.257   0.661  0.1593 -0.1752 -0.1173
 1739W        W17208   4.566  16.922   2.748 -0.0649  0.1664  0.0665
 1740W        W17209   5.459   6.452  12.455  0.3036  0.1192  0.2780
 1741W        W17210  10.456  16.501   3.249  0.1360  0.0042  0.1242
 1742W        W17211  13.400  16.419   3.045 -0.2743  0.0889 -0.1812
 1743W        W17212  16.319  15.554  12.800  0.2024  0.1068  0.0625
 1744W        W17213  16.440   8.459  14.296 -0.0064 -0.0083  0.2329
 1745W        W17214  17.097   0.693  14.503 -0.0170  0.0099 -0.0985
 1746W        W17215   5.111   4.670  12.335 -0.1105  0.2534 -0.0370
 1747W        W17216  10.305  14.128  15.059  0.1746  0.0314 -0.0738
 1748W        W17217  12.025   1.532   2.997  0.1455 -0.0952 -0.3424
 1749W        W17218   6.905  14.874  16.347  0.2199  0.0645  0.1795
 1750W        W17219  13.415  11.058  13.432  0.1028  0.1950 -0.1386
 1751W        W17220  15.087  10.050   2.338 -0.1334  0.0094 -0.1270
 1752W        W17221  14.599   3.670  13.962 -0.0597  0.1062  0.0469
 1753W        W17222   3.602  12.500  14.546 -0.0605 -0.0223 -0.2550
 1754W        W17223   5.138   5.089  12.588 -0.5209  0.2020 -0.0399
 1755W        W17224  11.073   3.653   5.617 -0.0452 -0.0304  0.2520
 1756W        W17225   1.162   2.607  12.116  0.1905 -0.0652 -0.1054
 1757W        W17226  15.470  14.667  10.995  0.2580  0.2799  0.2659
 1758W        W17227   4.427  17.192  15.812  0.0978 -0.2089  0.0207
 1759W        W17228   5.094  13.103  12.537  0.0551  0.0048 -0.4287
 1760W        W17229   0.635  15.853   4.802 -0.3965  0.2515 -0.1562
 1761W        W17230   2.529   6.078  14.631 -0.0595 -0.2349 -0.0704
 1762W        W17231  12.254  15.884  16.675 -0.0291  0.0249  0.0128
 1763W        W17232  11.157  11.049   1.922 -0.0759 -0.0851  0.0547
 1764W        W17233   7.943   4.692  14.368 -0.2121  0.0791 -0.1480
 1765W        W17234  17.519  17.666   0.395 -0.4114 -0.1263 -0.2025
 1766W        W17235   2.768   2.698  10.846 -0.0996  0.1066  0.0754
 1767W        W17236  13.917   2.511   3.582 -0.0945  0.1515  0.2697
 1768W        W17237   4.534   9.295   5.861 -0.3057 -0.1490  0.2332
 1769W        W17238  16.965  13.313   0.884 -0.2178  0.2185  0.0947
 1770W        W17239  13.286   5.617  15.485  0.0680  0.2351 -0.1089
 1771W        W17240   7.703   2.337   4.516  0.0509 -0.1966  0.0455
 1772W        W17241   3.168   5.263   0.512 -0.4618  0.2189  0.1950
 1773W        W17242  16.636   7.809  15.180 -0.0563  0.2560 -0.0557
 1774W        W17243  12.545  12.372   0.993  0.0762  0.0437  0.0947
 1775W        W17244  14.148   7.865   1.346  0.4735  0.0112 -0.1521
 1776W        W17245  12.605  15.116  16.312 -0.1808  0.1363 -0.1261
 1777W        W17246  14.632  16.561  11.668 -0.1822  0.1877 -0.2219
 1778W        W17247   3.675   3.375   1.489  0.0190  0.1936 -0.0966
 1779W        W17248  15.226   6.743  13.406 -0.0881 -0.1118  0.1191
 1780W        W17249   1.391   4.751  11.420 -0.1570 -0.1142 -0.0060
 1781W        W17250   2.675   2.234  12.772 -0.2099  0.0871 -0.1124
 1782W        W17251  11.586  16.288   3.493 -0.3712 -0.4172 -0.1624
 1783W        W17252   0.568   1.513  15.916  0.3766 -0.1781 -0.1467
 1784W        W17253   8.337   9.583   3.645 -0.3533 -0.0103 -0.4709
 1785W        W17254   0.693  11.968  13.716 -0.3822  0.2222 -0.1298
 1786W        W17255   4.632  11.784   0.671  0.0083 -0.1149 -0.0575
 1787W        W17256  10.061  13.036   5.713 -0.4912 -0.1945 -0.2404
 1788W        W17257  14.784  12.950   3.676 -0.0626  0.1122  0.4542
 1789W        W17258   8.998  13.935  15.799 -0.3295  0.0844 -0.2415
 1790W        W17259   8.739   2.645  16.290 -0.1201 -0.0435  0.0876
 1791W        W17260  13.563   3.875   5.623  0.2878  0.2971  0.1729
 1792W        W17261   9.143  14.367  15.898  0.3311 -0.5387 -0.0599
 1793W        W17262  14.478  17.167  12.307 -0.0363  0.0659 -0.0846
 1794W        W17263   7.439  13.547  14.016  0.0061  0.0303 -0.1677
 1795W        W17264   0.341   0.873   0.228 -0.0557 -0.1144  0.6024
 1796W        W17265  17.549   0.794   1.957 -0.2100 -0.0456  0.2145
 1797W        W17266   0.829   5.572   4.054 -0.0599  0.0669  0.1275
 1798W        W17267   7.128  14.553   1.982  0.1075 -0.1399  0.0700
 1799W        W17268  14.572   8.497   4.679 -0.1135  0.1188 -0.2043
 1800W        W17269  11.689  14.792   5.893  0.0909 -0.2560 -0.0297
 1801W        W17270   0.657  12.033  12.759 -0.1369 -0.2309  0.1944
 1802W        W17271   4.592  17.436  14.995  0.1610  0.2702 -0.4079
 1803W        W17272  16.094  13.178  14.253 -0.1894 -0.0789  0.1131
 1804W        W17273   5.519   9.547   3.359  0.1168 -0.1731 -0.3514
 1805W        W17274  17.459   3.353  13.599  0.1475 -0.1470  0.0388
 1806W        W17275   4.140  14.128  12.187 -0.2075  0.0588 -0.1348
 1807W        W17276   4.390   9.939  16.292  0.0791 -0.1182 -0.0954
 1808W        W17277  14.832  12.443   3.426 -0.0449  0.0632  0.3069
 1809W        W17278  11.476   1.539   2.744 -0.1310 -0.0405  0.0933
 1810W        W17279  14.860   7.363  14.107 -0.0018  0.0539 -0.0127
 1811W        W17280  11.515  11.117   1.472  0.1425 -0.2634  0.1627
 1812W        W17281   6.885   8.249   2.584  0.0862 -0.2375 -0.2195
 1813W        W17282   2.099   6.271  14.993 -0.0317  0.0289  0.1609
 1814W        W17283   5.479   8.286   3.669 -0.1263  0.0866 -0.0861
 1815W        W17284   1.361  15.561   4.874  0.2303  0.0022  0.0392
 1816W        W17285  12.603  15.100   3.194 -0.1345 -0.0080  0.0760
 1817W        W17286  16.263   9.669  13.891 -0.2310 -0.1088  0.0813
 1818W        W17287  13.629   3.982   0.764  0.0584 -0.0709 -0.2764
 1819W        W17288   1.047   8.000  12.983 -0.0851  0.0223 -0.2848
 1820W        W17289   9.272  12.337   3.929 -0.0534  0.0302 -0.1377
 1821W        W17290   2.137   8.473   2.946  0.0165 -0.1286  0.1390
 1822W        W17291  14.017  17.698  13.940  0.1401  0.0023 -0.1741
 1823W        W17292  10.390   6.658   0.768 -0.1089  0.0930  0.1055
 1824W        W17293  10.059  12.953  16.627 -0.3808 -0.1632  0.1392
 1825W        W17294   9.603   3.259  14.349  0.1166  0.1358  0.0679
 1826W        W17295  11.727  10.923   5.459 -0.0171  0.1004 -0.1421
 1827W        W17296  11.064  11.829   2.360 -0.0789 -0.0366  0.0095
 1828W        W17297  11.744   5.757  16.405 -0.1859 -0.0693  0.2199
 1829W        W17298   5.267  15.737   3.374  0.0057  0.0030  0.0535
 1830W        W17299  11.087  15.955   1.714  0.1274  0.0461 -0.1796
 1831W        W17300   7.903   6.957   2.813 -0.3140  0.0974  0.0743
 1832W        W17301  13.613  10.888  12.485  0.0277  0.0169 -0.0735
 1833W        W17302  14.367  11.158   2.730  0.1609 -0.2625 -0.0825
 1834W        W17303  12.038  12.468   0.095 -0.0344 -0.1874 -0.4273
 1835W        W17304  15.336  17.030  14.245 -0.1044 -0.0970 -0.2392
 1836W        W17305   2.663  10.352  12.717  0.2421 -0.2087 -0.1756
 1837W        W17306   9.101   4.172   2.423  0.1408 -0.1988  0.0132
 1838W        W17307  10.366  17.410   2.660  0.1749 -0.2519  0.0796
 1839W        W17308   0.316  15.741   2.879  0.0603  0.1519  0.3019
 1840W        W17309   3.527  11.740   4.430 -0.0206  0.3469  0.0152
 1841W        W17310   1.749   9.710  12.085 -0.3444 -0.1513 -0.1710
 1842W        W17311   5.646   4.277  16.504 -0.2265  0.0000  0.0028
 1843W        W17312  17.284  13.492  13.491  0.0130 -0.4016  0.3507
 1844W        W17313   9.398  11.966  15.622 -0.1467  0.0754 -0.0819
 1845W        W17314  10.348   1.706  14.200  0.1471  0.1825  0.0588
 1846W        W17315  13.108  11.762   2.096 -0.0113 -0.0113  0.1280
 1847W        W17316  11.331  11.164   0.918  0.2241  0.1104  0.0875
 1848W        W17317  11.152  10.013   2.986 -0.1732  0.0940 -0.0125
 1849W        W17318   1.900   6.063  11.580 -0.3645 -0.1594  0.1674
 1850W        W17319  10.456   8.008   2.196 -0.1908 -0.0826 -0.3277
 1851W        W17320  16.275  17.604   4.883  0.1192  0.0743 -0.0747
 1852W        W17321  17.771   0.938  12.250  0.0131 -0.0227  0.2598
 1853W        W17322  10.369  15.756  12.803 -0.0003  0.0960  0.6703
 1854W        W17323  16.181  11.392  13.424 -0.2325 -0.0880  0.1665
 1855W        W17324   0.342   7.959  10.717  0.1463  0.1561  0.0640
 1856W        W17325   9.009   8.719  16.631 -0.0669 -0.0518  0.1346
 1857W        W17326  11.841   5.430   4.105  0.2489 -0.3707 -0.0212
 1858W        W17327  16.322   5.042  14.614  0.0997  0.2192 -0.0727
 1859W        W17328  17.731   9.480   5.577  0.3077  0.2026  0.0759
 1860W        W17329  13.635  16.114  15.857  0.0741  0.0378 -0.2195
 1861W        W17330  15.887  13.986  13.242  0.0123 -0.2122 -0.2310
 1862W        W17331   6.129   9.260  15.305  0.4634  0.3622  0.0031
 1863W        W17332  12.104  17.609   6.386  0.0592  0.1168 -0.0740
 1864W        W17333   8.995   2.086   5.361 -0.0017  0.1044  0.1522
 1865W        W17334   8.609   7.552   6.193  0.2005 -0.0705 -0.0146
 1866W        W17335   4.496  15.259   1.523 -0.1437  0.0473  0.2229
 1867W        W17336   2.218   9.642  13.341  0.1508  0.1612 -0.2221
 1868W        W17337   7.300  15.230   0.887 -0.0250 -0.2146  0.0511
 1869W        W17338   7.573  14.827   0.249  0.4873 -0.1076  0.1965
 1870W        W17339   7.428   8.323   0.787 -0.3838 -0.1043 -0.2191
 1871W        W17340  10.534  17.535  13.104  0.4972  0.1528 -0.2627
 1872W        W17341   4.873  17.301   2.632 -0.2232  0.2141  0.2034
 1873W        W17342   2.053   7.756  10.429  0.0636  0.0980 -0.2676
 1874W        W17343  13.072   0.848   4.972  0.3024  0.1291  0.0696
 1875W        W17344  15.991  10.698  12.160 -0.1973  0.3912 -0.2624
 1876W        W17345  12.318   8.485   0.125  0.5777 -0.0407 -0.0177
 1877W        W17346   4.015  16.582  16.176  0.1793 -0.1919 -0.0943
 1878W        W17347  13.759   1.270  12.066 -0.0586 -0.0313  0.2975
 1879W        W17348  12.915  13.583  12.240 -0.1691  0.0589  0.0758
 1880W        W17349   3.070   3.721  15.673 -0.1821  0.2247 -0.1220
 1881W        W17350   9.244   9.521  14.342  0.4415 -0.1451  0.0728
 1882W        W17351  17.505  11.986  12.425  0.0767  0.2053  0.2381
 1883W        W17352   0.443  13.609   2.454 -0.1590 -0.0454  0.2334
 1884W        W17353  10.221   4.505   4.994  0.2283  0.6545 -0.3131
 1885W        W17354   4.742  17.443   1.323 -0.1828  0.1890 -0.0387
 1886W        W17355   0.583   2.847  11.028  0.2002 -0.1175 -0.0771
 1887W        W17356  12.828  16.411  16.103 -0.0824 -0.2147 -0.0674
 1888W        W17357  13.923  11.676   0.856 -0.2043  0.0441 -0.0780
 1889W        W17358  11.538   4.535  12.305  0.0041  0.0224 -0.0948
 1890W        W17359   7.606  11.010   2.714  0.0326  0.0142 -0.0371
 1891W        W17360  13.940  17.642  14.911  0.2959  0.2034 -0.1493
 1892W        W17361   6.590   2.356  16.585 -0.2585  0.2212  0.0490
 1893W        W17362   4.508  16.062   3.613  0.2046 -0.0342  0.1595
 1894W        W17363   0.834  13.470   1.136  0.1336 -0.2786 -0.1052
 1895W        W17364  15.696  14.216  15.878 -0.3321  0.0172  0.0509
 1896W        W17365   9.805  12.179   3.278  0.1520  0.1036  0.0473
 1897W        W17366  10.362   0.908   5.430  0.0569  0.2163  0.0559
 1898W        W17367   0.706   5.694   1.966 -0.0480  0.0811 -0.1930
 1899W        W17368   2.986  13.478   1.976 -0.1483 -0.0616  0.3280
 1900W        W17369  11.927  11.804  12.234 -0.0982  0.1350  0.3592
 1901W        W17370  13.575   3.149  13.143  0.0639  0.1711 -0.0105
 1902W        W17371   3.660   6.187  12.034 -0.1275  0.2218 -0.1001
 1903W        W17372   3.286   1.801  12.238  0.1087 -0.1840  0.0971
 1904W        W17373   9.437   4.561  15.009 -0.1611  0.1070  0.2096
 1905W        W17374  16.143  17.380   5.317 -0.0162  0.0170 -0.1098
 1906W        W17375  16.506   4.588  13.939  0.2002  0.1312 -0.1174
 1907W        W17376  15.729  12.533  14.593 -0.2305 -0.2182  0.2003
 1908W        W17377   9.465  10.994   2.769  0.0924  0.0222  0.1944
 1909W        W17378   1.086   2.812   2.479  0.0664 -0.1385 -0.1435
 1910W        W17379   6.522  13.302   3.736 -0.0733  0.1656  0.1692
 1911W        W17380  10.633   4.925   4.967 -0.1023  0.1794  0.0284
 1912W        W17381   9.283   1.418   1.866  0.1152  0.0028 -0.0210
 1913W        W17382  11.647  17.696   3.478 -0.0581  0.0657  0.0634
 1914W        W17383   0.932   3.638   4.117 -0.1404 -0.1912 -0.1626
 1915W        W17384  10.337   7.426  14.415 -0.0202 -0.0149 -0.1568
 1916W        W17385  11.118   6.551   4.521  0.0060  0.1791  0.0202
 1917W        W17386   4.927   4.773  11.850 -0.1048 -0.0917 -0.1252
 1918W        W17387   1.572  13.557  15.611 -0.0270 -0.0747 -0.0253
 1919W        W17388  15.360   7.925   5.279 -0.0865 -0.1420 -0.0336
 1920W        W17389  11.907   1.642   4.759 -0.0242 -0.1351  0.2906
 1921W        W17390   2.469   6.885   4.849  0.2143  0.0534 -0.0844
 1922W        W17391  13.504   5.766  15.010 -0.1394 -0.0887 -0.0319
 1923W        W17392   7.913   5.988  15.243  0.4393 -0.0041  0.0803
 1924W        W17393   2.216   4.582  13.804  0.0413 -0.0196 -0.2392
 1925W        W17394   0.630   6.722  14.597 -0.0004 -0.1839  0.1494
 1926W        W17395  10.084   1.171  13.365  0.1637 -0.4099 -0.2449
 1927W        W17396  10.827  15.706   0.823  0.0327  0.1541 -0.0408
 1928W        W17397   3.387  12.035  13.706  0.3431 -0.0834  0.1786
 1929W        W17398  10.071   2.292  14.798 -0.3042  0.1067  0.1435
 1930W        W17399   8.366   4.194  13.398  0.1179 -0.0659  0.2884
 1931W        W17400   3.792   8.020  13.332  0.0328  0.0103 -0.1342
 1932W        W17401   8.911   0.296  15.625  0.0894 -0.1307 -0.1912
 1933W        W17402   7.604  12.896   5.134 -0.1793  0.1651  0.1969
 1934W        W17403   7.005  10.261  13.534  0.0778 -0.1893 -0.2062
 1935W        W17404   8.314   9.003  13.140  0.0486  0.0370  0.0396
 1936W        W17405  11.216   9.711   2.579 -0.0332 -0.1700  0.0050
 1937W        W17406  16.407  16.922  14.360 -0.1601  0.0796 -0.2645
 1938W        W17407   5.427   0.311   4.005 -0.1300  0.0334 -0.0737
 1939W        W17408   0.852  10.749  13.159  0.1109  0.1117  0.0532
 1940W        W17409  13.630   6.415   3.162  0.0073 -0.0576  0.1472
 1941W        W17410   8.884  12.163   0.552 -0.2002  0.0919 -0.0903
 1942W        W17411   7.700  15.710  13.252  0.4001 -0.1010  0.0706
 1943W        W17412  10.572   5.131   1.305  0.0425 -0.1018 -0.1331
 1944W        W17413   9.084  15.908  16.560  0.1580  0.1886  0.0111
 1945W        W17414  11.525  10.484  15.591  0.0565  0.0046 -0.3073
 1946W        W17415  12.566   2.702   0.821  0.2252  0.0770  0.3591
 1947W        W17416   7.482   4.421   5.447  0.2199  0.0036 -0.1280
 1948W        W17417  10.972  13.166   5.892  0.2921 -0.2398  0.0892
 1949W        W17418   6.791   0.465  10.636 -0.1892 -0.3899 -0.0416
 1950W        W17419   2.085  13.210   3.806  0.0451 -0.0776 -0.0384
 1951W        W17420   1.470   6.901  12.064  0.0635  0.1684  0.4763
 1952W        W17421   6.276  14.058  13.009 -0.0363 -0.1498  0.2130
 1953W        W17422   5.778   5.832  11.697  0.4839  0.0517 -0.4536
 1954W        W17423   1.957  16.748  11.719  0.0967  0.0734  0.3271
 1955W        W17424  16.340  13.035  15.718 -0.0613 -0.0073  0.0421
 1956W        W17425   8.579   2.456   5.389 -0.0874  0.0924  0.0735
 1957W        W17426   2.600  17.376   1.693 -0.0988 -0.1973  0.0980
 1958W        W17427   3.471  14.799  12.070 -0.1165 -0.3282  0.1093
 1959W        W17428   5.850   5.093  12.242  0.0207 -0.0483 -0.1100
 1960W        W17429   6.719   7.671   0.947  0.1477 -0.1319  0.2083
 1961W        W17430  17.105   1.006  15.795  0.1107  0.1996  0.3175
 1962W        W17431  14.048  14.513   3.125  0.0686 -0.1090 -0.0126
 1963W        W17432  11.877   4.871  14.748  0.3778 -0.1858 -0.0758
 1964W        W17433   6.894  17.538  13.965  0.3309 -0.3073 -0.0778
 1965W        W17434   5.453  16.221   3.914 -0.4095  0.0999  0.0024
 1966W        W17435  12.455   3.724  10.899  0.1370 -0.1032  0.0551
 1967W        W17436   5.860  12.995   2.211 -0.2525 -0.3811  0.2199
 1968W        W17437  12.112   0.767   1.635  0.1637  0.2248 -0.0772
 1969W        W17438  14.094   5.996  13.720  0.2371  0.1397  0.0368
 1970W        W17439  16.890   0.690  11.728 -0.1607 -0.4576 -0.1394
 1971W        W17440  10.280  12.778   0.229 -0.1518  0.1232  0.0163
 1972W        W17441   7.765   5.996   5.041 -0.0897 -0.0540 -0.0285
 1973W        W17442  16.021   5.000   4.225 -0.0863  0.3645 -0.0423
 1974W        W17443  14.522   9.165  15.847  0.0834  0.1625 -0.0857
 1975W        W17444   7.975   9.851  14.631 -0.0919  0.0169 -0.4746
 1976W        W17445  12.444   9.710  15.249 -0.2457  0.2009 -0.2629
 1977W        W17446  13.572  16.463  15.511 -0.1335 -0.0942 -0.1931
 1978W        W17447   2.692  17.150  14.552 -0.2936  0.2849  0.0279
 1979W        W17448  10.604   8.478   2.364 -0.1247  0.0425  0.1318
 1980W        W17449   7.041  16.530  11.907  0.2103  0.0985 -0.0657
 1981W        W17450  10.077   5.016  12.452  0.0622  0.1609  0.4762
 1982W        W17451   1.162  13.421  15.238  0.1646  0.1774 -0.1958
 1983W        W17452   2.995  17.770   5.905  0.1177 -0.1227 -0.1904
 1984W        W17453   4.614   5.535  12.126  0.0872 -0.1426 -0.4432
 1985W        W17454   3.331   7.010  12.188 -0.1936 -0.2807 -0.0137
 1986W        W17455   9.125   2.170   5.827 -0.0635  0.1611 -0.0841
 1987W        W17456   0.919  11.388   3.411  0.0153 -0.0551  0.0308
 1988W        W17457   7.780  14.551  12.341 -0.1374  0.1611  0.0272
 1989W        W17458   6.629   2.420   1.760 -0.1969  0.2247  0.2246
 1990W        W17459   0.008   1.940   3.061 -0.1138 -0.0497 -0.2007
 1991W        W17460   1.128   2.386  16.104 -0.2902 -0.1991  0.3616
 1992W        W17461   3.403  13.219  12.682 -0.0037 -0.0972  0.0273
 1993W        W17462  17.736   0.563   1.096 -0.1685  0.2259  0.0387
 1994W        W17463   2.549  17.342  16.266 -0.1706 -0.0047  0.1406
 1995W        W17464  14.828   5.855   0.720  0.3042 -0.2141 -0.1969
 1996W        W17465  17.100  11.543   1.242  0.1167  0.1261 -0.1030
 1997W        W17466  12.036  10.542   1.072  0.1975  0.1824  0.1353
 1998W        W17467  10.621   5.744   0.860 -0.1663  0.1699  0.2206
 1999W        W17468  14.389   1.775  15.110 -0.0204  0.0686 -0.0212
 2000W        W17469   1.794  14.106  12.550  0.0336 -0.0423  0.0675
 2001W        W17470  16.796  14.263   1.001 -0.1143  0.1185 -0.1565
 2002W        W17471  12.431   8.636  11.002  0.0443  0.1109 -0.1148
 2003W        W17472   5.162  10.008  11.813 -0.0340 -0.0944 -0.1861
 2004W        W17473   6.009  14.138   0.469  0.2022  0.0298 -0.0550
 2005W        W17474   7.803   5.897   4.128 -0.2856 -0.4189  0.0896
 2006W        W17475   7.922  17.438  10.642  0.1112  0.1201 -0.0043
 2007W        W17476   9.823  11.794   5.950 -0.1465  0.0093  0.1846
 2008W        W17477   9.153  12.465   5.959 -0.1583 -0.1310 -0.2767
 2009W        W17478   5.801   4.197   3.388 -0.2587 -0.0423 -0.4424
 2010W        W17479   6.616   9.389   5.761  0.1791 -0.0411  0.0655
 2011W        W17480  11.323  10.621   4.741 -0.0427 -0.2798  0.1126
 2012W        W17481  15.443  13.149  11.150  0.0859  0.0214 -0.1496
 2013W        W17482  11.774  16.562  11.901 -0.2696  0.0613 -0.1668
 2014W        W17483  15.475   3.562  12.215  0.0447 -0.2945 -0.1506
 2015W        W17484   3.945   3.850  15.160 -0.3759 -0.2688 -0.1300
 2016W        W17485   2.144   5.570   2.529 -0.0189 -0.1527  0.2940
 2017W        W17486   9.982  14.272   2.502 -0.0770 -0.0525  0.0864
 2018W        W17487  16.587  12.367  14.245 -0.2993  0.0606 -0.0151
 2019W        W17488   0.873   3.665   1.557 -0.0414 -0.2681  0.2236
 2020W        W17489   2.191   3.280   1.591 -0.0766 -0.0735 -0.0150
 2021W        W17490   5.086   4.612   0.124 -0.0559  0.0962  0.2833
 2022W        W17491  10.467  10.433  14.524 -0.1165 -0.1081 -0.0936
 2023W        W17492  15.602  16.601   4.166  0.1008 -0.1618  0.3603
 2024W        W17493  12.843   0.338   6.190 -0.3066 -0.1950  0.1516
 2025W        W17494   7.033   2.159   3.473  0.0389 -0.0897 -0.1339
 2026W        W17495   9.404   9.909   5.089 -0.1112 -0.0577  0.1466
 2027W        W17496   6.360   7.855  12.648 -0.0419  0.1916  0.3594
 2028W        W17497  15.378  10.747   0.492  0.1553  0.2946  0.1313
 2029W        W17498   5.610   9.183  10.705 -0.1885  0.4355  0.0045
 2030W        W17499  16.469  12.423   5.684  0.0213  0.3847 -0.1859
 2031W        W17500  16.951  13.288  15.821  0.1075 -0.0805 -0.0357
 2032W        W17501   4.754  10.386   0.458 -0.3041 -0.0189  0.2598
 2033W        W17502  15.803   5.129  12.727  0.0227 -0.0542  0.0132
 2034W        W17503   7.830   9.756  12.728 -0.1284 -0.0009 -0.0533
 2035W        W17504   2.218  12.762  12.523  0.0044  0.0933  0.4336
 2036W        W17505  12.041  10.052   1.535 -0.2032 -0.1519  0.2255
 2037W        W17506   4.598   4.023   0.712 -0.0831  0.0313 -0.1178
 2038W        W17507   7.750   5.685  12.960 -0.3747 -0.0221 -0.0035
 2039W        W17508   7.029  14.445   5.882  0.3262  0.0222 -0.2221
 2040W        W17509  11.450  13.966  16.141 -0.2522 -0.0184  0.1241
 2041W        W17510  13.024   5.986   3.870 -0.2017 -0.2168  0.1687
 2042W        W17511   1.536  11.072   2.248  0.0535  0.1349  0.2909
 2043W        W17512  14.631  17.105   2.511 -0.2856  0.1675  0.0534
 2044W        W17513  15.275   7.982  13.684  0.0426 -0.3183 -0.3469
 2045W        W17514   4.209   4.718  13.932  0.0421 -0.0529 -0.3329
 2046W        W17515   4.332   5.273  12.450 -0.1728 -0.0866 -0.2158
 2047W        W17516   9.288  16.735  16.207 -0.0203 -0.2722  0.1101
 2048W        W17517   1.138  16.925   5.728  0.0002  0.2764 -0.4022
 2049W        W17518  13.731  13.006  16.382  0.0029  0.3970  0.0343
 2050W        W17519  10.452  10.953  12.375 -0.2166 -0.1248 -0.2827
 2051W        W17520   4.497  12.690  14.576  0.1288  0.1732  0.2819
 2052W        W17521   1.570   5.784   4.733  0.1230  0.0700 -0.0385
 2053W        W17522  10.947  12.051  12.478  0.0348  0.0875 -0.0470
 2054W        W17523   0.671  15.946   0.991  0.1023  0.1447 -0.3658
 2055W        W17524   4.399   5.943  13.319 -0.0879  0.1492  0.0011
 2056W        W17525   0.773   2.009  12.383 -0.0952  0.2384 -0.0236
 2057W        W17526   6.963  10.591   4.801  0.2102  0.1235 -0.1631
 2058W        W17527   3.141  13.228  13.707 -0.1980 -0.1342  0.0687
 2059W        W17528  11.530   4.046  15.067 -0.0616  0.1193 -0.0487
 2060W        W17529   3.813  11.672  11.293  0.2589 -0.1083 -0.2791
 2061W        W17530  16.197  16.867   5.242  0.2245  0.1978  0.0333
 2062W        W17531  15.161   1.429   2.397  0.0432 -0.2479 -0.0254
 2063W        W17532   8.302   9.533  10.821  0.0208 -0.1277 -0.0388
 2064W        W17533   3.160   7.025  15.312 -0.0830 -0.3308  0.1281
 2065W        W17534  13.545   8.329  15.769  0.0438  0.1999  0.1323
 2066W        W17535  11.602   5.819  13.731 -0.0512  0.2311  0.2211
 2067W        W17536   2.477   9.683   0.658 -0.0932  0.2655  0.3111
 2068W        W17537   5.390   6.293   3.660 -0.0846  0.1489 -0.3368
 2069W        W17538  11.283   0.858  12.388 -0.0579 -0.0304 -0.0878
 2070W        W17539  15.065  12.256  15.992  0.0558 -0.0377  0.0870
 2071W        W17540  12.397   5.574   2.774 -0.0311 -0.0863  0.3900
 2072W        W17541   0.441  16.255  11.012  0.1905  0.0342 -0.3666
 2073W        W17542   5.001   0.841   5.504 -0.0486 -0.0166  0.3185
 2074W        W17543   6.119  13.596   1.664  0.0207  0.1105 -0.1116
 2075W        W17544   1.143  10.222   3.946 -0.5388  0.3989 -0.0282
 2076W        W17545  11.833   5.272  11.847  0.1409  0.3159 -0.2270
 2077W        W17546   9.180   0.130  14.087  0.0133 -0.0039  0.2987
 2078W        W17547   2.836  10.528  15.657  0.1782 -0.0986 -0.1232
 2079W        W17548   0.986  14.528   2.653  0.2025  0.2018 -0.0540
 2080W        W17549  17.637  16.683   3.919  0.0252  0.0367 -0.0021
 2081W        W17550  12.195  13.246   5.111  0.2791  0.0812 -0.0443
 2082W        W17551   4.891  13.853  15.238 -0.0481  0.0210 -0.1570
 2083W        W17552   5.278   9.496  12.008 -0.0961 -0.1233  0.0663
 2084W        W17553  11.361   3.116   5.033 -0.2191  0.2721 -0.0561
 2085W        W17554  14.346  13.875   1.237  0.2219  0.0864  0.1543
 2086W        W17555   1.637  16.274  12.706  0.1958  0.5056 -0.1861
 2087W        W17556   8.570  16.284   0.224 -0.0426 -0.3008 -0.2096
 2088W        W17557   1.039  17.644  16.210 -0.1203 -0.1939 -0.4561
 2089W        W17558  17.028   9.463  13.225 -0.1123 -0.2608 -0.0922
 2090W        W17559   1.029   7.149   5.155  0.0355  0.2252  0.0962
 2091W        W17560   1.805   2.870  12.778 -0.1600 -0.1169  0.2184
 2092W        W17561  17.398  14.494  15.518  0.3295  0.1312  0.2089
 2093W        W17562   2.791   7.775  11.932  0.0401 -0.3016 -0.2055
 2094W        W17563   8.486  14.978   5.497 -0.0359  0.0023  0.1042
 2095W        W17564  16.290   3.369   4.009  0.0183 -0.0299  0.1224
 2096W        W17565   1.499   9.294   0.449  0.1174 -0.0626 -0.1792
 2097W        W17566  17.344   5.448  14.512 -0.0186 -0.0993 -0.0621
 2098W        W17567  13.928  11.269  16.087 -0.2289 -0.3361  0.1317
 2099W        W17568   5.067  15.476   2.050 -0.0301  0.1572 -0.1871
 2100W        W17569   8.111  13.449   0.682 -0.3933 -0.2140  0.1454
 2101W        W17570   2.041  13.708   0.439 -0.3053 -0.1956 -0.3708
 2102W        W17571  16.469  16.880  16.177  0.1869 -0.1294 -0.2550
 2103W        W17572  15.335   6.906  16.412 -0.1743 -0.0319  0.2987
 2104W        W17573  17.130   9.453   1.355  0.0240 -0.0669 -0.0404
 2105W        W17574   7.772   7.078   3.263  0.0762 -0.1894 -0.0417
 2106W        W17575   7.106  15.639   1.324 -0.4170 -0.0289  0.0304
 2107W        W17576  17.469  11.038  16.159 -0.1505 -0.1415  0.3499
 2108W        W17577   2.540   1.139  16.233  0.2374 -0.1665  0.0882
 2109W        W17578   9.900   4.868  13.626 -0.2555  0.0981 -0.0955
 2110W        W17579  12.746   7.494  15.817  0.0928  0.0841  0.0289
 2111W        W17580  11.951   0.881   4.386 -0.2971 -0.2785  0.0710
 2112W        W17581  16.006   5.690  16.419  0.2637 -0.0097 -0.0331
 2113W        W17582  12.074   5.108   5.898 -0.0122 -0.1792 -0.0473
 2114W        W17583   0.289  13.403  14.688 -0.1935  0.0093 -0.2640
 2115W        W17584   1.203   6.020  12.519  0.1643  0.1054 -0.1827
 2116W        W17585   3.702  10.376   1.970 -0.3066 -0.1173 -0.0089
 2117W        W17586  12.415  10.706  15.306  0.2806 -0.1930  0.2624
 2118W        W17587   6.381  14.523   4.853  0.0483 -0.2576  0.0087
 2119W        W17588   8.978  14.406   3.639 -0.0969  0.4805  0.2098
 2120W        W17589  11.052   2.316   1.278  0.1761  0.0272  0.0152
 2121W        W17590  17.267  10.855   0.651  0.0742 -0.0173  0.1721
 2122W        W17591   1.048  17.056  14.767 -0.1427 -0.0075 -0.3816
 2123W        W17592   2.884  15.743   3.200  0.0387  0.0474  0.0081
 2124W        W17593  11.798   2.367  15.667 -0.2457  0.2171 -0.0209
 2125W        W17594  15.355   3.058  12.993  0.0524  0.0857  0.0720
 2126W        W17595  10.612  10.899   2.031  0.1171  0.1092  0.1042
 2127W        W17596   8.418   2.062   2.462  0.1954 -0.3605  0.0313
 2128W        W17597  13.833   0.719   0.649  0.0549 -0.1161  0.2180
 2129W        W17598  15.113  15.858  15.449  0.0757  0.1594 -0.1462
 2130W        W17599  13.420   1.757   3.885 -0.3564  0.0537 -0.3267
 2131W        W17600   8.729  15.868   4.866 -0.0508  0.1178  0.2837
 2132W        W17601   8.781   6.580  16.703 -0.0417 -0.1367  0.2070
 2133W        W17602   9.871  17.324  12.262  0.3661  0.0410 -0.1891
 2134W        W17603   6.161   5.687   4.041 -0.1132 -0.0739 -0.2457
 2135W        W17604   4.386  12.242  11.273 -0.1714  0.1360  0.0909
 2136W        W17605  12.772   3.894   1.587 -0.0021 -0.0282 -0.0300
 2137W        W17606  11.882  15.168   1.749 -0.1457  0.0699  0.0005
 2138W        W17607   5.784  16.539   4.037 -0.0781  0.0405 -0.0812
 2139W        W17608   1.115   8.125  15.556  0.1586  0.0866  0.0181
 2140W        W17609  11.080   1.850   4.231 -0.2087 -0.1975 -0.0621
 2141W        W17610  11.172   9.455  12.858 -0.3069  0.0409 -0.0015
 2142W        W17611   5.533   8.067   5.149  0.1755  0.1323 -0.1356
 2143W        W17612  14.041  15.390   0.188  0.4229  0.0561 -0.0199
 2144W        W17613   2.586   1.993  16.166  0.0106  0.0911 -0.2168
 2145W        W17614   2.069   3.724  15.336  0.0296 -0.1200 -0.0225
 2146W        W17615   7.511  10.108   1.668 -0.0909  0.0779  0.1146
 2147W        W17616  16.426   0.681  11.416 -0.1371 -0.0696 -0.2561
 2148W        W17617   9.451  14.329   2.459  0.0297  0.0172 -0.0379
 2149W        W17618   7.421   3.168   2.157 -0.1874 -0.2282  0.3366
 2150W        W17619  14.815  15.866   1.584  0.3086  0.0122  0.1220
 2151W        W17620  11.487   7.828   4.242  0.1577  0.0147 -0.0611
 2152W        W17621   6.596  16.790  12.098  0.0180  0.2520  0.0300
 2153W        W17622   8.800   9.301  16.022  0.2460 -0.0487  0.0712
 2154W        W17623  15.965   9.543   1.054  0.1577 -0.0962  0.0847
 2155W        W17624   7.849  15.087   4.295 -0.0490 -0.2038 -0.0634
 2156W        W17625   0.564   8.817   2.078 -0.1376 -0.0012 -0.3721
 2157W        W17626   4.474   3.338  16.692  0.1477  0.3148  0.0846
 2158W        W17627   6.470   4.415   0.575 -0.1338  0.0892 -0.1138
 2159W        W17628  12.975  13.956   6.493  0.2986 -0.0216 -0.0367
 2160W        W17629   4.015   7.651  15.564  0.0566 -0.2717 -0.0088
 2161W        W17630  16.669   4.342  14.492  0.2529  0.0436 -0.3348
 2162W        W17631   2.528  11.011   3.250 -0.0745 -0.0183 -0.1680
 2163W        W17632   6.328   7.349   0.865  0.0376 -0.1943 -0.3068
 2164W        W17633   5.947  14.763   5.177 -0.0231  0.0490 -0.2431
 2165W        W17634   7.437   9.283   3.315  0.1505  0.1364 -0.1432
 2166W        W17635   5.094  12.962   0.678 -0.4936  0.0503  0.1082
 2167W        W17636  14.865  15.135  16.630  0.1565  0.1024 -0.0454
 2168W        W17637  17.600   8.076   0.454  0.2882 -0.0312  0.0282
 2169W        W17638   4.172  14.078  10.857 -0.1190  0.1785 -0.4123
 2170W        W17639   8.552   9.955   2.133  0.3011  0.0001 -0.2890
 2171W        W17640   6.865   6.497   0.248 -0.0755 -0.1358  0.0296
 2172W        W17641  10.779  14.475   2.607  0.0011  0.0612 -0.1528
 2173W        W17642  13.076   0.454   0.429 -0.7077  0.1499 -0.1058
 2174W        W17643   7.513  11.545   2.883 -0.1913  0.3543  0.2238
 2175W        W17644   0.414  10.566   2.283 -0.2362 -0.3229  0.0189
 2176W        W17645   1.445   4.216  13.720 -0.1135  0.0127 -0.2114
 2177W        W17646   4.161   2.793   3.907 -0.2615 -0.0130 -0.0271
 2178W        W17647  17.645  10.120   0.218  0.2792 -0.0863 -0.0431
 2179W        W17648  16.275   3.242  16.562  0.1751 -0.1769 -0.0020
 2180W        W17649  14.209   1.473   5.509  0.0544  0.2056 -0.0441
 2181W        W17650   7.737  14.999   6.086 -0.2801  0.1927  0.2143
 2182W        W17651   7.930   2.987  13.024 -0.1747 -0.1715  0.0549
 2183W        W17652  11.902   8.712   0.957 -0.0648  0.1685  0.1398
 2184W        W17653   3.042  17.458   4.738 -0.0019  0.1950  0.2037
 2185W        W17654   9.835   9.797   2.486  0.0637 -0.1894 -0.0639
 2186W        W17655  13.811   6.695  15.381  0.2083  0.0009 -0.0847
 2187W        W17656  11.948  17.496   1.278 -0.0916  0.1213  0.2959
 2188W        W17657  14.966  10.267   4.028 -0.0730 -0.0375 -0.1107
 2189W        W17658   3.913   3.785   4.466  0.4328 -0.1073 -0.3021
 2190W        W17659  16.240  10.461   0.437 -0.0783 -0.1878 -0.0542
 2191W        W17660   5.846  16.815   2.086  0.0258  0.2367  0.0416
 2192W        W17661  17.734   3.939  15.023 -0.1445 -0.0879  0.3209
 2193W        W17662   4.759  16.801   4.164  0.0101 -0.1191  0.0930
 2194W        W17663  12.402   1.276  14.547  0.1984  0.4662 -0.1294
 2195W        W17664   7.674  11.036  12.879  0.2417 -0.1016 -0.1971
 2196W        W17665  13.598   2.936   3.729 -0.0331  0.1119 -0.0137
 2197W        W17666  15.583   1.256   0.067  0.3469 -0.3023  0.1486
 2198W        W17667   0.252  16.803  15.603 -0.3904 -0.1018  0.0020
 2199W        W17668  12.951  10.120  15.802  0.5356  0.1120 -0.0331
 2200W        W17669  11.575  16.671   5.110 -0.2885 -0.1348 -0.2964
 2201W        W17670  12.824   9.701   2.204 -0.1258 -0.4458  0.1444
 2202W        W17671  16.330   6.121   0.736  0.1867  0.0982 -0.2431
 2203W        W17672   1.641  14.225  15.141  0.1483  0.1397 -0.2814
 2204W        W17673   5.881  15.712  12.527  0.1922 -0.2334 -0.0916
 2205W        W17674   2.854   5.824   0.774  0.0247  0.1588  0.0395
 2206W        W17675   8.127   8.648   3.477  0.1448  0.0794 -0.0645
 2207W        W17676   2.996  14.585  15.040  0.1550  0.0347 -0.3199
 2208W        W17677  15.925  10.728   3.965  0.1217  0.1319 -0.4079
 2209W        W17678  14.169  13.579  12.696 -0.2016  0.0133 -0.1987
 2210W        W17679   7.640  11.009  15.303  0.1206 -0.0172 -0.2230
 2211W        W17680  12.481  15.451   3.868 -0.2150  0.0462  0.3780
 2212W        W17681  15.639   5.569  15.542  0.0605  0.1243  0.1464
 2213W        W17682  10.719  14.785   2.186  0.1889 -0.1369  0.0542
 2214W        W17683   9.187   3.313   5.133 -0.0249  0.1820 -0.1278
 2215W        W17684  11.769  10.715   4.866 -0.1884 -0.2403 -0.1394
 2216W        W17685  11.741  13.805  12.898 -0.0755  0.0791  0.0364
 2217W        W17686  13.743  13.695  12.400 -0.1606 -0.0358 -0.4301
 2218W        W17687   0.352  10.430   1.539 -0.1643 -0.1459  0.1044
 2219W        W17688  13.619   3.768   2.413 -0.0870  0.0638 -0.3243
 2220W        W17689  15.190  15.887   2.340 -0.1503 -0.0367  0.1498
 2221W        W17690   4.081   9.334  15.002  0.1167 -0.0459  0.0706
 2222W        W17691   8.983   4.337  12.598  0.1085 -0.1107 -0.1738
 2223W        W17692   3.175   0.991   4.924 -0.0864 -0.1282  0.0793
 2224W        W17693  16.405  14.535  11.577  0.0975  0.0661  0.1896
 2225W        W17694  10.440   2.261  16.331  0.2602 -0.1680  0.3771
 2226W        W17695   0.682   3.072  13.735 -0.1092 -0.0595 -0.0785
 2227W        W17696   1.391  11.362   3.334  0.4661 -0.2508 -0.1437
 2228W        W17697  13.228  10.497   3.785 -0.0666  0.0436  0.0676
 2229W        W17698  12.639   2.282   0.557  0.0600 -0.3980  0.0261
 2230W        W17699  12.529   7.458  12.498  0.0452  0.0645  0.1050
 2231W        W17700  11.685  12.712   3.788 -0.2198  0.0248 -0.2073
 2232W        W17701   4.088   4.576   0.415 -0.5992 -0.0809 -0.0011
 2233W        W17702   5.090  17.188  14.959  0.0623  0.3575  0.2844
 2234W        W17703  13.181   6.461   3.992  0.0939  0.1414  0.1499
 2235W        W17704  10.325   2.407   4.149  0.3093  0.1213  0.0715
 2236W        W17705  12.304  15.713   3.475  0.1740  0.1510  0.1217
 2237W        W17706  10.564  16.404   1.379 -0.0680 -0.0912 -0.1461
 2238W        W17707   3.844  12.494   0.940  0.0555 -0.0168  0.1665
 2239W        W17708   3.311   0.757  14.548  0.1665  0.2452  0.2885
 2240W        W17709   8.581  16.230  11.069  0.1697 -0.1067  0.1233
 2241W        W17710   7.506   1.834   1.511 -0.1722 -0.0599  0.2633
 2242W        W17711   6.759   4.987   4.912 -0.1739  0.1566  0.3247
 2243W        W17712   9.596   0.025  16.354 -0.1408  0.5667  0.1501
 2244W        W17713   0.141   0.968   4.983  0.0767  0.1390  0.0206
 2245W        W17714  12.490  17.166   0.280 -0.1614 -0.0160 -0.2100
 2246W        W17715   1.307   8.971  15.628 -0.0327  0.1011 -0.0249
 2247W        W17716   5.420   0.021  11.855  0.1243  0.0334 -0.1406
 2248W        W17717  10.216  11.281  13.118 -0.3240 -0.1365 -0.1515
 2249W        W17718  12.736   0.665   4.067 -0.2795  0.3529 -0.2084
 2250W        W17719  17.001  11.963  12.482 -0.3029 -0.2661  0.3012
 2251W        W17720   2.113  16.776  13.930 -0.4865 -0.1710  0.2623
 2252W        W17721   5.701   2.022  13.081  0.0027  0.0455 -0.1679
 2253W        W17722   5.271   3.199   4.554  0.0308 -0.1200 -0.1659
 2254W        W17723   7.407   6.247   2.319 -0.3385 -0.4680 -0.3220
 2255W        W17724   2.929   8.233   0.341 -0.2608 -0.4338  0.3991
 2256W        W17725  14.768  10.410   0.108 -0.0265  0.0832 -0.0192
 2257W        W17726   9.721  13.718   3.339  0.2023  0.0775 -0.0849
 2258W        W17727  11.537   2.283  15.011 -0.2816 -0.1066  0.2679
 2259W        W17728   6.316   8.911   4.413 -0.1417 -0.0625 -0.0979
 2260W        W17729   6.084   6.105   4.808  0.2507  0.1749 -0.1074
 2261W        W17730  17.021  10.949   4.719 -0.2536  0.3674 -0.0225
 2262W        W17731   1.528  16.537  13.393  0.1572  0.1025  0.1504
 2263W        W17732  12.012  14.976  15.709 -0.0743  0.0876 -0.0910
 2264W        W17733  12.252   4.532  16.104 -0.2811 -0.1033 -0.0150
 2265W        W17734   2.469  11.776  16.650 -0.0688 -0.2449  0.1579
 2266W        W17735   7.007   0.944   2.159 -0.0048  0.0503  0.3001
 2267W        W17736   9.547  11.805   5.197 -0.3205  0.2738 -0.0138
 2268W        W17737  13.727  11.433   0.306 -0.2161 -0.1576 -0.2127
 2269W        W17738   6.250   2.959  12.761 -0.0971 -0.0302  0.1136
 2270W        W17739   9.474   9.808  16.506 -0.0623  0.1506 -0.0570
 2271W        W17740   5.082   8.369   4.428 -0.1299  0.1802 -0.1165
 2272W        W17741   2.648   9.346   1.484 -0.0146  0.0961 -0.1883
 2273W        W17742   1.908   5.499   3.761  0.2293 -0.1860  0.2546
 2274W        W17743  10.788   8.970  11.398 -0.2775 -0.2315  0.0567
 2275W        W17744   2.154   1.039  13.814  0.3630  0.2825 -0.2483
 2276W        W17745  16.615  16.253  11.621 -0.1472  0.0271  0.2090
 2277W        W17746   2.071  12.358  13.458 -0.0680 -0.0343 -0.2453
 2278W        W17747   1.561  14.110   3.814 -0.1292  0.1579  0.0517
 2279W        W17748   9.281   9.816  13.922 -0.0094 -0.0661  0.1042
 2280W        W17749  12.399   9.915  12.485  0.0521  0.2643  0.0721
 2281W        W17750   4.135   6.108   4.223 -0.0729  0.0733  0.2150
 2282W        W17751  10.593  11.225   5.015  0.0839  0.1745 -0.5010
 2283W        W17752  15.474   6.621   4.809  0.0052  0.1995  0.1304
 2284W        W17753  10.088  15.217  13.513  0.0026  0.2635  0.0651
 2285W        W17754  16.763   8.572  16.323 -0.1557  0.1523  0.0151
 2286W        W17755  17.717  10.018  11.209  0.0579  0.1813  0.4832
 2287W        W17756  13.121  11.333   0.572  0.0265  0.0441  0.2100
 2288W        W17757   4.195  15.199  15.105  0.0553  0.1534 -0.0834
 2289W        W17758  17.214  10.462   1.522  0.0332 -0.2660  0.0949
 2290W        W17759  15.099   6.403  15.566  0.0312 -0.0442  0.0015
 2291W        W17760   5.838   0.669   2.802 -0.1264 -0.0533  0.1098
 2292W        W17761   5.396   8.949   5.273 -0.0040 -0.4404 -0.0469
 2293W        W17762  15.483  16.216  11.617  0.2834 -0.2678 -0.0133
 2294W        W17763   7.832   4.588   1.849  0.0480 -0.0231  0.1052
 2295W        W17764  14.783  14.662  14.315  0.2860  0.0796 -0.1015
 2296W        W17765   2.135   6.541  11.539  0.1059 -0.0860  0.0671
 2297W        W17766   9.711  10.009   1.069  0.0800  0.1175  0.0900
 2298W        W17767  17.463   6.390   0.885 -0.1284  0.0960 -0.0911
 2299W        W17768   4.565  16.008  15.170  0.1565 -0.1375  0.3186
 2300W        W17769  12.388   8.547  16.483 -0.1123  0.2352  0.1839
 2301W        W17770   2.869   3.626   0.402 -0.0750  0.0345 -0.0448
 2302W        W17771   4.545   4.846   0.203 -0.2435 -0.1062 -0.0345
 2303W        W17772  17.549   2.393   3.406  0.1307 -0.2125  0.1451
 2304W        W17773   8.686  12.152   2.509 -0.0947  0.1305 -0.0193
 2305W        W17774   9.315   7.014  11.841  0.1344 -0.2280  0.0359
 2306W        W17775  15.692   4.797  14.151  0.2693 -0.0425  0.3012
 2307W        W17776   7.236  16.029  16.834 -0.1131  0.2544  0.1016
 2308W        W17777  17.243  15.505   3.672  0.1387 -0.3647 -0.1658
 2309W        W17778   6.757  10.543  16.392 -0.1045  0.2650  0.0988
 2310W        W17779  12.281  15.866   0.550  0.1128  0.3152  0.0410
 2311W        W17780   7.540  11.200   4.057  0.3061 -0.0180 -0.1004
 2312W        W17781  11.396  15.993   5.843  0.0436 -0.2138  0.2099
 2313W        W17782   1.938   5.859  13.442  0.2886 -0.1684  0.1075
 2314W        W17783  12.446  15.650  16.109 -0.1799  0.0774  0.2231
 2315W        W17784   3.590   8.893  13.008 -0.1869  0.2612 -0.0738
 2316W        W17785  11.536   8.595   5.288  0.1040  0.1186  0.0304
 2317W        W17786   8.833   0.611   4.786  0.2203  0.1241  0.0368
 2318W        W17787   1.081  15.351  16.353 -0.1881  0.3227 -0.1936
 2319W        W17788  11.421   1.854   6.543  0.1653  0.2640 -0.1681
 2320W        W17789   4.616  11.268  16.615  0.0282 -0.1013  0.3733
 2321W        W17790   0.230   1.791  14.122  0.1461 -0.4218  0.0709
 2322W        W17791  17.663  11.024   3.437  0.0129 -0.2015  0.1570
 2323W        W17792  17.180  11.735   2.728 -0.0547 -0.0592  0.2683
 2324W        W17793  11.542  13.864  15.630 -0.1092  0.3536 -0.1082
 2325W        W17794   6.826  16.855  15.691 -0.0313 -0.1190 -0.0253
 2326W        W17795   5.037  10.474   0.866 -0.0352 -0.1022  0.2482
 2327W        W17796  14.691   1.474   6.377  0.1942  0.1995  0.0246
 2328W        W17797  12.269  14.362   2.884 -0.1415  0.1849 -0.3624
 2329W        W17798  10.003  15.068  12.042  0.3028 -0.1688  0.0204
 2330W        W17799   4.220  12.405   1.362  0.1076  0.0008  0.0650
 2331W        W17800   8.356  17.635  15.282 -0.2618  0.0072  0.1405
 2332W        W17801  17.288   1.124  12.205 -0.1587  0.1857 -0.0841
 2333W        W17802   1.886   3.336  12.980  0.0439 -0.1027  0.1049
 2334W        W17803   3.976   3.443  15.814 -0.2074  0.1077 -0.0010
 2335W        W17804   1.449  15.817   0.671 -0.2542 -0.1621 -0.1630
 2336W        W17805   9.234  14.242   1.659 -0.1414 -0.1993  0.1515
 2337W        W17806   1.684   4.332  11.395 -0.1070 -0.0662 -0.1442
 2338W        W17807  14.682   3.547   6.203  0.1047  0.0343  0.2477
 2339W        W17808  13.531  13.536   3.969  0.0359  0.0067 -0.1253
 2340W        W17809  15.613   5.461  14.710  0.0116 -0.3520  0.1515
 2341W        W17810   1.951  12.272  15.426  0.0255 -0.1135  0.2260
 2342W        W17811   6.707  16.457  15.991  0.1501 -0.1893  0.0062
 2343W        W17812  14.838  11.541   1.390 -0.0193 -0.1775  0.0298
 2344W        W17813  17.194   8.216   1.224  0.0102 -0.0099 -0.0253
 2345W        W17814   4.894   8.011  13.015 -0.0409  0.2195 -0.0105
 2346W        W17815  14.386   9.185  14.908 -0.1377 -0.2333 -0.1795
 2347W        W17816   4.058  16.339  13.020  0.2355 -0.0422 -0.0405
 2348W        W17817   3.022  12.337  15.523 -0.2846 -0.0782  0.0546
 2349W        W17818  15.263   4.653  11.453  0.1996  0.2907  0.1030
 2350W        W17819  12.954   4.224   0.697 -0.0985  0.1271  0.0255
 2351W        W17820  10.804   0.847   5.116  0.3665 -0.0615  0.2189
 2352W        W17821   7.059   8.779   5.374  0.1196 -0.0835  0.1541
 2353W        W17822  17.233  12.889  14.649  0.0463 -0.0112 -0.0701
 2354W        W17823  15.135  12.356  15.445 -0.0987  0.0304 -0.1131
 2355W        W17824   8.744   8.338  15.298  0.0885  0.2062  0.1736
 2356W        W17825   7.300   1.382   0.264  0.0978 -0.5185 -0.0448
 2357W        W17826  10.003  11.753   5.031  0.2731 -0.1014 -0.1861
 2358W        W17827   0.226  16.861  12.935  0.0756 -0.0329  0.1722
 2359W        W17828   4.296  12.812   0.124  0.2482  0.0800 -0.2952
 2360W        W17829   8.038  13.852  13.387  0.1620  0.1053 -0.4326
 2361W        W17830  13.269   7.180   3.201  0.1120 -0.1408  0.0891
 2362W        W17831   0.014  16.967  11.791 -0.2558 -0.0745  0.0909
 2363W        W17832  11.543   9.357   1.746 -0.0375  0.2127 -0.2069
 2364W        W17833  13.268  12.715  14.146  0.2509 -0.0321 -0.0439
 2365W        W17834  10.809  12.015  15.598 -0.0416  0.2566 -0.2388
 2366W        W17835  13.194  11.141  12.449  0.1227  0.0914  0.0768
 2367W        W17836   9.508  17.199   6.507  0.0133  0.1478 -0.0280
 2368W        W17837  17.089  16.489   1.565 -0.0308  0.0876  0.2766
 2369W        W17838  15.662  16.758  14.570  0.0906  0.0727  0.0999
 2370W        W17839   8.376   5.222  11.747  0.0411  0.2187 -0.0386
 2371W        W17840   9.307   8.885   1.231 -0.1287  0.4822 -0.2755
 2372W        W17841   4.635  17.440   3.733 -0.1299 -0.2439 -0.3002
 2373W        W17842   4.035   6.146  13.699  0.0973  0.0800 -0.0260
 2374W        W17843  11.980   3.758   3.260 -0.2654 -0.1582  0.1095
 2375W        W17844  11.731   3.542   2.761  0.1971 -0.1064 -0.0527
 2376W        W17845  15.865  14.119  14.350  0.0111  0.1257  0.0931
 2377W        W17846  14.331   9.571  11.507  0.2541  0.0472  0.0077
 2378W        W17847   7.519   2.730  12.923 -0.0898 -0.1764 -0.2029
 2379W        W17848   4.642   8.400   0.466 -0.1249 -0.1317 -0.2330
 2380W        W17849   4.437   4.856   2.884 -0.0140 -0.4536 -0.0854
 2381W        W17850   3.005  11.388   5.673 -0.3383  0.2533  0.1401
 2382W        W17851  14.062  15.033  11.226  0.0590  0.1761 -0.1350
 2383W        W17852   7.104  15.291  12.420  0.2130 -0.2052 -0.0331
 2384W        W17853  11.040   8.604   3.221 -0.2405 -0.1759  0.0253
 2385W        W17854   0.465   5.893   3.769  0.1213  0.2800  0.0448
 2386W        W17855  17.432  10.434   0.499  0.1578 -0.3129 -0.1745
 2387W        W17856  11.155  13.888  12.602  0.1578  0.1900  0.0899
 2388W        W17857   5.741   9.658   1.362 -0.1047  0.1037  0.0527
 2389W        W17858   7.500  14.134  12.343 -0.0801 -0.0416 -0.0415
 2390W        W17859   6.018  10.500  11.339 -0.1488 -0.0991  0.1725
 2391W        W17860   8.402  17.386   5.775  0.0192 -0.1167  0.0112
 2392W        W17861   6.568  13.557  14.138 -0.1464  0.0103  0.0060
 2393W        W17862   0.751   4.233  11.877  0.1675  0.1583  0.1606
 2394W        W17863  14.031   7.771   2.424 -0.0368  0.1591  0.2750
 2395W        W17864   4.370   9.751  14.424 -0.2084 -0.2153 -0.0422
 2396W        W17865   3.313   0.685   0.050 -0.1484  0.1492  0.0173
 2397W        W17866   5.316  13.119  15.047  0.0699 -0.0463  0.0532
 2398W        W17867  16.633   2.146  11.461  0.0709 -0.0885 -0.1248
 2399W        W17868   7.814  16.980  15.903 -0.3213  0.3102 -0.0882
 2400W        W17869   2.603   6.281   1.310 -0.0882  0.0758 -0.1449
 2401W        W17870  10.946   6.978   5.115  0.1493  0.2442 -0.2272
 2402W        W17871   6.591   2.453  14.231  0.1361 -0.2676 -0.0553
 2403W        W17872  10.825  15.725   3.171  0.2835 -0.1217  0.4118
 2404W        W17873  10.720   5.048   1.783 -0.1020  0.2078 -0.0245
 2405W        W17874  11.798  13.639   4.270  0.2610  0.2152  0.0631
 2406W        W17875  12.664   5.343  16.749 -0.1480 -0.4042 -0.2430
 2407W        W17876   3.129  17.366  12.899  0.1747  0.3410 -0.1341
 2408W        W17877   2.290   9.193   9.848 -0.2117  0.0913 -0.1898
 2409W        W17878  14.543  14.379  13.296  0.4006 -0.1465 -0.1001
 2410W        W17879   5.485   0.264  13.281  0.0070 -0.0990 -0.0683
 2411W        W17880   9.712   2.277  12.443 -0.0329  0.0142  0.0253
 2412W        W17881   1.709   3.641   2.080  0.4430  0.3440 -0.1004
 2413W        W17882   2.040  17.650   1.797  0.1413  0.3021 -0.1606
 2414W        W17883   8.492  15.461  14.347 -0.0812  0.0172  0.2297
 2415W        W17884   9.482  12.244  12.855 -0.0855  0.0524  0.2411
 2416W        W17885   1.554   9.959  11.318 -0.3451  0.0817 -0.1873
 2417W        W17886  14.117   5.237  14.536 -0.1291 -0.0838  0.0410
 2418W        W17887  13.070  10.262  12.382 -0.1408 -0.1959  0.0507
 2419W        W17888  12.437   4.512  12.672 -0.3289  0.1852 -0.1394
 2420W        W17889  11.285   3.556  12.166  0.0544 -0.1737  0.2730
 2421W        W17890  10.905   7.182  11.836 -0.0662 -0.1118 -0.1645
 2422W        W17891  14.461   5.965   2.098 -0.0579 -0.0542  0.2003
 2423W        W17892   0.845  17.483   5.053  0.3466 -0.0258 -0.2675
 2424W        W17893   1.825  12.853   6.121  0.0043 -0.2250 -0.0450
 2425W        W17894  13.601   1.739   2.925  0.1172 -0.1065 -0.1343
 2426W        W17895  10.134  10.443   1.216  0.1663  0.0018  0.2039
 2427W        W17896  14.053   3.986   4.997  0.0841  0.2440  0.0736
 2428W        W17897   4.013   3.615   0.022 -0.1435 -0.1925  0.0070
 2429W        W17898  12.011  10.941  14.984  0.2591 -0.0009  0.0407
 2430W        W17899   1.182  10.113  16.795  0.2296  0.1369 -0.3062
 2431W        W17900   8.274   5.614  12.929  0.3104 -0.0562  0.0202
 2432W        W17901  16.385  17.747   0.212 -0.1359 -0.1185  0.2132
 2433W        W17902   2.099  11.939   0.200 -0.1144 -0.1030 -0.0666
 2434W        W17903  12.947   3.128   2.424 -0.1954  0.0724  0.0451
 2435W        W17904  15.576  13.100  11.756  0.2154  0.0654  0.2061
 2436W        W17905   4.342   9.405  11.627 -0.0263  0.0041 -0.0166
 2437W        W17906   2.042   7.493  15.311 -0.1094 -0.0538  0.1263
 2438W        W17907   3.122   7.469  13.405  0.0639 -0.4506  0.0433
 2439W        W17908  12.809  17.465  12.581  0.1805 -0.0941 -0.2808
 2440W        W17909   0.762  12.131   2.348  0.0472 -0.4933  0.3250
 2441W        W17910   1.032  11.947   3.380 -0.0055  0.0789 -0.2924
 2442W        W17911  11.166   5.854   0.826  0.3702 -0.0829 -0.0429
 2443W        W17912  10.885  14.032  13.121 -0.0919 -0.1520  0.1403
 2444W        W17913   5.655   3.923  12.494 -0.0785  0.0914 -0.0490
 2445W        W17914  10.675  13.855  15.421  0.0263  0.1921 -0.2275
 2446W        W17915  15.379  14.693   5.139 -0.1672  0.1384  0.0747
 2447W        W17916  13.319   2.374  12.603  0.0131 -0.1270  0.2555
 2448W        W17917  14.860  17.605   5.575 -0.2602 -0.0278  0.0372
 2449W        W17918   3.866   3.928  16.026  0.1225 -0.1552  0.2748
 2450W        W17919  15.748   5.103  13.736  0.0553  0.1910  0.3059
 2451W        W17920   1.353  13.227   0.378  0.2713 -0.1508 -0.0001
 2452W        W17921   7.915  13.756  12.398 -0.1820 -0.1962  0.2786
 2453W        W17922   4.634   6.092  15.905 -0.0045 -0.1166 -0.0186
 2454W        W17923  15.694   1.066   4.760  0.1933  0.2437 -0.0379
 2455W        W17924   4.178   4.247  11.136 -0.1665 -0.1057 -0.0791
 2456W        W17925   3.853  10.378   0.595 -0.2403  0.1130 -0.1270
 2457W        W17926   8.808   0.699  12.793  0.0395 -0.0033 -0.4623
 2458W        W17927   7.462   6.346  15.546  0.0671 -0.0490 -0.0554
 2459W        W17928   6.498   1.408  16.378  0.0115  0.1730  0.2457
 2460W        W17929  12.453  10.640   3.182  0.0874 -0.0492  0.3312
 2461W        W17930  15.235  17.166   0.735  0.0088 -0.0169  0.2119
 2462W        W17931  14.681   8.375  15.908 -0.0741  0.0173  0.0781
 2463W        W17932   4.933  10.298  14.516 -0.1104 -0.0316  0.2045
 2464W        W17933  15.106   5.306   3.700  0.1106 -0.0689 -0.0188
 2465W        W17934  14.670   0.949  14.441 -0.2409  0.0851  0.0684
 2466W        W17935   1.911  11.352   3.267  0.2454 -0.4092  0.0939
 2467W        W17936   4.010   4.770   3.500  0.1466  0.1027 -0.1039
 2468W        W17937   4.977   7.828  16.537  0.1275 -0.1193  0.0599
 2469W        W17938   0.631  14.044   5.074 -0.3147 -0.0297  0.2125
 2470W        W17939  16.455   0.317   4.976  0.3672 -0.2365 -0.1249
 2471W        W17940   4.388  11.556   5.082  0.4533  0.1501  0.0932
 2472W        W17941  10.150   3.403   4.154  0.1828  0.2105 -0.3735
 2473W        W17942   9.912   9.222   0.272  0.1606  0.3484 -0.0176
 2474W        W17943  13.632  15.579   1.650  0.1874  0.1269 -0.0880
 2475W        W17944  12.396  13.823   2.042  0.0852  0.4521  0.1204
 2476W        W17945  15.246  11.824  11.653 -0.0102  0.1656  0.1574
 2477W        W17946  10.843  13.040   1.548 -0.0225  0.1250  0.1155
 2478W        W17947  16.780  11.369  12.084  0.3013  0.2423  0.1481
 2479W        W17948   8.411   4.518  15.226  0.0785 -0.4112 -0.2020
 2480W        W17949   8.450   9.621  16.356 -0.0321 -0.1347  0.3512
 2481W        W17950   5.781   2.963  14.693 -0.1591  0.1401  0.0509
 2482W        W17951  15.840  15.524  14.162  0.1829  0.0297  0.1100
 2483W        W17952  13.720  10.403  15.244 -0.1161 -0.1520  0.0626
 2484W        W17953   3.467  11.392   0.650  0.0696  0.2694  0.1736
 2485W        W17954   4.908  14.619  16.463 -0.0718 -0.2582 -0.0081
 2486W        W17955   7.897   9.403   1.371 -0.0094  0.0696 -0.0499
 2487W        W17956  16.631   5.394  14.896 -0.1344  0.2561 -0.0627
 2488W        W17957   4.112  12.286  13.640 -0.0884  0.1408 -0.1379
 2489W        W17958   8.186  14.100  13.797 -0.1108 -0.0168  0.2108
 2490W        W17959  16.867   1.519  15.801  0.0514  0.2328  0.0818
 2491W        W17960   6.030  15.522   2.953  0.1184  0.2233 -0.0128
 2492W        W17961  11.963  17.385   4.943 -0.0286 -0.2556  0.1713
 2493W        W17962   9.416  15.717   0.589  0.2095 -0.0533  0.1557
 2494W        W17963   6.860  10.311   5.220  0.0357  0.2319  0.3279
 2495W        W17964   7.382  10.025  13.307  0.0986  0.0981 -0.1191
 2496W        W17965  17.537  15.610  15.295  0.2080 -0.0025  0.3244
 2497W        W17966   0.436   9.393  13.202 -0.2094 -0.1446 -0.2603
 2498W        W17967   9.564  16.999   2.405 -0.1023  0.0764 -0.1589
 2499W        W17968  13.018   2.574   0.775  0.0333 -0.0422  0.0194
 2500W        W17969  11.764  15.867   0.522 -0.1156 -0.0152  0.0806
 2501W        W17970   4.252  10.063   0.703 -0.3234 -0.2347 -0.0452
 2502W        W17971  16.699  10.807  11.560  0.3013 -0.4678 -0.0653
 2503W        W17972   6.580  15.105   3.861 -0.1003 -0.1292  0.0548
 2504W        W17973   7.086  10.883   4.418  0.2911  0.1098  0.1345
 2505W        W17974   1.148   6.637   4.420  0.0113  0.0105  0.2871
 2506W        W17975  12.774  13.241   1.562 -0.0556 -0.0361 -0.0929
 2507W        W17976   8.458   8.769  16.536  0.1390  0.0380 -0.2080
 2508W        W17977  16.527  13.815  12.544  0.2641 -0.2787 -0.0932
 2509W        W17978   9.759  10.247  16.047  0.2745 -0.0632 -0.2336
 2510W        W17979  12.516   1.384   5.672 -0.1878 -0.3302 -0.0973
 2511W        W17980   3.859  14.975   1.009 -0.1339 -0.2638 -0.1929
 2512W        W17981  12.268   0.640  13.465 -0.0055  0.1370 -0.0470
 2513W        W17982  16.525   6.657  13.110  0.1329  0.1062 -0.1555
 2514W        W17983  14.503   0.210  16.540 -0.1476 -0.2205 -0.2228
 2515W        W17984   4.577   7.122  12.091  0.1345  0.1601 -0.0704
 2516W        W17985   7.187  16.841  15.339  0.0286 -0.0591  0.1301
 2517W        W17986   0.160  17.539   3.392  0.5012  0.1755  0.0237
 2518W        W17987  14.088   9.147   1.957 -0.1301 -0.1910  0.2280
 2519W        W17988  12.383   0.142   4.636 -0.0110  0.1777 -0.1344
 2520W        W17989  12.336  17.269  11.707 -0.0582  0.3790 -0.2154
 2521W        W17990   2.733   8.931  12.908 -0.1749  0.3716  0.0386
 2522W        W17991   6.742   2.872  14.581  0.0125  0.0161 -0.1542
 2523W        W17992   6.109  10.164   3.088 -0.4060  0.1247 -0.1259
 2524W        W17993  15.899  10.215   1.707  0.0132 -0.1765  0.1204
 2525W        W17994   7.106  14.426   4.125 -0.1295  0.0675 -0.0951
 2526W        W17995   1.660   8.832   3.769 -0.3867 -0.0739 -0.0622
 2527W        W17996   6.184  16.892  12.787  0.1652  0.0674 -0.0868
 2528W        W17997   4.095  15.405   3.338  0.1529 -0.0876  0.0671
 2529W        W17998   2.473  15.811   2.971 -0.1485 -0.2428  0.0592
 2530W        W17999  12.919  11.339   3.503  0.0250 -0.2251  0.2778
 2531W        W18000   9.533  12.413  13.343  0.0895 -0.3926  0.2923
 2532W        W18001   5.130   4.772  13.989  0.1724 -0.1758  0.0186
 2533W        W18002   5.065   8.203   0.697  0.2482  0.0474 -0.1678
 2534W        W18003  16.296  16.475  13.752  0.1649  0.0577  0.1712
 2535W        W18004   7.000  16.834  16.260  0.0949  0.0445  0.2226
 2536W        W18005  16.061   1.602   4.234 -0.1435  0.1826  0.0174
 2537W        W18006  10.276  12.063   5.983  0.0249  0.5684  0.0310
 2538W        W18007   3.878  11.036  14.952  0.2173 -0.1741 -0.3818
 2539W        W18008   7.149  11.649   0.646  0.0129 -0.0346  0.0627
 2540W        W18009   4.768  11.663   0.034  0.1126  0.0770  0.2153
 2541W        W18010   6.014  15.804   2.258 -0.1474 -0.0103  0.0781
 2542W        W18011   7.576   4.704   4.559 -0.1996 -0.2009  0.1872
 2543W        W18012  10.103  11.426  15.946  0.0291 -0.0076 -0.1069
 2544W        W18013   0.073   4.032   3.137 -0.4314  0.0793  0.0159
 2545W        W18014   6.028  12.949   3.488 -0.1030 -0.0275  0.0409
 2546W        W18015   6.724   0.295  13.177  0.0317 -0.0612  0.1155
 2547W        W18016  15.569   3.472   0.950 -0.0990  0.0941  0.4580
 2548W        W18017  11.752  14.283   0.076  0.0542 -0.0981  0.2280
 2549W        W18018   6.979   5.833   3.549  0.0895 -0.0674  0.3216
 2550W        W18019   0.336   3.566  13.805  0.1216 -0.0741  0.0924
 2551W        W18020   7.883  12.861  14.985  0.1695 -0.4212  0.3611
 2552W        W18021  12.859   5.654   5.190 -0.1353 -0.0034 -0.0951
 2553W        W18022  14.311   8.579   3.835  0.1976 -0.2202  0.3035
 2554W        W18023  16.620  17.213  11.535 -0.1891 -0.0855 -0.1684
 2555W        W18024   6.292   6.688  16.034  0.1345  0.0612 -0.1867
 2556W        W18025   3.031   2.237   4.892 -0.1671 -0.0436 -0.0783
 2557W        W18026   1.603  14.748   4.516 -0.0814 -0.1805 -0.2433
 2558W        W18027   2.404   6.923  14.235 -0.3469 -0.0665  0.1158
 2559W        W18028   3.634   0.329   4.912 -0.1177  0.1551 -0.3472
 2560W        W18029   2.707  16.229   0.268  0.2677  0.1532 -0.0930
 2561W        W18030  11.102  11.705  14.202  0.1228  0.0780  0.1873
 2562W        W18031   8.459  17.565   1.246  0.2038  0.0916 -0.1730
 2563W        W18032  17.402  11.523   4.868  0.0989  0.0245 -0.0443
 2564W        W18033  14.937  11.353   4.710 -0.1869  0.2052 -0.0032
 2565W        W18034   8.654   8.339  16.339  0.0667 -0.0161 -0.0434
 2566W        W18035  10.885   6.944  15.600 -0.1904  0.1081  0.0082
 2567W        W18036   8.198   9.697   0.009 -0.1157  0.2631 -0.1584
 2568W        W18037   8.888   8.682  14.306 -0.1905  0.0741  0.0568
 2569W        W18038   6.076   0.897   3.452 -0.1150 -0.0550 -0.0308
 2570W        W18039   3.921  11.056   3.024 -0.2488  0.0935  0.2330
 2571W        W18040   9.540   1.031   2.120 -0.4300  0.0319  0.1107
 2572W        W18041   1.922  14.305   5.990 -0.1704 -0.0714  0.1721
 2573W        W18042   4.718  11.997  13.151  0.1572  0.0396 -0.1455
 2574W        W18043   6.275   4.175  11.875 -0.0868  0.0794  0.1528
 2575W        W18044  14.621  11.370   0.272 -0.0783 -0.2977  0.1038
 2576W        W18045   4.826   4.233   5.969 -0.2437  0.3667  0.0253
 2577W        W18046   3.685  15.514   1.643 -0.2121 -0.3735  0.1308
 2578W        W18047   3.079  10.984  15.414 -0.0134  0.1969  0.3168
 2579W        W18048   1.230   7.913   4.836 -0.0316  0.0194 -0.1347
 2580W        W18049  14.050   9.646  12.053  0.2797  0.0133  0.1177
 2581W        W18050  11.843   8.189   3.327 -0.3046  0.0243  0.3267
 2582W        W18051   5.662  16.408   2.879  0.4222 -0.1032  0.0803
 2583W        W18052   6.707   0.930  16.408 -0.0712  0.0051  0.2683
 2584W        W18053   3.329  10.435   2.891 -0.1661  0.0799 -0.2353
 2585W        W18054  17.638  16.893  15.031  0.1789  0.0212 -0.2237
 2586W        W18055  15.045  15.869  14.081 -0.0730  0.1585 -0.2724
 2587W        W18056   5.907   3.940   3.800 -0.1215 -0.0347 -0.0449
 2588W        W18057   1.034  14.639   5.765 -0.2340 -0.1085  0.2190
 2589W        W18058  14.643   0.142  15.083  0.1177 -0.0835  0.4021
 2590W        W18059   0.622  12.935  12.234  0.4930  0.2621  0.1540
 2591W        W18060  12.216   6.649   3.183 -0.1136  0.2475 -0.0637
 2592W        W18061   3.000  10.198  11.937 -0.0038 -0.1707  0.0933
 2593W        W18062   2.523   4.028   0.435  0.0892 -0.2488  0.0158
 2594W        W18063  11.493   7.101  10.996  0.2114  0.0050 -0.0489
 2595W        W18064   4.391   4.329  15.740 -0.0347  0.3106  0.1375
 2596W        W18065  10.846   5.308  15.701 -0.3097  0.0236  0.0318
 2597W        W18066   8.286  12.202  14.234 -0.1345 -0.1845  0.1282
 2598W        W18067   1.405  15.499  14.131 -0.1189  0.2283 -0.3439
 2599W        W18068  17.060   0.013   5.407  0.0498  0.0500 -0.2454
 2600W        W18069   5.650   1.240   4.128  0.3117 -0.0665  0.2111
 2601W        W18070   3.538   7.718   2.054 -0.1919 -0.0488  0.0196
 2602W        W18071   8.095   3.769  13.198 -0.1799  0.0810 -0.0416
 2603W        W18072   8.242  13.479   3.187 -0.2454 -0.0102 -0.1540
 2604W        W18073  12.429   2.733  12.990 -0.2275 -0.0464  0.0682
 2605W        W18074  16.053  15.636   5.843 -0.0020  0.0961 -0.0429
 2606W        W18075  16.795   4.951  13.876 -0.0779 -0.0886 -0.0328
 2607W        W18076  15.368   0.148   1.199  0.0034 -0.2222  0.1152
 2608W        W18077   5.299  11.327  12.877 -0.1741  0.1037 -0.0877
 2609W        W18078  12.585   6.273  16.372 -0.4684  0.2960 -0.0641
 2610W        W18079   4.104  12.815   2.551  0.1479  0.0692 -0.0440
 2611W        W18080   9.432  14.639   2.000 -0.4043  0.1573 -0.3191
 2612W        W18081  17.530   4.226   2.197  0.1656 -0.0636  0.1993
 2613W        W18082   2.400   3.333   3.943  0.0748  0.0747 -0.0982
 2614W        W18083   5.947  17.036  13.289  0.0729 -0.1336  0.2531
 2615W        W18084   6.820   3.292   4.064  0.0990  0.0908  0.5379
 2616W        W18085  15.788   6.388   2.089  0.1274  0.2025 -0.2503
 2617W        W18086  13.668  13.284   5.650 -0.1586  0.1740  0.0424
 2618W        W18087  16.862   0.900   3.365  0.1537 -0.0007  0.1931
 2619W        W18088  12.018   0.973  16.709  0.0270 -0.2726  0.1729
 2620W        W18089  17.163   0.569  10.318  0.0438  0.0541  0.1064
 2621W        W18090  13.639  15.341   2.231 -0.2177 -0.0511  0.0635
 2622W        W18091  16.117  13.067   0.433 -0.0298 -0.0924 -0.2410
 2623W        W18092   6.182  14.705   1.684  0.1107 -0.1445 -0.0984
 2624W        W18093  15.836   1.883   5.603 -0.3247 -0.0000 -0.0180
 2625W        W18094   7.217   2.183   6.016  0.1005  0.4226  0.0826
 2626W        W18095  13.334  16.985   3.945 -0.0187  0.1060 -0.0650
 2627W        W18096  17.307   8.365  11.565 -0.0703 -0.0411  0.2029
 2628W        W18097   9.515   9.468  15.125 -0.0151  0.3234  0.2176
 2629W        W18098  12.816  17.189  16.774  0.2811  0.3344 -0.2419
 2630W        W18099  10.873   4.206   1.644  0.0311  0.3338 -0.0743
 2631W        W18100  17.031  12.634  15.040  0.0614 -0.0763 -0.1113
 2632W        W18101   6.369   1.364   3.553 -0.1248  0.2548 -0.1924
 2633W        W18102  16.269  16.752  11.623 -0.0314 -0.3164 -0.2690
 2634W        W18103  14.616  10.981   4.713  0.0790  0.0125  0.0395
 2635W        W18104   0.717   1.064  13.108 -0.2193  0.1168  0.0444
 2636W        W18105   7.977  11.134  16.346 -0.0072  0.0852  0.0029
 2637W        W18106  13.969   0.459  11.542  0.1510 -0.3413 -0.1482
 2638W        W18107   3.730   0.396   4.402 -0.0887 -0.0398  0.1130
 2639W        W18108  14.474   1.438  10.970 -0.0386 -0.0355  0.0414
 2640W        W18109  13.529   2.906   0.085 -0.1011 -0.1668 -0.0014
 2641W        W18110   0.952  12.945   0.647  0.0853  0.1959  0.1381
 2642W        W18111   2.946   2.564  14.288  0.0554 -0.1045  0.0936
 2643W        W18112  15.545   2.446   3.274  0.2060 -0.1786  0.4002
 2644W        W18113   9.048   0.858   2.104  0.3055  0.0984 -0.1604
 2645W        W18114   1.593   8.038  12.755 -0.1396 -0.0843  0.0683
 2646W        W18115   8.119   9.731  11.239  0.0594 -0.0578  0.2181
 2647W        W18116   8.125   7.592  15.929 -0.0308 -0.1629 -0.0644
 2648W        W18117  12.841   3.433  15.400 -0.0168  0.0940  0.0316
 2649W        W18118   6.235  16.123  12.271  0.1550  0.4204  0.0146
 2650W        W18119   8.070  15.825  11.789  0.0796  0.2871  0.2571
 2651W        W18120  10.168   1.386  12.243  0.2639 -0.2208 -0.0009
 2652W        W18121  10.841   6.049  14.627 -0.0612  0.4062  0.2927
 2653W        W18122   1.480   9.310   3.904 -0.2298 -0.0268  0.0726
 2654W        W18123  15.795   2.441   0.841  0.1080 -0.0592 -0.0594
 2655W        W18124   2.182  15.087  14.092 -0.2252 -0.2597  0.0828
 2656W        W18125  10.644   5.369   4.042 -0.0264 -0.0586  0.2729
 2657W        W18126   6.663   4.812  15.988  0.0688  0.2096  0.5071
 2658W        W18127   9.819   1.724   4.572  0.0779  0.1370  0.2677
 2659W        W18128   5.848  16.254   1.020 -0.0805 -0.3591 -0.1258
 2660W        W18129   0.901   9.536   4.668  0.0933 -0.0067 -0.1480
 2661W        W18130   1.536   3.572  13.981 -0.1164 -0.2605 -0.1903
 2662W        W18131  17.470  17.447  15.113 -0.0138 -0.1684  0.0327
 2663W        W18132  11.051  17.392  14.657 -0.1451  0.2211 -0.1789
 2664W        W18133  13.908   9.817  12.621 -0.1452 -0.0366  0.0649
 2665W        W18134   2.688   4.178   0.883 -0.4080  0.0972  0.1268
 2666W        W18135   8.090  17.152   2.739  0.0717 -0.0118 -0.2592
 2667W        W18136  15.567   6.661   1.533 -0.1203  0.0445  0.2426
 2668W        W18137   7.318   0.869   0.340 -0.0132 -0.0254  0.1133
 2669W        W18138   5.141   8.859   0.983  0.0328  0.1712  0.3144
 2670W        W18139   8.879  16.920  16.430  0.0079 -0.2883 -0.0500
 2671W        W18140   7.065  13.556   4.854  0.0989 -0.1814 -0.0969
 2672W        W18141  14.104  17.198   5.529 -0.2587 -0.0771 -0.2006
 2673W        W18142   4.256  14.381   3.586 -0.2398  0.2187 -0.0280
 2674W        W18143   9.417  10.225  14.887 -0.1140  0.1123 -0.0555
 2675W        W18144   3.616  14.055  15.364  0.0836  0.0294  0.0471
 2676W        W18145   0.526  12.808  15.739 -0.2007  0.1731 -0.0281
 2677W        W18146  12.121   2.967  15.639  0.3414  0.1893  0.3376
 2678W        W18147   1.519  10.555  11.783 -0.2087 -0.1608  0.0109
 2679W        W18148  13.432  16.454   3.994  0.2496 -0.0850  0.0576
 2680W        W18149  12.024   6.200  12.192  0.2738  0.0699  0.2392
 2681W        W18150  12.196  14.455  15.703 -0.0696 -0.3170  0.0562
 2682W        W18151   5.457   1.805   0.287  0.1045 -0.0298 -0.1609
 2683W        W18152  17.220   3.858   4.795 -0.1715 -0.0669  0.2305
 2684W        W18153   0.831   3.262   0.747 -0.0251  0.0396  0.0450
 2685W        W18154  12.737   4.550  10.925 -0.2193 -0.3449  0.0375
 2686W        W18155   6.120  11.707  11.156  0.1536  0.0346  0.0157
 2687W        W18156  11.109  10.157  16.342 -0.1650 -0.2208  0.2189
 2688W        W18157  17.051   1.259   5.053 -0.1825 -0.2066  0.2260
 2689W        W18158   1.297  16.893  16.727 -0.0452 -0.0218 -0.1185
 2690W        W18159   7.005   1.272   3.892  0.0952  0.3837  0.0786
 2691W        W18160  13.731   9.500  13.633  0.0276  0.1908  0.0351
 2692W        W18161   7.125   6.038  16.752  0.1055  0.3242 -0.0479
 2693W        W18162  17.626   0.789  15.729 -0.2100  0.2775  0.1765
 2694W        W18163   4.075   8.868   2.457  0.0461 -0.0720  0.0625
 2695W        W18164   4.237   1.998  15.968 -0.3069 -0.2037 -0.1641
 2696W        W18165  14.078  14.969   5.922 -0.1512  0.3378  0.5637
 2697W        W18166   0.482   0.505   5.668  0.2411 -0.1957  0.2115
 2698W        W18167  15.830   6.134  16.672  0.4062  0.1192 -0.3850
 2699W        W18168  15.618   2.876   0.557 -0.0650 -0.1283  0.1248
 2700W        W18169   3.521  13.874   5.904 -0.1765  0.0167  0.2901
 2701W        W18170   1.762   6.665   2.470  0.1688  0.2022 -0.2714
 2702W        W18171   6.552  16.020   5.460 -0.1235 -0.1233  0.0232
 2703W        W18172   8.984   0.420   2.441  0.2363 -0.0470  0.0417
 2704W        W18173   0.193   3.629   1.553  0.0900 -0.0139 -0.0093
 2705W        W18174  10.140  10.548  12.423 -0.5439 -0.0707  0.0037
 2706W        W18175   7.146  15.968  12.642  0.2973 -0.2169  0.0728
 2707W        W18176   3.303  10.117   2.035 -0.1575  0.1871 -0.0114
 2708W        W18177   4.052  13.852   3.295  0.0376 -0.1694 -0.2841
 2709W        W18178   7.254   2.778  16.364 -0.1575  0.1096  0.1114
 2710W        W18179   4.895  12.176  15.346  0.0620  0.0553  0.0544
 2711W        W18180   3.347  15.642  12.787 -0.0403  0.1674 -0.1657
 2712W        W18181  14.837  11.058  15.141 -0.1522 -0.0548  0.1765
 2713W        W18182   7.250   4.962  13.419  0.1193  0.0957  0.1052
 2714W        W18183  11.409   9.389   3.888  0.1024  0.1131 -0.1211
 2715W        W18184  14.776   1.550  13.153 -0.3814  0.0084 -0.2178
 2716W        W18185  10.462   9.605  15.486 -0.0760  0.2428  0.2019
 2717W        W18186  11.993   5.368   2.552 -0.0955 -0.1845  0.3358
 2718W        W18187   6.140   3.184  12.338  0.2276  0.1059 -0.0281
 2719W        W18188   0.248  14.722  16.029  0.1206  0.1388 -0.1003
 2720W        W18189   4.926   9.703  10.823  0.2583  0.0444  0.1611
 2721W        W18190  17.298  11.317   3.083  0.1562 -0.0307 -0.0907
 2722W        W18191  13.566   9.816  12.232  0.2515  0.0505  0.2006
 2723W        W18192  17.594   1.852   0.436  0.3286  0.1876 -0.2384
 2724W        W18193  10.922  16.837  13.065 -0.0687  0.2548 -0.2297
 2725W        W18194  11.187  11.905   4.032 -0.1942  0.3977  0.0183
 2726W        W18195  11.561   4.777   3.673 -0.0343  0.1587 -0.1160
 2727W        W18196  12.358  12.653  10.875  0.3244 -0.1234 -0.2129
 2728W        W18197  13.785  11.828   5.368  0.0755 -0.0945 -0.0082
 2729W        W18198  14.451   1.898  13.320  0.0554 -0.0631 -0.1072
 2730W        W18199   0.729   5.247   3.231 -0.2613  0.2043 -0.2697
 2731W        W18200   8.673   8.405  13.451 -0.0109 -0.1149 -0.1662
 2732W        W18201   4.839  10.477  12.255 -0.2034 -0.1037 -0.1938
 2733W        W18202   6.715  12.150  14.354  0.3558  0.0231 -0.0513
 2734W        W18203   2.444   9.171   1.901 -0.1847 -0.0158 -0.1308
 2735W        W18204  13.967  12.176   6.314  0.0253  0.2152  0.2936
 2736W        W18205   2.047  14.557  15.043 -0.0550  0.0780  0.1580
 2737W        W18206   4.419   0.294  13.319  0.0730  0.0708  0.0034
 2738W        W18207   7.832   9.488   5.408 -0.1462  0.3464  0.0300
 2739W        W18208  11.234  13.383   1.695 -0.1875 -0.2146 -0.0276
 2740W        W18209  15.978   9.690   1.609 -0.1812 -0.2431 -0.0720
 2741W        W18210   6.884  14.479  13.954  0.1960 -0.0347  0.0656
 2742W        W18211   9.047  10.299  10.771 -0.0157  0.2003  0.4787
 2743W        W18212   2.485   6.596  15.827 -0.1327 -0.0006 -0.3999
 2744W        W18213  12.073   6.601   4.614  0.0260 -0.3002  0.0153
 2745W        W18214   0.591   1.132  16.375  0.0364  0.2663  0.0346
 2746W        W18215   1.996  14.129  13.839 -0.1113 -0.0261 -0.1229
 2747W        W18216  16.493  14.884  10.664  0.4347 -0.0216  0.1961
 2748W        W18217   6.618   2.568  12.743 -0.1131  0.0794 -0.2675
 2749W        W18218   0.734   0.767  15.987  0.2206  0.1959  0.2823
 2750W        W18219   4.197  11.890  15.022  0.0603  0.1089  0.0390
 2751W        W18220  17.314  17.048   5.943 -0.0779  0.2970  0.1385
 2752W        W18221   6.338  10.600   1.220  0.0124 -0.0541  0.0453
 2753W        W18222  17.079   7.703   2.076 -0.0486 -0.3903 -0.0183
 2754W        W18223   8.102  12.131   5.587 -0.0885  0.2173 -0.0502
 2755W        W18224   3.494  10.500  16.193  0.1930 -0.1562 -0.0846
 2756W        W18225   3.430   0.736   5.540 -0.0248 -0.4387 -0.0491
 2757W        W18226   8.285   4.867  15.518 -0.1235 -0.0208 -0.3373
 2758W        W18227  10.166   0.774   4.460  0.2469 -0.0041  0.0212
 2759W        W18228  11.983  15.730   4.586  0.0605 -0.1524  0.2723
 2760W        W18229   0.088   2.984  15.981 -0.3022 -0.1184 -0.0402
 2761W        W18230   9.295   0.932  15.986 -0.0468 -0.3786 -0.1197
 2762W        W18231   6.043  13.298  13.429  0.1871  0.0740  0.2689
 2763W        W18232   6.535   7.678  13.842 -0.1051 -0.0666  0.0472
 2764W        W18233  12.214  14.886  11.021 -0.0801  0.3709 -0.0038
 2765W        W18234  17.113   6.907  13.813  0.3455 -0.4592  0.2025
 2766W        W18235   7.229  10.221  14.032 -0.2099  0.0821  0.0213
 2767W        W18236  11.930   1.985   3.725  0.4442  0.0835 -0.1880
 2768W        W18237   4.893   0.049  14.131 -0.0897  0.2159 -0.1324
 2769W        W18238  16.689   6.075  12.358 -0.1290 -0.2536  0.0518
 2770W        W18239   2.430   3.479  14.326  0.2670 -0.1991  0.2208
 2771W        W18240   9.531  16.636   1.501  0.0644  0.0076 -0.1259
 2772W        W18241   3.991  15.177   3.797 -0.1136  0.3066  0.1853
 2773W        W18242  12.271  13.373   1.661 -0.0825 -0.3685  0.0076
 2774W        W18243   3.638   8.032  13.925 -0.3519 -0.0312 -0.0913
 2775W        W18244   3.208   7.856  13.035 -0.0159 -0.2690  0.0823
 2776W        W18245   9.550  10.658  14.730  0.1181  0.2678 -0.1038
 2777W        W18246  10.519  11.960  14.754 -0.0786 -0.0565  0.0996
 2778W        W18247   9.154   5.173   2.211 -0.0986 -0.0934  0.3965
 2779W        W18248  15.873  11.579  15.160  0.1656 -0.1772 -0.0508
 2780W        W18249   3.338   8.224   0.028 -0.1646  0.0527  0.1564
 2781W        W18250   9.307   0.199  15.183  0.3915  0.1198  0.0869
 2782W        W18251   2.380  15.593  14.197 -0.0397  0.0542 -0.1284
 2783W        W18252  10.343   6.763   2.520  0.2012 -0.1130 -0.0236
 2784W        W18253  11.657  15.710  12.012 -0.1414  0.2369 -0.1664
 2785W        W18254   0.955   1.842  16.014  0.0917 -0.1729 -0.0720
 2786W        W18255  16.550   7.534  14.177  0.0661 -0.0400 -0.0370
 2787W        W18256   2.437  15.724   2.197  0.1056 -0.1162 -0.0099
 2788W        W18257   4.802   2.106  15.197 -0.0650 -0.0347  0.0510
 2789W        W18258  14.286   1.450  12.055  0.0165 -0.2029  0.0515
 2790W        W18259   0.388  10.094   4.264 -0.0995  0.0006  0.0849
 2791W        W18260   7.140   2.555  14.466  0.2495  0.1313 -0.0151
 2792W        W18261  11.852  16.567   1.326  0.1617 -0.0211  0.0520
 2793W        W18262  13.349   4.493   2.848  0.1098 -0.3214 -0.2797
 2794W        W18263   0.072  13.201  10.547 -0.0943  0.2477  0.1111
 2795W        W18264  17.221   0.265   0.189 -0.3659 -0.0437  0.0063
 2796W        W18265  17.504   9.999  14.439  0.3787 -0.0260 -0.1189
 2797W        W18266  17.304  16.427  14.489 -0.1181 -0.1033  0.1508
 2798W        W18267   7.442  10.756   0.317 -0.1921  0.1120 -0.0688
 2799W        W18268   8.337   1.532   1.055  0.1186 -0.1389 -0.0774
 2800W        W18269  17.699   7.042  15.646 -0.0920 -0.0279 -0.1657
 2801W        W18270   6.519  13.243   1.704  0.1226 -0.0800 -0.2192
 2802W        W18271   2.093   3.280  15.539  0.0084  0.0802  0.2654
 2803W        W18272  16.444  14.511   4.036  0.0985 -0.1305 -0.1387
 2804W        W18273   8.383   1.554  13.815 -0.2440 -0.1359  0.1600
 2805W        W18274  11.397   2.699  12.413 -0.0489  0.1619  0.0509
 2806W        W18275  13.714   4.399   3.238 -0.3136  0.1378  0.1157
 2807W        W18276  13.807   9.626   6.040 -0.1390  0.0933 -0.0759
 2808W        W18277  10.873   1.123  12.467 -0.2258  0.1347  0.0847
 2809W        W18278  17.619   8.043   2.417 -0.1322  0.2853 -0.0110
 2810W        W18279  12.763   4.271   5.803  0.3071  0.1411  0.2228
 2811W        W18280   3.995  13.725  16.663 -0.4600  0.3058 -0.2621
 2812W        W18281   0.096  16.163   5.489 -0.2664  0.0339  0.3445
 2813W        W18282  11.034   4.976   5.826 -0.0580 -0.3567  0.2136
 2814W        W18283  11.610  15.066  14.314 -0.0340  0.1742  0.1375
 2815W        W18284   3.970   1.815   3.541  0.2109  0.1937  0.0374
 2816W        W18285   6.207   7.081   2.237  0.3147  0.0108 -0.4397
 2817W        W18286   0.357  17.041   2.343  0.3886  0.1859 -0.0549
 2818W        W18287   8.541  10.260  13.325  0.0455 -0.2800 -0.0661
 2819W        W18288  13.962   7.859  12.606 -0.2658  0.0072 -0.1775
 2820W        W18289   1.160  16.127  12.757 -0.0827  0.1922 -0.2813
 2821W        W18290  13.566   5.226   3.447 -0.0791  0.0842 -0.0144
 2822W        W18291  11.126  13.113   4.183 -0.0466  0.0953  0.0081
 2823W        W18292   5.220   6.660  15.656  0.3149  0.0826 -0.0371
 2824W        W18293   9.233   8.253  11.178  0.2084 -0.0738 -0.1297
 2825W        W18294   1.383  15.265  14.585 -0.1714 -0.1690 -0.1741
 2826W        W18295   1.926   1.281   1.244  0.1694 -0.0318  0.1820
 2827W        W18296   0.307   5.980   1.159  0.2163 -0.1616  0.1217
 2828W        W18297   7.600   8.707   0.464 -0.1817  0.1842  0.0465
 2829W        W18298  15.768  10.250  16.066  0.2378 -0.1250  0.0332
 2830W        W18299  17.623   2.643  11.544  0.0702  0.0982  0.2820
 2831W        W18300  12.664  16.016  15.833 -0.2414  0.1062  0.0707
 2832W        W18301  10.666   5.631  16.025 -0.0676 -0.0255  0.1340
 2833W        W18302  17.304   5.033   4.024  0.0438  0.0990 -0.0358
 2834W        W18303   7.535   2.290   3.953  0.1313  0.0448  0.0038
 2835W        W18304   4.895  15.392   6.025  0.0285 -0.0803  0.0918
 2836W        W18305  16.809   5.283   1.097  0.4026  0.0717  0.1073
 2837W        W18306  10.347  16.587  15.319  0.0514 -0.1941  0.1850
 2838W        W18307  14.989   1.399   3.462 -0.0894 -0.0901  0.0929
 2839W        W18308  17.078  11.297  16.656  0.0412  0.1153  0.1917
 2840W        W18309   7.999  13.870  15.676 -0.1243  0.1191 -0.0751
 2841W        W18310  10.067   4.261  12.815 -0.1257  0.1630  0.0717
 2842W        W18311   2.999   1.060  15.523  0.0511 -0.2135  0.1415
 2843W        W18312   5.847   1.029   5.555 -0.0703 -0.0039  0.2616
 2844W        W18313   0.077   4.829   4.950  0.0044  0.1154 -0.0475
 2845W        W18314  14.803  16.087  11.877 -0.0933  0.0585  0.0902
 2846W        W18315   5.976   5.628   0.983  0.0308  0.3060 -0.0899
 2847W        W18316  13.540   6.126   3.841 -0.1572  0.0930 -0.1459
 2848W        W18317  11.443   0.439  14.598  0.0002  0.1298  0.0191
 2849W        W18318  14.704  12.938   2.483  0.0292 -0.1343  0.0347
 2850W        W18319   0.949   7.169   2.980 -0.3162 -0.2404  0.2029
 2851W        W18320  14.622  12.826  12.338  0.0159  0.1056  0.0293
 2852W        W18321  13.123   3.381   4.338 -0.0416  0.1178  0.0551
 2853W        W18322  17.141   5.509   1.840 -0.1792  0.0835 -0.1357
 2854W        W18323   9.493  16.783   0.602 -0.0729  0.0098 -0.2312
 2855W        W18324   3.698  13.866  15.781  0.1635  0.1251 -0.2212
 2856W        W18325  14.592  11.420  16.524 -0.1561  0.0523 -0.1551
 2857W        W18326   8.188   4.144   1.045  0.0204 -0.2283 -0.0299
 2858W        W18327   7.568  16.522  15.268  0.0381 -0.3310 -0.0588
 2859W        W18328  15.061   9.473   0.926 -0.0171 -0.1210  0.4630
 2860W        W18329   8.510  10.389   0.419 -0.0827 -0.0164 -0.0528
 2861W        W18330   3.769  13.591  12.951 -0.1564  0.0636  0.0639
 2862W        W18331  13.370   0.195   3.669  0.1967 -0.1482  0.1899
 2863W        W18332   4.816  17.561  11.557  0.1126 -0.1056  0.1732
 2864W        W18333   2.672   7.397  14.179  0.0064 -0.0783 -0.0296
 2865W        W18334   2.922   7.368   3.729  0.0416  0.2412 -0.0312
 2866W        W18335  13.956   4.627   0.533  0.2404  0.0240 -0.0357
 2867W        W18336   8.512  11.945   4.903 -0.2231  0.2325  0.1027
 2868W        W18337  17.525  17.602   4.192  0.0108  0.1541 -0.3340
 2869W        W18338   9.553  17.764  11.601 -0.0251  0.1890 -0.1383
 2870W        W18339   6.082  10.131   0.007 -0.0188 -0.2961 -0.2200
 2871W        W18340  12.293  15.058   3.579 -0.5391 -0.0960  0.1276
 2872W        W18341   0.577   7.576   2.735 -0.1001 -0.2662  0.0459
 2873W        W18342   8.982  17.764   2.732 -0.1453 -0.0878  0.1234
 2874W        W18343   2.870   6.390   4.396 -0.1133  0.2356 -0.2721
 2875W        W18344  17.659  17.034   4.235  0.0199  0.0867  0.2725
 2876W        W18345  15.204   8.537   2.054 -0.0241  0.3392  0.0081
 2877W        W18346  10.100  17.677   6.159  0.2848 -0.0408 -0.0852
 2878W        W18347   9.458   3.276   1.360  0.3011 -0.1041 -0.1798
 2879W        W18348   5.200  15.117  10.731 -0.1842 -0.0264  0.0983
 2880W        W18349   0.972   6.270  10.532 -0.1736  0.1267  0.1601
 2881W        W18350  15.558   6.113   4.745 -0.0771 -0.1533 -0.2677
 2882W        W18351   7.843   1.015  14.939  0.0783  0.0661 -0.2310
 2883W        W18352  10.024  16.670  12.412  0.0731  0.5759  0.0765
 2884W        W18353  10.738   7.987  12.574 -0.2065  0.0179  0.2025
 2885W        W18354  15.652   2.310  16.816 -0.2682  0.0777 -0.2991
 2886W        W18355   7.212   8.322   2.237  0.0743 -0.0294  0.6241
 2887W        W18356  13.510  16.764   4.382  0.1720 -0.2195  0.0343
 2888W        W18357   2.247  14.862   1.997 -0.1411 -0.0605 -0.0662
 2889W        W18358  10.013   6.328  14.255 -0.0090 -0.1663  0.0820
 2890W        W18359   7.931  13.091  14.014  0.3272  0.3254  0.4539
 2891W        W18360   3.600   5.539   1.646  0.0109 -0.0779  0.2528
 2892W        W18361   4.813   4.507   4.102  0.3741  0.1380  0.0633
 2893W        W18362  11.437   1.807  14.795 -0.1461 -0.0357  0.1413
 2894W        W18363   2.609   3.194   0.637  0.2003 -0.0648  0.1572
 2895W        W18364  16.723  13.535  12.135 -0.0633 -0.0310 -0.3093
 2896W        W18365   8.620  17.668  13.973 -0.0318 -0.0279 -0.0174
 2897W        W18366  12.279  10.222   4.244 -0.5110 -0.1758  0.1283
 2898W        W18367  10.003  11.360   0.727  0.2074  0.1762  0.4192
 2899W        W18368  10.862   6.950  12.660  0.3375 -0.2538  0.0257
 2900W        W18369  16.836  12.591  16.289  0.1394 -0.2114 -0.4607
 2901W        W18370   6.987  15.978   1.677  0.1384 -0.2190  0.0563
 2902W        W18371   2.349   3.841   5.066  0.1150  0.3003 -0.0180
 2903W        W18372   0.276  13.971   0.824  0.0756 -0.0221 -0.0537
 2904W        W18373  17.387   0.021  12.188 -0.1234 -0.1401 -0.3549
 2905W        W18374  14.057   5.857  12.980 -0.1880 -0.2737 -0.1629
 2906W        W18375  14.518  13.796  11.763  0.2249 -0.3686 -0.1330
 2907W        W18376   2.843  12.618   0.041 -0.1601 -0.0885  0.0037
 2908W        W18377  10.083  17.478   0.885 -0.2774  0.2941 -0.1933
 2909W        W18378   3.147   8.714   3.604  0.1764 -0.3169 -0.1526
 2910W        W18379   3.840   0.885  16.651 -0.2342  0.2015  0.0861
 2911W        W18380  15.829  10.960   4.799  0.1328  0.2118 -0.0747
 2912W        W18381  10.083  12.407   5.646  0.0119 -0.0136 -0.0062
 2913W        W18382   5.658  12.950  15.358  0.2700 -0.1139  0.1011
 2914W        W18383   5.531   5.361   3.282 -0.0282 -0.1899  0.0902
 2915W        W18384  10.102   9.324   0.745 -0.0572 -0.1645  0.3160
 2916W        W18385   4.375   8.763  16.044 -0.3103  0.0571  0.4083
 2917W        W18386   9.967   0.251  12.975 -0.3374  0.0663 -0.0085
 2918W        W18387  11.183   8.841  15.411  0.0769 -0.4661  0.1267
 2919W        W18388   5.591   7.075   5.236 -0.1681  0.0438  0.1926
 2920W        W18389  14.092  14.326   3.611 -0.0514  0.4765  0.1816
 2921W        W18390   9.450   4.471   5.540 -0.2505  0.0743  0.2830
 2922W        W18391   5.388   9.325   1.023 -0.0527  0.2958  0.2601
 2923W        W18392   3.214  14.223  11.735 -0.1266  0.0368 -0.0725
 2924W        W18393  15.746   0.680   2.065 -0.0006  0.0789  0.1181
 2925W        W18394   2.282  14.505  16.390 -0.1715 -0.0306  0.3849
 2926W        W18395  15.322   9.042  15.693 -0.1508 -0.1095  0.0189
 2927W        W18396  13.191   6.175  14.883 -0.0495  0.0452 -0.0231
 2928W        W18397   5.408  14.606  16.365  0.1917  0.0698  0.0084
 2929W        W18398   5.717   1.183   3.652 -0.0670 -0.0151  0.1835
 2930W        W18399   2.739   9.264   4.579  0.0467  0.0844 -0.0949
 2931W        W18400  16.904   0.342   0.777  0.1436 -0.1644 -0.3239
 2932W        W18401  14.403  10.110  15.626  0.1084  0.3247 -0.1219
 2933W        W18402   9.634  15.965  11.857 -0.0331  0.0454 -0.2025
 2934W        W18403   9.521   4.870   2.129  0.0314 -0.1980 -0.1581
 2935W        W18404  16.391   3.233  14.126  0.0394 -0.1643 -0.0411
 2936W        W18405  11.184   2.085  13.732 -0.2279  0.1522  0.0718
 2937W        W18406  10.482  17.521  14.802 -0.2632 -0.1236  0.1014
 2938W        W18407  12.981  14.112  14.673 -0.0567  0.1711 -0.1133
 2939W        W18408   8.492   3.983  15.219  0.1471  0.0792  0.1899
 2940W        W18409  16.964   1.557  15.286  0.0884  0.3957  0.0893
 2941W        W18410   9.607   5.310  13.368  0.1888 -0.0501 -0.1545
 2942W        W18411   3.405  11.944  15.318  0.0738  0.2850 -0.1662
 2943W        W18412  11.760  16.266  13.262  0.1037 -0.0164 -0.0525
 2944W        W18413   7.337  16.352   0.437  0.2058  0.0951 -0.0285
 2945W        W18414   8.553   5.794   5.481  0.1561  0.1213 -0.2328
 2946W        W18415  13.875  12.861  15.294 -0.2016 -0.1715  0.5549
 2947W        W18416   5.343   3.128  16.608  0.0950 -0.0885  0.0816
 2948W        W18417   8.769   9.045   3.156 -0.0153 -0.0056  0.0918
 2949W        W18418  12.992   7.895  15.446 -0.0237 -0.0306 -0.3050
 2950W        W18419  15.086  16.459  12.042  0.0665 -0.0147  0.3378
 2951W        W18420  11.698  11.841   3.028  0.0330  0.0892 -0.3079
 2952W        W18421   6.539  14.149  13.809 -0.2384 -0.2425 -0.2493
 2953W        W18422  12.367   8.038   5.194  0.1070  0.1559  0.2308
 2954W        W18423   0.616   5.037  11.172  0.0090 -0.1896 -0.0318
 2955W        W18424   1.888   3.914  15.839  0.0436 -0.1905 -0.1088
 2956W        W18425   0.345   0.070  15.686 -0.1368  0.1311 -0.1254
 2957W        W18426   1.255   9.066  12.889  0.0643  0.2378 -0.1140
 2958W        W18427   8.016   2.476   4.126  0.0985 -0.0055  0.1160
 2959W        W18428  13.730  14.091   1.872 -0.3888  0.0683 -0.0397
 2960W        W18429   6.383   0.102   1.119  0.0372 -0.3015  0.0525
 2961W        W18430   8.543   9.996   0.943 -0.5087 -0.2351  0.2979
 2962W        W18431   7.297  17.094   1.546 -0.1341 -0.1584  0.1193
 2963W        W18432  12.191   1.669   1.592 -0.2666 -0.0466  0.0560
 2964W        W18433   3.569   7.849  11.797  0.0351  0.0334  0.1281
 2965W        W18434   5.548  15.923   5.307 -0.1362  0.0482  0.0520
 2966W        W18435   6.816   7.330  15.143  0.0823 -0.0536 -0.1345
 2967W        W18436   0.796   5.117  15.168 -0.0931  0.2228  0.0099
 2968W        W18437   8.938   7.354   4.116 -0.1755  0.0511 -0.0058
 2969W        W18438   6.100   0.808  12.751  0.0858 -0.2620 -0.0530
 2970W        W18439  10.527  14.229   5.978  0.3869  0.2122 -0.1207
 2971W        W18440  11.497  15.253  14.829 -0.0737 -0.3681  0.0464
 2972W        W18441  12.292  12.756  13.775 -0.1107  0.0546 -0.2700
 2973W        W18442   1.547   7.520  12.428 -0.0909 -0.0911  0.0939
 2974W        W18443  16.455   8.499   2.971  0.0026 -0.2412 -0.0174
 2975W        W18444  15.367  16.054  12.073  0.2527 -0.1291  0.2256
 2976W        W18445   7.956   6.187  16.189 -0.0087  0.1331  0.0846
 2977W        W18446  12.823  12.964  10.984  0.2670 -0.1250  0.5022
 2978W        W18447   4.596  14.647   1.863 -0.0494  0.0514  0.0695
 2979W        W18448  11.039   0.073   1.882 -0.1201  0.0275  0.1809
 2980W        W18449   7.477   3.561  11.992 -0.0742  0.1584 -0.0640
 2981W        W18450   5.492   2.560  12.441 -0.1405  0.0002  0.0780
 2982W        W18451   4.748  10.028   0.845 -0.2175  0.1905 -0.1278
 2983W        W18452   9.213  14.951  12.262  0.0804 -0.1732  0.0004
 2984W        W18453   0.370  13.865  14.857 -0.0723 -0.2875 -0.0063
 2985W        W18454   1.270   6.060  11.508  0.1759 -0.1373 -0.1472
 2986W        W18455   7.108  14.517   5.354  0.2111  0.0349  0.1186
 2987W        W18456  16.709   2.377   1.981  0.2023  0.2800  0.2350
 2988W        W18457   3.449   1.158  15.814  0.0037 -0.1695 -0.0033
 2989W        W18458   2.754   2.051  14.262 -0.1100  0.0846 -0.1482
 2990W        W18459   4.475  10.835  12.081 -0.0639  0.2329 -0.1574
 2991W        W18460   2.155  11.286  15.670 -0.3229  0.2331  0.4053
 2992W        W18461   6.925   7.430  16.102  0.0090 -0.0755 -0.0940
 2993W        W18462  13.046   0.735  13.738  0.1061  0.2267 -0.1654
 2994W        W18463   1.186  17.287  15.837 -0.2068  0.0861 -0.3708
 2995W        W18464  10.483   2.644   2.900  0.1813 -0.0531  0.2503
 2996W        W18465   2.140  13.986   4.371  0.0605  0.1872 -0.1391
 2997W        W18466  16.378  10.013   1.754  0.1287 -0.0786  0.2084
 2998W        W18467   2.973   1.302  10.470  0.0080 -0.1718 -0.2069
 2999W        W18468   4.863  11.545   4.907 -0.1575  0.0433 -0.0562
 3000W        W18469  12.707   3.885  15.192  0.0851 -0.4792  0.3127
 3001W        W18470  14.301   4.925   0.337 -0.2735  0.1113 -0.1232
 3002W        W18471   7.625  10.261   1.202  0.1774 -0.0219 -0.0459
 3003W        W18472   4.423  17.057  12.481 -0.0113 -0.2381 -0.0490
 3004W        W18473   8.615  13.150   2.297 -0.0201  0.0056  0.0934
 3005W        W18474  14.352  14.644   2.463  0.1073 -0.1487 -0.0852
 3006W        W18475  14.996   2.785  14.311 -0.1048 -0.0182 -0.2821
 3007W        W18476   0.967   8.616   4.251 -0.1839 -0.2234 -0.0061
 3008W        W18477  11.482   0.341   2.019 -0.0350 -0.4053  0.1731
 3009W        W18478   9.608   8.332   1.821  0.0184  0.0579  0.1149
 3010W        W18479   9.953  12.151   4.223 -0.1052 -0.1282 -0.2841
 3011W        W18480  14.639   2.683  12.567 -0.0315 -0.0410 -0.0421
 3012W        W18481   1.526  12.549   5.716  0.0624  0.0610  0.2192
 3013W        W18482  17.270  12.406  11.195 -0.2430  0.0418 -0.2167
 3014W        W18483  17.622   0.069   1.398 -0.1573  0.3438  0.0539
 3015W        W18484   1.571   5.002   3.837 -0.1292 -0.0560  0.2126
 3016W        W18485  10.716  10.308   1.120  0.0532  0.0121 -0.1177
 3017W        W18486   4.943   9.351   1.224  0.1628 -0.3831  0.0450
 3018W        W18487   7.427   6.224   4.670 -0.2651 -0.0007 -0.1199
 3019W        W18488  15.612   9.872  14.593 -0.0865  0.5056 -0.1253
 3020W        W18489   8.231   6.115   1.957 -0.0891  0.0640 -0.1279
 3021W        W18490  15.683   4.384  14.728 -0.0394  0.1398 -0.0729
 3022W        W18491  11.626   5.052  15.843 -0.0713 -0.2041 -0.2395
 3023W        W18492   2.481  11.485  12.006 -0.3889 -0.1049  0.0317
 3024W        W18493  15.791   4.533   3.296  0.1100  0.0967  0.1289
 3025W        W18494   9.538   0.118   1.646 -0.0231  0.0866  0.0803
 3026W        W18495  14.653   6.935  11.985  0.1961  0.3056  0.3485
 3027W        W18496   3.488  10.598  13.738 -0.2428 -0.0578 -0.1857
 3028W        W18497   7.727  12.941   0.896 -0.2214 -0.6063 -0.1745
 3029W        W18498  16.759  17.358   4.126  0.0778 -0.4200  0.3120
 3030W        W18499   3.357  11.196   3.004 -0.0483  0.0188 -0.3427
 3031W        W18500   6.222  13.794  13.482 -0.0905  0.0870  0.2374
 3032W        W18501  11.191   6.556  13.814  0.0107  0.1227 -0.4019
 3033W        W18502   0.204  10.425  15.224  0.0142  0.0816 -0.5641
 3034W        W18503  15.253   3.804  14.673 -0.0304  0.0307 -0.1556
 3035W        W18504  10.635   0.105   3.583  0.1523 -0.1288  0.0840
 3036W        W18505   0.709   8.282  15.831  0.2069 -0.0283  0.0754
 3037W        W18506   6.679  13.812  15.403 -0.2482 -0.0970  0.0889
 3038W        W18507  13.269   3.532   3.083  0.2318  0.0132  0.1265
 3039W        W18508   0.076   3.500  11.723 -0.0500  0.0539  0.2082
 3040W        W18509  13.843   8.238   1.631  0.0909 -0.0159 -0.4799
 3041W        W18510   9.354  14.351  12.405  0.1680  0.0801  0.0119
 3042W        W18511  14.747   7.904  15.637 -0.0788  0.3302  0.2200
 3043W        W18512  16.578  14.833  16.120  0.0250 -0.0596  0.3026
 3044W        W18513   0.985  13.938  11.033  0.1103  0.0563 -0.0193
 3045W        W18514   7.645  17.066   1.194 -0.3070 -0.0218  0.0910
 3046W        W18515   2.945  12.725   0.533  0.0548  0.2762  0.1024
 3047W        W18516   1.883  13.169  14.819 -0.1422 -0.1822 -0.0054
 3048W        W18517   5.490   2.231   4.359 -0.1182 -0.0499 -0.0994
 3049W        W18518   2.642  17.215  12.255 -0.2093  0.2026 -0.1456
 3050W        W18519   6.959   5.394   2.439 -0.0550  0.0448  0.0176
 3051W        W18520  14.234  12.579  15.531  0.2821  0.0448 -0.0811
 3052W        W18521   3.755   6.147  14.516 -0.1456  0.1398 -0.0208
 3053W        W18522   1.757  12.891  14.042  0.3815  0.3265 -0.2697
 3054W        W18523   5.733  15.435   1.193 -0.0270  0.2369  0.0824
 3055W        W18524   8.374   8.602  15.567 -0.2078 -0.0529 -0.0453
 3056W        W18525   8.359   6.328  12.307 -0.0920 -0.1104  0.0108
 3057W        W18526  17.586   4.951  13.345 -0.3067  0.1688  0.0914
 3058W        W18527  16.133  11.686   2.539  0.0797  0.1179 -0.1814
 3059W        W18528   2.621   7.132   1.234  0.1076  0.0497  0.1241
 3060W        W18529  14.136   8.213   5.488  0.1342 -0.3373 -0.0814
 3061W        W18530  11.093   9.218   5.431  0.0415 -0.0607 -0.0315
 3062W        W18531   5.146  16.698   4.443 -0.1033 -0.0793  0.2181
 3063W        W18532  11.166   0.146   3.715 -0.2265  0.0221 -0.0363
 3064W        W18533   2.463   1.170  15.668  0.1723 -0.0546  0.4492
 3065W        W18534  16.701  17.179  11.068 -0.0707 -0.1319  0.0325
 3066W        W18535  13.699  12.385  11.130  0.2225 -0.1234  0.2039
 3067W        W18536  13.417   6.420   5.375  0.1449  0.0741  0.4630
 3068W        W18537   6.590   4.139   5.138 -0.1583 -0.0659 -0.0407
 3069W        W18538   7.769  14.668  12.928 -0.0923 -0.0230  0.0251
 3070W        W18539  16.292  17.113   4.845 -0.1670  0.1446 -0.0851
 3071W        W18540   1.603  13.901   4.334 -0.1356 -0.0339  0.0214
 3072W        W18541   6.824   3.340  16.338  0.1693  0.0117  0.1693
 3073W        W18542   1.281   9.726  12.297 -0.1468 -0.0842  0.1614
 3074W        W18543  15.615  15.148  16.230  0.2313 -0.0284  0.0037
 3075W        W18544   4.235   8.935  11.624 -0.0283 -0.3907 -0.2611
 3076W        W18545   8.738   6.299  15.833 -0.1455  0.1954 -0.4517
 3077W        W18546   7.613  10.881  16.679  0.1730 -0.1434  0.1172
 3078W        W18547   0.221   1.184  14.398  0.0248 -0.1661  0.2403
 3079W        W18548  15.087   8.416   4.480  0.2320  0.1436  0.0038
 3080W        W18549  10.289   2.901   4.285 -0.4933  0.2520  0.1581
 3081W        W18550  10.261   5.348  16.197 -0.2092  0.0485  0.0596
 3082W        W18551   1.221   3.657  16.275  0.1346  0.0657  0.0774
 3083W        W18552   9.643  12.110  13.736  0.3553  0.1584  0.0022
 3084W        W18553  10.224  17.639   5.658 -0.0888 -0.2710  0.0381
 3085W        W18554  11.771   6.537  13.595 -0.1436 -0.2842 -0.2633
 3086W        W18555  17.329   0.968   3.645  0.4207  0.1754  0.0215
 3087W        W18556  15.453   1.404   2.754 -0.0492  0.1529  0.0577
 3088W        W18557   0.844   9.489  12.781 -0.0174 -0.0622 -0.1935
 3089W        W18558   5.609   7.745  12.296  0.2171 -0.0659  0.0504
 3090W        W18559   9.547  13.032  15.341  0.1208 -0.4298  0.3435
 3091W        W18560   1.601  17.599  11.324 -0.1411  0.1230  0.1969
 3092W        W18561   4.812   5.626  11.350  0.1014 -0.1641 -0.0762
 3093W        W18562  17.640  17.303   2.237  0.1374 -0.3195  0.3223
 3094W        W18563  10.039   2.088   6.262  0.1277 -0.0480  0.2114
 3095W        W18564   2.661  11.842  12.839 -0.1149  0.0299  0.3800
 3096W        W18565   9.712   8.279  13.071 -0.0929 -0.0074  0.2112
 3097W        W18566   0.228   8.795   4.977  0.4488 -0.0804 -0.0759
 3098W        W18567  17.720   1.996  14.985 -0.1428 -0.2731  0.1384
 3099W        W18568   1.582   3.688   0.703 -0.0329  0.0439 -0.2099
 3100W        W18569  10.473  12.342  15.671 -0.2552 -0.2059 -0.1040
 3101W        W18570   9.214   2.620   2.455 -0.0067 -0.1577  0.1201
 3102W        W18571  12.456   5.354   5.430  0.0057  0.1574  0.1032
 3103W        W18572   7.602   5.968  12.482  0.1743  0.1499 -0.0727
 3104W        W18573  16.441   3.567   4.475  0.0818  0.0592  0.1070
 3105W        W18574   9.266  15.143   5.984 -0.2638 -0.0237  0.1742
 3106W        W18575  11.886   9.555   4.915  0.2164 -0.1921 -0.1328
 3107W        W18576   7.090  11.807  15.025 -0.0670 -0.2001  0.0181
 3108W        W18577  13.330  12.743  16.544 -0.1147 -0.1470  0.2376
 3109W        W18578   5.593  15.636   0.381 -0.3488 -0.0045  0.2611
 3110W        W18579  11.179   0.702  12.970 -0.3633 -0.0977  0.1438
 3111W        W18580   6.371  12.778   1.482 -0.0952 -0.0234 -0.0977
 3112W        W18581  11.984  14.104   4.379  0.2622 -0.0172 -0.1605
 3113W        W18582  10.673   5.369   3.144  0.0302 -0.1288 -0.1958
 3114W        W18583   4.051   6.021  15.698  0.0971  0.0193 -0.0027
 3115W        W18584   9.626  14.795  15.113  0.2352 -0.0986  0.1285
 3116W        W18585  13.933  12.071   3.024 -0.3758  0.0004 -0.0195
 3117W        W18586  12.230   7.403   2.634 -0.0195  0.3071 -0.0872
 3118W        W18587  13.453   1.609  11.810  0.0239 -0.0347  0.2480
 3119W        W18588  15.107  12.395   5.743  0.0624  0.1215 -0.1503
 3120W        W18589   0.301   2.195   4.639 -0.0186  0.0831  0.1139
 3121W        W18590   4.190   0.070   4.416  0.0613  0.0768  0.1747
 3122W        W18591   5.423  10.827  10.344 -0.1165  0.3156  0.0671
 3123W        W18592   3.615  16.216  16.177  0.0182 -0.0960  0.0169
 3124W        W18593  11.499  12.373  11.713 -0.1070 -0.1754  0.0916
 3125W        W18594   6.592  11.019   4.068  0.1720  0.1467 -0.1028
 3126W        W18595  10.430   2.969  13.175  0.1331  0.1464  0.2210
 3127W        W18596   6.615  11.389   3.665  0.0349  0.0714  0.1591
 3128W        W18597   9.722  11.393  14.436 -0.1240  0.3782 -0.2902
 3129W        W18598  13.732   2.623  12.418  0.1095 -0.0082 -0.0238
 3130W        W18599   4.025   3.229  11.551  0.2860  0.1964 -0.1080
 3131W        W18600   4.192   3.979   3.129 -0.0586  0.0299 -0.2242
 3132W        W18601   1.815   7.520   3.803 -0.2308  0.1014 -0.0108
 3133W        W18602   6.069  11.670  11.976  0.0517  0.0870 -0.2937
 3134W        W18603  14.513   5.017   3.606 -0.1084  0.4648 -0.1919
 3135W        W18604  12.942   2.952  16.313 -0.3347  0.0547  0.0706
 3136W        W18605   1.281   8.330  12.504  0.1580  0.2281 -0.0675
 3137W        W18606  15.160   7.335   2.899 -0.0092  0.0162 -0.2580
 3138W        W18607  14.533  10.793   3.019  0.1814 -0.1813 -0.2330
 3139W        W18608   4.568   7.878   2.155 -0.1192 -0.1096  0.0774
 3140W        W18609  13.618   5.406  14.651  0.1307  0.1591  0.0553
 3141W        W18610  14.635  10.757  14.667 -0.1641  0.0107 -0.1088
 3142W        W18611   7.712  14.626   3.394 -0.2469  0.1853 -0.2868
 3143W        W18612  14.468  10.361   1.017 -0.2802  0.2977  0.1988
 3144W        W18613  16.590  15.334   1.256 -0.3501  0.2474 -0.2012
 3145W        W18614   0.306  12.955   4.026  0.1827 -0.2772 -0.1660
 3146W        W18615   5.125   5.906  14.487 -0.0513 -0.0487 -0.2304
 3147W        W18616  17.452  10.493  15.139 -0.2315 -0.0945 -0.0581
 3148W        W18617   5.087  11.991   4.962 -0.0446 -0.2044  0.1482
 3149W        W18618  13.653   3.774   1.906 -0.0085 -0.0156 -0.1258
 3150W        W18619  16.281   0.228   2.708 -0.1003  0.2228  0.2405
 3151W        W18620  14.626   2.236  15.171  0.0467 -0.0114  0.4017
 3152W        W18621   9.168  11.851   0.830 -0.3865 -0.1617  0.0470
 3153W        W18622   5.682   3.146  13.413 -0.0990  0.0541 -0.1984
 3154W        W18623   3.307   9.307  10.705 -0.2395 -0.0272 -0.1163
 3155W        W18624   1.472   3.121  16.392  0.1263  0.2000 -0.3927
 3156W        W18625   0.999  12.714  11.084  0.2879  0.0383  0.0015
 3157W        W18626  12.069  14.322  16.428  0.1114 -0.0134 -0.0986
 3158W        W18627  11.020   0.946  13.370  0.1517  0.2861  0.0091
 3159W        W18628   3.076  10.392   0.174  0.2963  0.0394 -0.2297
 3160W        W18629   2.602   0.286   1.112 -0.1009  0.1292 -0.1022
 3161W        W18630  14.232  13.590  15.294  0.1156  0.3197 -0.3148
 3162W        W18631  15.584   9.195   0.877  0.1131  0.0262  0.1633
 3163W        W18632   5.118  12.778   5.896 -0.1324 -0.0703  0.0588
 3164W        W18633   8.747  15.004   3.492 -0.0158 -0.1671  0.0350
 3165W        W18634   2.854  16.859   3.013  0.1268 -0.0308  0.2665
 3166W        W18635  17.305   5.872  11.684 -0.2027 -0.0151 -0.1857
 3167W        W18636  13.295   5.535   1.690  0.1054 -0.1223 -0.1171
 3168W        W18637   7.330  14.020   2.859  0.0062 -0.1953 -0.0192
 3169W        W18638   5.739  13.037  12.601 -0.0004  0.3411  0.0103
 3170W        W18639   3.619  16.234   3.102 -0.0767 -0.0507  0.3207
 3171W        W18640  14.429   2.762   0.970 -0.1363  0.2005  0.0198
 3172W        W18641   9.048   1.757  11.522  0.1351  0.0696  0.0110
 3173W        W18642  16.255  17.374   2.584  0.1283  0.1151 -0.0805
 3174W        W18643  16.795   1.041  11.349  0.0849 -0.0512  0.0442
 3175W        W18644   1.019  11.184   1.959  0.0755 -0.2412 -0.0232
 3176W        W18645   9.208   4.490   0.268  0.0265 -0.0754 -0.1126
 3177W        W18646   1.894   0.859   2.868 -0.2335  0.0271 -0.1923
 3178W        W18647   7.574  10.427  15.724  0.1337  0.1093 -0.0579
 3179W        W18648   9.063   8.226  16.650 -0.1855  0.4104  0.0537
 3180W        W18649  17.634  11.066   0.935  0.1445  0.0207 -0.1863
 3181W        W18650   2.490   8.154   3.096 -0.0682 -0.1106  0.1359
 3182W        W18651  15.287   3.191  14.065  0.0489  0.0398  0.1940
 3183W        W18652   8.868  17.224  16.832  0.0305 -0.1017 -0.0569
 3184W        W18653   9.533   5.439   5.787  0.0944  0.2837 -0.1606
 3185W        W18654   9.521  14.514  15.578  0.1097 -0.2526  0.4634
 3186W        W18655   0.290  11.791  14.008 -0.2901  0.1319 -0.0558
 3187W        W18656   6.595   7.547   2.265  0.2097  0.1936 -0.0138
 3188W        W18657   2.549   9.156  15.618  0.1360  0.1567  0.2610
 3189W        W18658  14.713   8.085   3.854 -0.2896  0.0596 -0.0126
 3190W        W18659  17.708  11.465   1.305  0.0838  0.2083 -0.2200
 3191W        W18660  15.564  15.553   2.109  0.0861 -0.0913 -0.3258
 3192W        W18661   7.969  10.435  12.206  0.0822  0.2269  0.1205
 3193W        W18662  12.819   3.610   2.796 -0.0514 -0.0514  0.1694
 3194W        W18663   4.911   1.965   5.562  0.0762  0.0242  0.2698
 3195W        W18664  13.192  15.086   3.106 -0.0129 -0.1694  0.1847
 3196W        W18665   7.546   2.400   2.728  0.0405  0.0324 -0.1128
 3197W        W18666  17.416  10.861  13.483  0.2257 -0.1319 -0.0333
 3198W        W18667   8.617   7.551  11.640 -0.1391 -0.0305  0.0336
 3199W        W18668   4.952   9.144   6.094 -0.0833  0.1237 -0.0502
 3200W        W18669  12.035   5.173   0.662  0.0049 -0.0459 -0.1122
 3201W        W18670   2.294  14.994   3.783  0.0359 -0.1328 -0.3044
 3202W        W18671   7.437   4.426  15.037  0.1513  0.0420 -0.0010
 3203W        W18672   8.146  11.140   0.293  0.1503  0.2257  0.1028
 3204W        W18673   2.216  12.223  16.554 -0.1718  0.2213  0.0428
 3205W        W18674  11.310  14.028  14.130  0.1145 -0.1416 -0.1081
 3206W        W18675  13.659   5.471  16.367  0.0766 -0.0444  0.0806
 3207W        W18676  13.074   4.687   1.429 -0.3022 -0.4135 -0.1797
 3208W        W18677  14.927   2.486  12.203 -0.0943 -0.2235  0.0736
 3209W        W18678  10.673   6.699  15.976  0.0094 -0.0264  0.1801
 3210W        W18679  13.436  17.734   4.152 -0.0686 -0.2472 -0.2103
 3211W        W18680   6.620   1.622  10.996 -0.0643 -0.0424 -0.2168
 3212W        W18681   5.278   5.879   0.756 -0.1098 -0.2338 -0.1757
 3213W        W18682  15.704   6.570  13.399  0.1776  0.0844 -0.1286
 3214W        W18683  15.917   8.402  12.243  0.1904 -0.0011  0.1890
 3215W        W18684  12.826  10.930   2.290  0.0349 -0.1596  0.0365
 3216W        W18685   8.963   2.142  14.187  0.1658 -0.0977 -0.0322
 3217W        W18686   0.330  13.714  14.219 -0.0493 -0.1232 -0.0201
 3218W        W18687   5.945  10.901  15.137  0.1742  0.1289  0.1835
 3219W        W18688   8.801   0.697   1.249  0.3085 -0.0318  0.3141
 3220W        W18689  15.946   7.561   4.785 -0.0669 -0.1156 -0.1119
 3221W        W18690   9.765  10.123  11.962 -0.2037  0.0475 -0.0524
 3222W        W18691   8.969  14.263  15.388  0.0835  0.6148 -0.2892
 3223W        W18692  14.538   9.359   2.577  0.2346  0.0163  0.0434
 3224W        W18693   9.710   7.755   4.683  0.0527  0.3133 -0.1601
 3225W        W18694   0.708   1.514   1.840 -0.0889  0.2509 -0.1581
 3226W        W18695   8.233  17.314   5.200  0.0345 -0.0253 -0.2255
 3227W        W18696   1.772  12.042   2.036  0.1785 -0.1391 -0.1434
 3228W        W18697   7.799   6.054  15.728  0.1491  0.2131 -0.1630
 3229W        W18698  11.911  16.773   4.200  0.1787 -0.1957 -0.2080
 3230W        W18699   6.148   2.377  16.769  0.2467  0.2594 -0.0046
 3231W        W18700   7.442   8.608  15.378  0.0471  0.0631 -0.1832
 3232W        W18701  10.055   0.409   6.212 -0.0449 -0.3455  0.1477
 3233W        W18702  11.136  16.400   5.580  0.2203 -0.3496  0.1386
 3234W        W18703  15.478  13.737   0.913 -0.0808 -0.0686 -0.1930
 3235W        W18704   4.998   6.363  12.638  0.2517  0.0744  0.0157
 3236W        W18705  13.681  15.778   4.407 -0.1659 -0.1089  0.0141
 3237W        W18706  16.340   1.132   4.049  0.2626 -0.2907 -0.0154
 3238W        W18707  15.509  11.058  14.363  0.0157 -0.2464 -0.2241
 3239W        W18708   9.582   7.284  12.215  0.0231 -0.2413 -0.4287
 3240W        W18709  16.001   9.986   0.126 -0.1462  0.1183 -0.0964
 3241W        W18710   3.797  16.845  11.721  0.3030 -0.1270 -0.4654
 3242W        W18711   1.802  17.573  12.091  0.2700  0.2791 -0.2004
 3243W        W18712   0.475   1.929  14.821 -0.1588  0.1086 -0.1391
 3244W        W18713  14.092  13.906   0.743  0.1680  0.3358  0.0355
 3245W        W18714   2.544   3.512  13.438 -0.1377  0.0761  0.2991
 3246W        W18715  15.076   9.679  16.261 -0.1263 -0.1387  0.1522
 3247W        W18716   9.142  11.064  15.019  0.1648  0.2676 -0.1257
 3248W        W18717  11.555  12.576   6.016  0.1115  0.2358 -0.2029
 3249W        W18718  13.540  14.119  15.289 -0.0933  0.0499  0.0661
 3250W        W18719  10.778  12.777  13.839 -0.0591 -0.2431  0.0030
 3251W        W18720  17.310   7.697   5.881  0.3164  0.2321  0.0174
 3252W        W18721   7.061   0.737   3.702 -0.0715 -0.1934 -0.0707
 3253W        W18722  12.689  14.715   5.879  0.3680 -0.1871  0.0141
 3254W        W18723   4.812   3.588  14.808  0.1589 -0.1903 -0.1991
 3255W        W18724  15.263   7.641  14.141 -0.1821  0.0974  0.2695
 3256W        W18725   6.382   1.530  14.415 -0.0997  0.2378 -0.3496
 3257W        W18726  16.109   5.824  15.854  0.0529 -0.1097 -0.1220
 3258W        W18727   3.131  16.708  15.895 -0.0983 -0.1954 -0.0807
 3259W        W18728   1.269   1.755  11.081  0.1008  0.0828  0.0252
 3260W        W18729   4.463  14.199  12.580 -0.0962  0.1810  0.1223
 3261W        W18730   7.672   0.184  13.945  0.4083  0.2956 -0.1609
 3262W        W18731  16.273  15.910   4.060  0.2902  0.1406  0.1706
 3263W        W18732  13.171   6.328  13.850  0.3119 -0.1308 -0.1402
 3264W        W18733   0.503   7.414  15.604 -0.2427 -0.1877 -0.2410
 3265W        W18734   0.213  10.742  12.046  0.2113  0.0808 -0.1208
 3266W        W18735   9.187   8.617   3.885  0.0816  0.1739 -0.2180
 3267W        W18736  10.999   5.625  15.347 -0.1125  0.1221 -0.0872
 3268W        W18737   2.165   6.683   4.361 -0.2791 -0.1139 -0.5082
 3269W        W18738  15.765  11.999   2.317  0.1451 -0.0559 -0.0084
 3270W        W18739   9.168   9.013  15.772  0.1285 -0.1559 -0.3585
 3271W        W18740  13.075  11.251   2.046  0.1852  0.0052 -0.2870
 3272W        W18741   2.920  16.575   0.565  0.0199 -0.0370 -0.3848
 3273W        W18742  13.906  16.898   3.914  0.1701 -0.2167  0.3130
 3274W        W18743   8.000  11.419  13.099 -0.1536  0.0633  0.2461
 3275W        W18744   4.825  14.610   0.959  0.3178 -0.1567 -0.0780
 3276W        W18745  16.732  15.686   5.058 -0.2080  0.2388 -0.0668
 3277W        W18746   2.927   7.879   0.683  0.1534 -0.2828 -0.0434
 3278W        W18747   8.564  11.129   5.768  0.0599  0.1130  0.0863
 3279W        W18748   5.425  13.093  12.212  0.2741 -0.1119 -0.0075
 3280W        W18749  15.278  14.794  16.273  0.3121 -0.0635  0.0975
 3281W        W18750   5.270  13.449   4.403 -0.0867 -0.0658  0.1234
 3282W        W18751   3.365   7.567  13.835  0.1183  0.1236  0.1001
 3283W        W18752  17.105  10.511  15.532  0.1511 -0.0534  0.0797
 3284W        W18753  12.903  12.576   3.190  0.0466  0.1485  0.0364
 3285W        W18754  11.102  13.400  11.543  0.3335  0.1263  0.1474
 3286W        W18755   5.734  10.078  15.147 -0.1022 -0.0961 -0.1006
 3287W        W18756   6.051  15.025  11.658 -0.0192  0.0525 -0.2497
 3288W        W18757   4.765  12.659   3.140 -0.0484 -0.2220  0.0639
 3289W        W18758   4.367  14.132  16.558 -0.0565 -0.1017  0.3517
 3290W        W18759   5.641  13.834  11.820 -0.1002  0.4440 -0.4637
 3291W        W18760   7.735  13.347   5.025  0.2277  0.1575  0.1779
 3292W        W18761   7.430  15.280   1.355 -0.0338  0.0633  0.2996
 3293W        W18762  14.452   9.565  16.135 -0.2244 -0.0651 -0.0961
 3294W        W18763  17.467   3.805  16.625 -0.3536 -0.1361 -0.1655
 3295W        W18764  11.584  17.240  13.716 -0.0663  0.1441 -0.2459
 3296W        W18765  13.009   8.706  13.997 -0.0263  0.1969  0.1951
 3297W        W18766   3.506  16.719  16.236 -0.4072 -0.1356 -0.0085
 3298W        W18767   4.202   4.779   4.703  0.3224 -0.1397  0.2924
 3299W        W18768   6.857   2.885  14.061 -0.0593  0.0298  0.1730
 3300W        W18769  15.586   1.840   0.205 -0.1668  0.2245  0.1433
 3301W        W18770  13.973   1.951  13.454  0.1795  0.0467 -0.0423
 3302W        W18771  15.641  14.256   1.739  0.1407  0.2294 -0.5035
 3303W        W18772  12.762  12.760  13.968  0.0448 -0.1229 -0.2092
 3304W        W18773  11.149  14.249   5.485 -0.2050 -0.0741 -0.4405
 3305W        W18774   5.749   1.400   5.879 -0.4328 -0.1402  0.1502
 3306W        W18775  10.985   8.543  12.809 -0.1199  0.1620 -0.3452
 3307W        W18776   4.756   4.758  14.703  0.0008 -0.1465 -0.0881
 3308W        W18777  13.477  16.255   2.163  0.3633  0.0087 -0.3402
 3309W        W18778   7.726  10.805   6.011  0.0047  0.1640 -0.1972
 3310W        W18779  10.024  16.308  13.376  0.3165 -0.0155  0.3623
 3311W        W18780   2.618   2.395   2.613 -0.1880  0.2271  0.1303
 3312W        W18781   3.051  13.005   1.835 -0.2780  0.0542  0.3435
 3313W        W18782  14.211   4.019   2.609 -0.0271 -0.0068 -0.1219
 3314W        W18783  13.126   7.079   1.011  0.1384 -0.1585 -0.0332
 3315W        W18784  15.645  12.155  12.825 -0.0143  0.2143 -0.0970
 3316W        W18785  12.556  11.562   0.709  0.1846 -0.1140 -0.0013
 3317W        W18786  14.768   1.824   2.074  0.2528  0.3444 -0.1870
 3318W        W18787  13.125   2.149   4.033 -0.3208 -0.0965 -0.0797
 3319W        W18788   5.620   7.657   0.406 -0.2393  0.0885 -0.2632
 3320W        W18789   9.185   2.812  12.956  0.0305  0.0972 -0.2755
 3321W        W18790   9.795   4.582  12.482 -0.0971 -0.2181  0.1015
 3322W        W18791   5.753  14.462   1.334 -0.1539  0.1189 -0.0169
 3323W        W18792  15.329  10.721  12.652  0.2836 -0.1250  0.0199
 3324W        W18793   2.318  14.880   2.948 -0.0143 -0.3140  0.0095
 3325W        W18794  12.090   9.785  16.584  0.1609 -0.0708  0.1313
 3326W        W18795  13.206  16.258   2.622  0.0318  0.3561  0.2300
 3327W        W18796  13.104   4.296  16.710  0.1603 -0.0406 -0.0566
 3328W        W18797   3.673   7.049  16.533  0.2509  0.1565  0.1891
 3329W        W18798  14.206  12.527   6.000  0.1072 -0.2709  0.1189
 3330W        W18799   4.242   4.323  14.318 -0.2491  0.1183 -0.0331
 3331W        W18800  10.367   5.153   3.635  0.0739  0.0348  0.0049
 3332W        W18801  16.783  16.273  10.550 -0.2692 -0.0411  0.0213
 3333W        W18802  16.177  17.215   1.494  0.2031 -0.1691  0.1331
 3334W        W18803   4.718  17.104  13.670  0.0313  0.0062  0.4576
 3335W        W18804   2.957  16.822  12.158 -0.0115 -0.1188 -0.0856
 3336W        W18805  10.712   0.330   1.562 -0.1604 -0.1299  0.0350
 3337W        W18806   1.355   3.474  16.726  0.0325 -0.1781 -0.1761
 3338W        W18807  17.590  16.710  12.234 -0.2498 -0.1406  0.2378
 3339W        W18808   7.792  14.138   2.265  0.0634  0.2126  0.1808
 3340W        W18809   1.715   6.167   4.420 -0.0567  0.1112 -0.1432
 3341W        W18810   4.374   7.218   0.481 -0.1274  0.1185  0.0602
 3342W        W18811   0.488  17.117   5.094  0.1270 -0.1486  0.0716
 3343W        W18812   2.242  13.570  12.582  0.2147  0.1354 -0.3521
 3344W        W18813  10.333   4.188  12.399  0.0490  0.1404 -0.0097
 3345W        W18814   5.031  12.664  14.978  0.0446  0.1987  0.0600
 3346W        W18815  10.228  10.264  15.785 -0.1301 -0.2496 -0.2173
 3347W        W18816  15.109   4.522   0.135 -0.0603 -0.3153  0.1742
 3348W        W18817   0.050   4.860  16.788  0.1515  0.1392 -0.1253
 3349W        W18818  10.992  11.373   4.794  0.0757 -0.1667 -0.2089
 3350W        W18819   0.162   9.095   1.748  0.1975 -0.0178  0.1739
 3351W        W18820  16.038  13.484  13.457 -0.1931  0.0996  0.1212
 3352W        W18821   7.573   7.395   3.665  0.4496  0.1075 -0.1232
 3353W        W18822   3.252  17.075  14.692  0.0542  0.1187  0.0643
 3354W        W18823  15.021  15.885   6.133 -0.2058 -0.2830  0.0894
 3355W        W18824   1.774   5.670  16.832 -0.0452 -0.2442  0.0118
 3356W        W18825  13.106  15.338  13.962  0.0745 -0.1757  0.0753
 3357W        W18826   1.257   8.020   5.363 -0.1803 -0.2695 -0.0631
 3358W        W18827  11.066  12.685  14.606  0.0844 -0.1139 -0.2154
 3359W        W18828   5.156   7.471  16.093 -0.3313 -0.2099  0.1481
 3360W        W18829  17.564  12.967   2.546  0.2932 -0.0327  0.0697
 3361W        W18830   6.681  15.478  15.008  0.3043  0.0882 -0.0866
 3362W        W18831   5.603  10.917   4.165  0.0541  0.0422 -0.1486
 3363W        W18832   3.212   2.756  15.680  0.1358  0.4118  0.0969
 3364W        W18833  11.043  14.065  16.556 -0.1615  0.1240  0.1143
 3365W        W18834   2.018   7.423   5.561  0.1043  0.4706 -0.1652
 3366W        W18835  14.991   1.305   1.868 -0.2153  0.1194  0.0074
 3367W        W18836  12.750  16.519  15.593  0.1558  0.1913  0.0943
 3368W        W18837   8.908  11.150  11.914 -0.0650  0.0800 -0.0768
 3369W        W18838  17.357  16.911   2.866  0.4423 -0.2032  0.0335
 3370W        W18839   4.308   8.146  13.279  0.0027  0.3221 -0.1539
 3371W        W18840  11.137  12.914   1.959 -0.0832 -0.0179 -0.0957
 3372W        W18841  15.316  15.952   3.789 -0.2544  0.0843 -0.0452
 3373W        W18842   1.836  11.742   4.286 -0.1208 -0.2509  0.2777
 3374W        W18843   8.313  14.977  14.359 -0.1358 -0.1813 -0.2907
 3375W        W18844  15.763   7.769  11.303 -0.0244 -0.0273 -0.0892
 3376W        W18845   4.888  14.928  12.874  0.3549 -0.2350  0.0504
 3377W        W18846  15.055  16.251  14.996  0.0409  0.2242 -0.0208
 3378W        W18847   4.234  16.115   4.547  0.1945 -0.4799 -0.0115
 3379W        W18848  15.858   8.322   6.204  0.1024 -0.2158  0.0515
 3380W        W18849   9.514   3.883   2.949  0.0239 -0.1775  0.0692
 3381W        W18850   2.012  14.340  15.960  0.0492 -0.0558  0.1472
 3382W        W18851   8.962   4.596  13.855 -0.0721  0.1066  0.0313
 3383W        W18852  12.773  11.385   2.494 -0.0507 -0.2324  0.0273
 3384W        W18853   0.727  16.377  14.148  0.1015  0.3274 -0.1108
 3385W        W18854   1.560  16.688   2.026  0.2552  0.0751  0.1393
 3386W        W18855  15.974   0.512   3.671  0.3915 -0.1005  0.1377
 3387W        W18856  10.206  12.009   2.477 -0.1208  0.2110  0.0557
 3388W        W18857   5.279   5.637  15.412 -0.2736 -0.1186  0.1850
 3389W        W18858   3.846   7.519   4.833  0.2129 -0.0876 -0.2641
 3390W        W18859   6.144   3.986   2.254  0.2070  0.0065  0.3671
 3391W        W18860  12.391   6.557  13.648 -0.4529  0.0946  0.0056
 3392W        W18861   1.350   6.264  15.501 -0.1065 -0.0508  0.0016
 3393W        W18862  10.086  11.690   3.194 -0.0254 -0.0034 -0.0414
 3394W        W18863   7.027  15.905   0.399  0.2062 -0.1226 -0.0689
 3395W        W18864  11.222   3.879   1.626 -0.0843  0.0806 -0.0176
 3396W        W18865  13.653  12.371   1.796  0.0130 -0.1451 -0.3396
 3397W        W18866   6.352   6.422  15.189 -0.3968 -0.2297  0.3998
 3398W        W18867  10.978   5.081   3.846  0.2186 -0.0987  0.2021
 3399W        W18868   1.837   1.056  15.561  0.1129  0.0210  0.3715
 3400W        W18869  10.161  11.921   5.492 -0.1858  0.0795  0.1959
 3401W        W18870  17.375   3.254  14.318 -0.1334 -0.1151  0.0822
 3402W        W18871  10.238   0.608  15.903 -0.0626 -0.0260  0.3034
 3403W        W18872  14.319   9.549  12.481 -0.0226  0.0852 -0.0608
 3404W        W18873   9.764   5.612  16.128 -0.1343 -0.3090  0.2201
 3405W        W18874   8.833  12.383   2.962  0.0547  0.1379  0.1955
 3406W        W18875  17.002   7.025   1.752  0.3314  0.3453 -0.2623
 3407W        W18876   6.393  12.656   0.066 -0.0490  0.0377  0.1549
 3408W        W18877   7.880   7.700  11.955  0.0184 -0.0776 -0.1452
 3409W        W18878   8.445  13.233   1.607  0.1901  0.2236 -0.1231
 3410W        W18879  17.351  10.771   1.901 -0.3594 -0.1017  0.1063
 3411W        W18880  13.321   1.210  14.668 -0.1896 -0.0519  0.1563
 3412W        W18881   2.784   9.549  14.604 -0.2789 -0.3160 -0.0112
 3413W        W18882  12.681   3.261  12.219  0.0711  0.0040  0.2660
 3414W        W18883   0.321   9.223   5.826  0.2228  0.1133  0.1992
 3415W        W18884   4.366  16.648   2.128  0.0393 -0.0525  0.0012
 3416W        W18885   6.401   0.256   5.572  0.0918 -0.2350  0.1202
 3417W        W18886   9.340   6.333   5.779  0.2824  0.1657  0.0373
 3418W        W18887   5.511   6.920  14.181 -0.0798  0.0357  0.2221
 3419W        W18888  11.660  13.481  11.669 -0.1970 -0.2153  0.0752
 3420W        W18889  12.345  11.134   2.307 -0.1908 -0.1568 -0.4488
 3421W        W18890  11.601  13.805   2.366  0.0353 -0.0342 -0.1502
 3422W        W18891  17.111   2.242  12.124  0.0311  0.0503  0.0968
 3423W        W18892   4.352   3.830  10.844  0.0284  0.1002  0.0486
 3424W        W18893   6.910   1.260  13.245 -0.1749  0.0109  0.0309
 3425W        W18894  11.939  15.471  12.381  0.3076  0.2367  0.0833
 3426W        W18895   7.850   2.798  16.441  0.0661 -0.0463 -0.2369
 3427W        W18896   6.684   2.020   2.605  0.1330 -0.0430 -0.0671
 3428W        W18897  12.918   7.572   3.381  0.2529  0.0406 -0.1309
 3429W        W18898  10.015  13.264  15.671 -0.0520  0.0452 -0.5004
 3430W        W18899  14.027   5.235  16.548  0.1316  0.1035  0.1528
 3431W        W18900   0.644   2.811   1.094 -0.2333 -0.0722 -0.3559
 3432W        W18901   7.220   1.415  12.417  0.1720  0.1623  0.1340
 3433W        W18902   8.052  14.042  14.428  0.0087  0.1263  0.2034
 3434W        W18903   1.276   0.552   0.098 -0.1009 -0.0920  0.0090
 3435W        W18904   7.202   3.205  16.616  0.0790  0.2407  0.1623
 3436W        W18905  16.998  14.742  12.781 -0.0424 -0.2398 -0.1994
 3437W        W18906  11.376  13.204  12.140  0.2559  0.0282  0.4084
 3438W        W18907  14.491   5.290  16.330  0.2494  0.1121 -0.1947
 3439W        W18908   1.131   7.985  14.313  0.1655  0.0508  0.1673
 3440W        W18909   6.601   1.799   3.674 -0.2749 -0.1409 -0.0284
 3441W        W18910   2.146  13.340  15.208 -0.0461 -0.2110 -0.2507
 3442W        W18911   0.110   3.977  12.564  0.0059 -0.1581 -0.0874
 3443W        W18912   0.677  13.018   3.685  0.0548  0.0973 -0.0427
 3444W        W18913   8.848  14.164   3.050  0.0741  0.1774 -0.4028
 3445W        W18914   5.226  11.655  15.971 -0.0708 -0.0651  0.3944
 3446W        W18915   9.628   2.405  16.009  0.1110  0.1632 -0.0136
 3447W        W18916   4.488   0.001  11.223 -0.1333  0.2676  0.2763
 3448W        W18917  12.924  13.851   5.499  0.2602  0.1638  0.0139
 3449W        W18918   9.657   3.612   4.657  0.0299  0.2206  0.5048
 3450W        W18919   5.333  14.381   3.834  0.3285 -0.0319 -0.0780
 3451W        W18920  12.491   9.547  14.782 -0.1899 -0.2751  0.3420
 3452W        W18921   6.708   5.335  15.982  0.0369 -0.0208 -0.0524
 3453W        W18922   3.767   5.593  16.367  0.0330 -0.1223  0.1911
 3454W        W18923  14.809  13.503   3.686 -0.2941  0.0453  0.2547
 3455W        W18924   5.734   5.052  16.118  0.0243  0.0272  0.2028
 3456W        W18925  12.494  16.997   5.345 -0.1020  0.3221 -0.1704
 3457W        W18926   7.432  14.768  14.673 -0.0678  0.0129  0.1075
 3458W        W18927   4.514   4.574   3.668  0.0291  0.2197  0.1609
 3459W        W18928  17.212   5.321   3.591  0.1574 -0.1425 -0.0510
 3460W        W18929  10.467  14.627  14.936 -0.0369  0.1105 -0.0451
 3461W        W18930  11.201   6.837   3.039  0.0857  0.4798  0.1211
 3462W        W18931   7.116  17.517  11.764 -0.0315 -0.1303  0.5596
 3463W        W18932   8.696   0.484  16.618  0.0260 -0.0797  0.3374
 3464W        W18933   2.386  12.839   3.313 -0.1198  0.0955  0.2156
 3465W        W18934   7.766   0.662   0.227 -0.0296  0.4512 -0.0895
 3466W        W18935  10.947  12.500  15.436  0.1157 -0.1161 -0.0607
 3467W        W18936   9.569   0.742  11.272 -0.0741 -0.0532 -0.1516
 3468W        W18937  17.251   5.524  12.627  0.0540  0.2494 -0.0552
 3469W        W18938   9.976  12.582  13.426  0.3727 -0.0516 -0.0135
 3470W        W18939   2.522   3.527  12.294 -0.1214  0.0947 -0.2933
 3471W        W18940   9.871   2.674   0.043  0.0242  0.2036 -0.0697
 3472W        W18941   1.097  14.717  15.907 -0.0111  0.0644  0.1758
 3473W        W18942  12.572  12.771   3.627 -0.1373 -0.3588  0.0519
 3474W        W18943   7.728   5.508   6.170  0.1947 -0.1919  0.1420
 3475W        W18944   6.277  16.584  15.099 -0.0189 -0.0096 -0.1065
 3476W        W18945  11.948   3.147  16.148  0.0450  0.2013  0.0917
 3477W        W18946  10.738   1.572  16.842  0.0398 -0.0373 -0.3945
 3478W        W18947   5.163   9.545   2.097 -0.1561  0.1455  0.2929
 3479W        W18948  15.878   3.666  15.282  0.0388  0.2613 -0.0933
 3480W        W18949   0.487  16.553  13.224  0.2590 -0.1407  0.1328
 3481W        W18950   0.235   0.879  13.893 -0.0397  0.1338 -0.4519
 3482W        W18951   0.300  12.976  15.074 -0.2100  0.3343 -0.0056
 3483W        W18952   1.440  10.268  14.162 -0.0226 -0.0685 -0.1086
 3484W        W18953   1.445   2.722   5.351  0.3467 -0.0093  0.1370
 3485W        W18954  10.815   3.458  12.082 -0.1899  0.1613 -0.0043
 3486W        W18955   0.631   2.058  11.510  0.1650  0.0548 -0.0517
 3487W        W18956   8.946  11.877  15.321  0.1731 -0.1602  0.0361
 3488W        W18957  16.284  15.046  11.699  0.4014  0.0465  0.1426
 3489W        W18958   1.930  16.821   0.644  0.0097  0.1780 -0.0521
 3490W        W18959   7.722  14.209   1.027 -0.0718 -0.1618  0.3452
 3491W        W18960   2.401  17.681   4.061  0.0867 -0.1462  0.0004
 3492W        W18961  16.670   3.280  12.897  0.1386 -0.0158 -0.0695
 3493W        W18962  12.381   8.940   0.883 -0.0436  0.0424  0.2013
 3494W        W18963   1.929  15.876   2.452 -0.0647 -0.1939 -0.0596
 3495W        W18964  14.372   3.088   4.133 -0.2007  0.0666 -0.0769
 3496W        W18965   2.608  13.243  16.566 -0.1117  0.0404 -0.2868
 3497W        W18966   7.010   5.556   0.058  0.2099  0.0130  0.0048
 3498W        W18967   5.999  16.696  11.408 -0.1049 -0.0744  0.1485
 3499W        W18968   0.818   9.440   9.780 -0.0980  0.0719 -0.1961
 3500W        W18969   8.946   9.572   2.313  0.1905 -0.1160 -0.0044
 3501W        W18970   7.798   8.775   6.526  0.6318 -0.3767 -0.1375
 3502W        W18971  13.616  17.271  14.488  0.3089 -0.2521  0.0347
 3503W        W18972   6.983   7.914  15.952 -0.0012 -0.0297 -0.0768
 3504W        W18973   4.383  12.979   2.199  0.0607 -0.2368 -0.1683
 3505W        W18974  11.082   4.605   3.680 -0.0383 -0.2033 -0.0553
 3506W        W18975  11.226   3.294   0.011  0.4951 -0.4144  0.0338
 3507W        W18976   8.139   2.599  12.034  0.3474  0.1045 -0.0883
 3508W        W18977   0.128   2.231   0.253  0.1598 -0.2497 -0.2089
 3509W        W18978  17.504   1.163   5.443  0.1326 -0.1957 -0.1643
 3510W        W18979   2.748  13.930  14.905  0.0087 -0.2258  0.1546
 3511W        W18980  17.465  11.251  13.081  0.1450  0.0958  0.0241
 3512W        W18981  15.225   5.309   3.217  0.2198  0.1782  0.0162
 3513W        W18982   2.393   1.367   1.053  0.3126  0.0616 -0.0694
 3514W        W18983  17.040   1.856  12.596 -0.4497  0.0612  0.1096
 3515W        W18984   6.234  12.973   3.953  0.0651  0.0439  0.2457
 3516W        W18985   8.749   7.841   2.174  0.2663  0.0892 -0.0856
 3517W        W18986  14.857   3.167   3.782  0.0450  0.1774  0.0802
 3518W        W18987   6.347  12.666  12.022 -0.1185 -0.0685  0.2979
 3519W        W18988  15.505  17.651   4.813 -0.1473  0.2576 -0.0093
 3520W        W18989   1.823   3.951   4.556  0.0494  0.0570 -0.0847
 3521W        W18990   4.050   3.780  11.604  0.1170 -0.0021  0.0710
 3522W        W18991   4.811   2.572  15.278  0.0954  0.0207  0.2563
 3523W        W18992  16.709  17.228  15.409 -0.1020 -0.2812 -0.1668
 3524W        W18993  12.502  10.675  13.996  0.1699  0.4650 -0.1485
 3525W        W18994   2.118   8.262   0.819  0.1691  0.1740 -0.5433
 3526W        W18995   5.285   7.611   5.127  0.0709  0.0062 -0.0495
 3527W        W18996  13.996  14.163  14.196  0.0620 -0.2910 -0.0321
 3528W        W18997  15.934   9.658   2.106  0.0622 -0.0480 -0.1787
 3529W        W18998  13.469  15.515   1.014  0.1157  0.0945  0.2534
 3530W        W18999  16.416   2.691  12.132  0.0034  0.0803  0.1213
 3531W        W19000  15.583   7.255  13.248 -0.1866 -0.0385  0.0414
 3532W        W19001  11.535   3.478   1.670 -0.0740  0.0406  0.0193
 3533W        W19002  13.544   2.557   0.921 -0.0854  0.1394 -0.2390
 3534W        W19003   0.757   5.875  12.332 -0.2533  0.3270 -0.2965
 3535W        W19004   5.009  17.719  16.823  0.5205  0.0019  0.3992
 3536W        W19005   9.225  13.812   1.996  0.5341  0.0557  0.0219
 3537W        W19006   3.239  11.387  16.176  0.1991  0.1117  0.0266
 3538W        W19007   1.796   7.104   1.397  0.1722  0.2227 -0.0126
 3539W        W19008  17.198   4.027   1.621 -0.0140 -0.1412  0.4279
 3540W        W19009  16.745   2.006  15.450  0.0063  0.0870  0.0408
 3541W        W19010   2.595  11.576  14.515  0.0785  0.0880 -0.2359
 3542W        W19011   5.462   8.636  15.587 -0.1801 -0.1942 -0.0217
 3543W        W19012   8.016   9.398  16.378 -0.2434  0.0102 -0.2802
 3544W        W19013   9.985   5.382   4.970  0.2706  0.1220 -0.1785
 3545W        W19014  10.659   2.708   4.645  0.0829 -0.0279  0.0091
 3546W        W19015  11.290   2.836  16.618 -0.5241 -0.3630 -0.3308
 3547W        W19016   7.621  12.530   5.959  0.0531  0.4228  0.1809
 3548W        W19017   6.209   0.574   0.964 -0.1966 -0.1588  0.2823
 3549W        W19018   0.040  16.983   5.713  0.1749 -0.0533  0.1853
 3550W        W19019  12.442  16.733  11.851 -0.3778 -0.0986  0.2570
 3551W        W19020   7.496   7.088   1.026  0.1464  0.0290  0.0511
 3552W        W19021  15.227  13.509   1.948  0.2427 -0.2857 -0.2107
 3553W        W19022   5.288   0.246  16.359 -0.2475  0.0339  0.1428
 3554W        W19023   2.180   7.910   1.768 -0.1463 -0.0477 -0.0567
 3555W        W19024  16.511   1.873  15.923  0.0220  0.1434  0.0654
 3556W        W19025  17.410   2.182   3.847  0.0323  0.1661  0.0976
 3557W        W19026  12.113  11.947   0.258 -0.0274 -0.0927 -0.0555
 3558W        W19027  12.787   6.375   2.513  0.2834  0.0189  0.2992
 3559W        W19028   9.228  15.937  14.099 -0.1655  0.1940  0.2078
 3560W        W19029  16.370  14.290  12.521  0.2217 -0.0600 -0.0486
 3561W        W19030  13.495   1.970   4.305 -0.1736 -0.1337  0.0842
 3562W        W19031   4.650  17.696  15.796  0.1058 -0.4228 -0.1185
 3563W        W19032  14.134  11.548  14.064  0.0011  0.1203  0.3032
 3564W        W19033  12.464  17.303   3.454  0.0027 -0.0357 -0.1608
 3565W        W19034  17.430   7.417   3.517  0.0538 -0.0287  0.1688
 3566W        W19035   8.815  13.389  12.645  0.0246  0.0446 -0.1561
 3567W        W19036   7.904   6.448  15.376 -0.0624  0.0201  0.1287
 3568W        W19037   5.898  12.783   1.698 -0.2282  0.1232  0.0815
 3569W        W19038   5.227   1.297   3.378  0.1548  0.1574  0.2801
 3570W        W19039   1.785   4.889   1.009 -0.0706 -0.0798  0.0836
 3571W        W19040   1.269   7.370   4.739 -0.1611  0.1367 -0.1917
 3572W        W19041   7.636  17.704  13.018  0.2760 -0.0593  0.2167
 3573W        W19042  14.394   9.164   0.598  0.0362 -0.1756  0.0832
 3574W        W19043   4.247   9.345   5.050  0.3429 -0.0012  0.2773
 3575W        W19044   8.296   8.102   2.047  0.1424  0.1462  0.2022
 3576W        W19045  15.716  15.928  10.692  0.2622  0.2931  0.1121
 3577W        W19046  17.759  16.910   2.603 -0.1963 -0.2628  0.1769
 3578W        W19047  11.610   7.365   4.345  0.1058  0.1227 -0.0936
 3579W        W19048   3.344   8.624   1.119  0.2906  0.0663  0.0918
 3580W        W19049   7.824   2.514  15.219  0.0593 -0.0910  0.4482
 3581W        W19050   0.724   2.718  16.363 -0.0389  0.1236 -0.1627
 3582W        W19051   2.106   6.628  15.419  0.0543  0.2703  0.1578
 3583W        W19052  13.870  10.050  16.520 -0.0427 -0.1771  0.0644
 3584W        W19053  13.189  16.329  15.748 -0.0020 -0.0626 -0.0812
 3585W        W19054  10.274  10.211  14.874  0.2530 -0.0349  0.1164
 3586W        W19055  17.577  13.244  15.953  0.1618  0.4263  0.0048
 3587W        W19056   0.469  15.246  12.660 -0.0812 -0.2942  0.0012
 3588W        W19057  12.869   5.265  15.271 -0.0264 -0.0463 -0.0841
 3589W        W19058  17.034  15.259  13.910 -0.2577  0.6505  0.2851
 3590W        W19059   6.308  12.683  15.053  0.2457 -0.0130 -0.2576
 3591W        W19060   2.758  11.313  16.297 -0.0550 -0.0649 -0.0657
 3592W        W19061   6.822  15.979  14.018  0.1558  0.1931  0.0461
 3593W        W19062   3.624  15.222   3.168 -0.1002 -0.0506  0.0261
 3594W        W19063   0.909   7.275  15.990  0.2294 -0.0842 -0.1476
 3595W        W19064   6.458  14.060  11.631 -0.1564  0.0027  0.0023
 3596W        W19065  11.085   8.251   4.998  0.0776  0.0752 -0.1874
 3597W        W19066  15.426  12.973   5.550  0.2731  0.0247 -0.2778
 3598W        W19067   6.048   1.283  16.171  0.0750 -0.2787  0.2117
 3599W        W19068   5.153   7.756   2.738 -0.1026  0.1343  0.1948
 3600W        W19069   5.590  10.827   4.652  0.4531  0.1386  0.0514
 3601W        W19070  15.110   0.972   0.994  0.0673  0.0524  0.0010
 3602W        W19071  10.734  17.587   5.809  0.0321  0.1862  0.2913
 3603W        W19072  17.566  12.371   0.703 -0.3656  0.1101 -0.0183
 3604W        W19073   9.909   0.646   2.022  0.2245  0.0934  0.2632
 3605W        W19074   0.392  11.036  11.201  0.1828  0.1390 -0.0688
 3606W        W19075  10.386  10.063   3.267 -0.1139  0.0475 -0.0400
 3607W        W19076   7.447  10.417   6.071  0.2407 -0.1850  0.1342
 3608W        W19077  10.760  14.333   5.010 -0.2448 -0.1930  0.2761
 3609W        W19078   1.086   1.358   3.116 -0.1745  0.0982  0.0434
 3610W        W19079  17.234   1.715  12.019 -0.0053 -0.1087  0.1072
 3611W        W19080  16.878   7.024   0.552 -0.1616  0.1718 -0.0323
 3612W        W19081   3.891   9.636   5.225 -0.0426  0.0461  0.3124
 3613W        W19082  11.307   6.995   0.983 -0.0358  0.0196 -0.2542
 3614W        W19083  16.948  12.492  10.813  0.1046  0.0955 -0.1657
 3615W        W19084   0.859   3.795   3.127  0.1034 -0.0551  0.0328
 3616W        W19085   4.006  12.245   3.962 -0.3248 -0.2126  0.0396
 3617W        W19086  10.397   3.813   4.455 -0.1515 -0.1528  0.0449
 3618W        W19087  12.111  17.485  16.390  0.0883  0.0969 -0.0188
 3619W        W19088   4.295  11.912   2.973  0.0079  0.0820  0.0648
 3620W        W19089  16.726   0.259   1.296  0.0291  0.2809 -0.2040
 3621W        W19090   0.760   4.969   5.129  0.0542  0.0755  0.0352
 3622W        W19091   3.040  10.510   4.343  0.0648 -0.2111 -0.1578
 3623W        W19092   9.320  13.258  13.380 -0.0402  0.0803 -0.0785
 3624W        W19093  12.600  13.742   1.515 -0.1026  0.3743 -0.3871
 3625W        W19094   5.743   0.644   1.334  0.3207 -0.0094 -0.1845
 3626W        W19095   4.580   8.085   5.152 -0.1458  0.1712 -0.1104
 3627W        W19096   7.735   5.936  14.008 -0.0736  0.0360 -0.0322
 3628W        W19097   4.304   3.536  11.302 -0.2887  0.0855 -0.0825
 3629W        W19098   7.946   7.658  14.153  0.4671 -0.1525 -0.4212
 3630W        W19099  11.289   2.346   4.101  0.0222 -0.0538 -0.0340
 3631W        W19100  13.165   1.351   3.215  0.1691 -0.1090  0.3410
 3632W        W19101   9.196   4.855  14.675  0.0258  0.1012 -0.1324
 3633W        W19102   8.886  13.446  15.717  0.0215  0.1031 -0.4259
 3634W        W19103   8.267   7.184   2.518 -0.1703  0.1129  0.4232
 3635W        W19104   4.167   6.435   0.404 -0.1462 -0.2395 -0.3704
 3636W        W19105   6.309  16.224  13.212  0.5180  0.0417  0.2396
 3637W        W19106   5.223  12.904   3.935  0.4135  0.1377  0.0826
 3638W        W19107  14.959  15.669   0.007 -0.1063  0.2612 -0.1973
 3639W        W19108  12.661  10.226  13.199 -0.2125  0.0043  0.2064
 3640W        W19109  16.381  14.169  12.039  0.1932  0.1186  0.0956
 3641W        W19110  17.367  10.257  16.376  0.0679 -0.1010 -0.2506
 3642W        W19111  14.162   4.168   0.805 -0.0844 -0.1477 -0.2985
 3643W        W19112   0.720  16.672  11.470 -0.3509  0.0938 -0.1886
 3644W        W19113   8.427   9.177   1.615 -0.0167 -0.1926  0.2481
 3645W        W19114   0.095   7.736   0.666  0.0055  0.1366 -0.0363
 3646W        W19115  11.422  17.228  15.088 -0.1511  0.0797 -0.1382
 3647W        W19116  17.412  16.280   4.819  0.0417 -0.0605 -0.0059
 3648W        W19117   4.712   2.719  14.785 -0.2262  0.0610 -0.0537
 3649W        W19118  14.906  11.166  11.849  0.1388  0.0022 -0.0144
 3650W        W19119   8.622   9.282  15.164  0.0869 -0.0817  0.2060
 3651W        W19120   0.839  10.145   1.442 -0.0949 -0.0524  0.3533
 3652W        W19121   7.358   1.630  15.552 -0.1166  0.0380  0.2175
 3653W        W19122  14.319   5.685  14.386  0.1677 -0.0643 -0.0728
 3654W        W19123   0.341   1.505  10.868 -0.2536  0.0605 -0.3920
 3655W        W19124  16.433  13.462  15.988  0.4298  0.1234  0.0369
 3656W        W19125  17.528   5.308   2.190  0.1917 -0.1263  0.1665
 3657W        W19126  15.071  14.710  15.210 -0.1538  0.0323  0.1614
 3658W        W19127   5.997   9.662  15.617 -0.1363  0.2506  0.2187
 3659W        W19128   3.514   1.251  13.426  0.0630  0.1680 -0.0022
 3660W        W19129  10.110   4.358   2.341  0.2225 -0.0204 -0.3153
 3661W        W19130   0.759   7.525  16.827 -0.0346 -0.0164  0.1308
 3662W        W19131   1.340  15.916   0.173  0.0443 -0.0816  0.0654
 3663W        W19132  14.606   3.617   5.681 -0.0439 -0.0976 -0.1151
 3664W        W19133  13.826   0.546  12.398 -0.0762  0.2727 -0.1373
 3665W        W19134   9.726  13.944  16.431  0.2820  0.1014 -0.1160
 3666W        W19135   1.030   6.882   1.591  0.2500 -0.3138 -0.4423
 3667W        W19136   8.483  14.931   2.115  0.5712 -0.1577 -0.1153
 3668W        W19137   2.713  15.725  16.139  0.3440 -0.0533 -0.4612
 3669W        W19138   7.327  10.061  16.097  0.2649 -0.1956 -0.1840
 3670W        W19139   3.581  11.447   2.590 -0.0318  0.2710  0.1197
 3671W        W19140  13.305  10.867  15.859 -0.1027  0.1034  0.2428
 3672W        W19141  12.236   0.541  16.689 -0.1116 -0.0276 -0.0334
 3673W        W19142  10.407  15.473   2.842  0.1575 -0.0771 -0.1553
 3674W        W19143   6.156  13.852  14.067 -0.1323 -0.0136  0.3688
 3675W        W19144   4.320  17.562  15.379  0.0994  0.0450  0.1523
 3676W        W19145   3.989  17.750   4.962 -0.0595  0.0651  0.3317
 3677W        W19146  11.647  10.066  15.318  0.2002  0.0045  0.1888
 3678W        W19147   3.266   8.266   3.850  0.1762  0.1694  0.0563
 3679W        W19148  16.042   6.141   0.265  0.1251  0.0136 -0.0148
 3680W        W19149   8.568   4.788   3.396 -0.1893  0.0468 -0.1512
 3681W        W19150   1.861  12.352   0.388  0.1688 -0.1667 -0.0401
 3682W        W19151   1.258   1.042   0.128 -0.0919  0.2488 -0.0150
 3683W        W19152  16.208  12.261  14.649 -0.4288 -0.1297  0.2285
 3684W        W19153  14.975  13.676   2.315  0.0568  0.1530  0.3165
 3685W        W19154   5.556  17.368  11.627  0.1290  0.1101 -0.0788
 3686W        W19155  16.015   3.646   2.781  0.1964  0.0287 -0.1455
 3687W        W19156  12.017   9.360   2.889 -0.0085 -0.0038 -0.0063
 3688W        W19157  10.333  13.007   3.722  0.0413  0.0391 -0.2292
 3689W        W19158  12.800   7.374  12.033  0.2823 -0.2440  0.1182
 3690W        W19159   9.434   7.221   0.424 -0.1237 -0.1047  0.1986
 3691W        W19160  17.628  10.743   5.277 -0.0836  0.0944  0.1397
 3692W        W19161  13.080  14.447  13.961 -0.0740 -0.0604 -0.0669
 3693W        W19162   9.407  14.187   3.800 -0.3175  0.2425 -0.0244
 3694W        W19163   1.287  11.419   1.470 -0.2304  0.1320 -0.0175
 3695W        W19164  11.585   0.886   1.991 -0.1685 -0.2326  0.0688
 3696W        W19165  12.855   9.014   1.738 -0.0653  0.0277  0.0257
 3697W        W19166  12.722  13.847   2.473 -0.1682  0.0604 -0.1544
 3698W        W19167  10.418  11.932  15.301 -0.1302 -0.0912 -0.1200
 3699W        W19168   1.274  10.354   2.598 -0.3023  0.1042  0.0374
 3700W        W19169  12.095   1.141   3.838 -0.0017 -0.2034 -0.2723
 3701W        W19170   9.848   2.991  16.133  0.2729  0.0228 -0.4043
 3702W        W19171   6.061  13.123  15.151  0.0267 -0.0523  0.3986
 3703W        W19172   7.294  12.131   0.526  0.2236 -0.0981 -0.0609
 3704W        W19173  12.974   9.731  13.101 -0.1593  0.3592  0.0376
 3705W        W19174   6.777   3.147   5.894 -0.0081  0.0379  0.1258
 3706W        W19175  14.492  14.720   5.038  0.0893  0.1802 -0.1641
 3707W        W19176   5.539   0.945  14.452  0.1605 -0.1334 -0.0859
 3708W        W19177   7.085  10.140  15.009 -0.1172  0.1576 -0.0322
 3709W        W19178  10.554  15.353   4.562  0.2165 -0.0169  0.2479
 3710W        W19179   3.845   3.161   2.131 -0.1595 -0.1038  0.2215
 3711W        W19180  14.257  11.828   5.540 -0.2598  0.0803 -0.0305
 3712W        W19181   5.506  15.637  14.392 -0.0145 -0.1329  0.0084
 3713W        W19182  13.551  10.322  12.460 -0.3030 -0.2650  0.5552
 3714W        W19183  13.157   2.571  15.445  0.0274  0.1874  0.0260
 3715W        W19184   0.519   1.036  11.507  0.2030  0.0563 -0.1534
 3716W        W19185   4.055   2.787   2.506 -0.1078 -0.0958  0.0674
 3717W        W19186   9.589  11.515   4.796  0.0523  0.1338  0.0790
 3718W        W19187  11.338  10.743   2.386 -0.1195 -0.4880 -0.1046
 3719W        W19188   6.112  10.666   3.424  0.1221 -0.3984 -0.0330
 3720W        W19189  16.810  15.840  11.746 -0.1385  0.1250  0.1261
 3721W        W19190  10.680  11.158  14.753  0.1113 -0.2245  0.1351
 3722W        W19191   6.403   7.798  14.864  0.4271  0.1704  0.2551
 3723W        W19192  15.126   4.756  16.155  0.1777  0.0041 -0.0689
 3724W        W19193   5.161   2.924  11.588 -0.0879 -0.1954 -0.2016
 3725W        W19194   1.579  16.911   2.454 -0.1635 -0.0853 -0.2538
 3726W        W19195   0.786  10.335   4.359 -0.1236 -0.2012 -0.0461
 3727W        W19196   6.588   4.403   3.837  0.0737  0.0741 -0.2561
 3728W        W19197   2.277  13.884   3.529  0.3136  0.0021 -0.0403
 3729W        W19198  10.365   5.792   1.271  0.1556 -0.2624 -0.0563
 3730W        W19199   1.521   0.160   2.590 -0.3358 -0.2102  0.0889
 3731W        W19200  16.127   1.006   2.134  0.1317  0.1033 -0.0776
 3732W        W19201  16.735  12.299  15.313  0.0334  0.0332 -0.0419
 3733W        W19202  14.481   2.840  14.264 -0.1443 -0.2775  0.0225
 3734W        W19203  17.320  13.055   1.583 -0.0850 -0.1411  0.0048
 3735W        W19204  12.350  10.882   1.293  0.1176  0.0578 -0.1674
 3736W        W19205   9.892  10.267   0.559  0.0820 -0.0285  0.2169
 3737W        W19206   0.872  11.632   1.646 -0.0418 -0.1180 -0.0539
 3738W        W19207  13.430   0.656   4.704  0.0589 -0.0247 -0.0930
 3739W        W19208   6.304   9.785  16.484 -0.0728 -0.1822 -0.5310
 3740W        W19209   7.504  12.528   0.678 -0.1229 -0.6023 -0.1397
 3741W        W19210  13.220   2.091   2.986 -0.0422 -0.1870 -0.0557
 3742W        W19211   2.538  15.060   0.112  0.3444  0.0626  0.2762
 3743W        W19212  13.897   0.513  15.237 -0.0964 -0.1300  0.1095
 3744W        W19213   7.181  10.057   5.806  0.4326  0.2366  0.0299
 3745W        W19214   4.602   5.937   2.949  0.2166  0.0079 -0.1310
 3746W        W19215  13.585  16.809  16.722 -0.0224  0.2197 -0.2144
 3747W        W19216  14.260   5.820  15.602 -0.1251 -0.1197  0.0210
 3748W        W19217  10.764  14.374   6.743 -0.2473  0.0145  0.0159
 3749W        W19218   9.528   5.327   5.262  0.0165  0.1176  0.0866
 3750W        W19219   9.495   0.114  15.628  0.1173  0.1810  0.2574
 3751W        W19220   5.767   9.456  11.683  0.0158  0.2059 -0.1338
 3752W        W19221  10.005  12.249   5.152  0.0904  0.0214  0.2201
 3753W        W19222  16.411   0.635  13.036 -0.3982 -0.0477 -0.0990
 3754W        W19223  16.468  16.415  14.238  0.0160  0.1230  0.2852
 3755W        W19224  16.853   1.400  12.825  0.2512 -0.2747  0.0084
 3756W        W19225  16.875   1.346   3.035 -0.2225 -0.2154 -0.2075
 3757W        W19226  13.368  17.120   0.697  0.2947  0.0885 -0.0429
 3758W        W19227   6.379  10.487   3.856 -0.1765 -0.2976  0.0522
 3759W        W19228   2.213  13.951  12.271 -0.3654  0.0176  0.1644
 3760W        W19229  10.529  13.635   2.909 -0.0796  0.2092 -0.0393
 3761W        W19230  12.593   1.130  15.399  0.1280  0.3652 -0.0908
 3762W        W19231  13.061  13.163  15.582  0.0337  0.1734 -0.2929
 3763W        W19232  13.056   1.167  15.697  0.0535  0.0165 -0.0005
 3764W        W19233  15.592   2.924  14.372 -0.2947 -0.2140 -0.1922
 3765W        W19234  17.565  17.754   2.519 -0.2356  0.0833 -0.1458
 3766W        W19235   7.372   9.056   4.475  0.2860  0.1703 -0.0186
 3767W        W19236  11.465  11.798  15.014 -0.0673  0.0603 -0.1242
 3768W        W19237   9.065   6.307   4.205 -0.0961  0.2183 -0.1864
 3769W        W19238   2.443  13.905   2.538  0.0245 -0.1082  0.0980
 3770W        W19239   2.019  16.942   5.648  0.2669  0.3285 -0.1512
 3771W        W19240  16.881  11.194   0.705  0.1467  0.0512  0.1370
 3772W        W19241   6.865  12.496  16.583  0.2163 -0.1236 -0.0181
 3773W        W19242  11.985   3.525  15.813 -0.0091  0.0883  0.0248
 3774W        W19243   6.665  11.225   1.823 -0.0449  0.0180 -0.0279
 3775W        W19244   9.262   3.681  16.462  0.1174  0.0779  0.3921
 3776W        W19245  12.462  12.984   3.170 -0.1069  0.1261 -0.2365
 3777W        W19246   3.880  15.999  13.730 -0.4241 -0.2366 -0.0357
 3778W        W19247  14.529   2.311   1.199 -0.2165 -0.0226 -0.1089
 3779W        W19248  10.982   0.848  14.181  0.2894 -0.2300  0.0921
 3780W        W19249  15.111  11.338   0.478  0.2610 -0.2582 -0.0901
 3781W        W19250   9.583  15.900  13.232 -0.0865  0.1890  0.1560
 3782W        W19251   0.488  13.805   1.270  0.2199 -0.0293  0.1139
 3783W        W19252   1.345   9.470  15.527 -0.0661 -0.2472  0.1523
 3784W        W19253   6.927  15.627  15.417  0.1781 -0.1245  0.3431
 3785W        W19254  10.433   8.026  12.975  0.0161 -0.1705 -0.1808
 3786W        W19255  14.201  13.576  12.111 -0.4314 -0.0074 -0.2033
 3787W        W19256  10.557   1.042  15.042 -0.0017 -0.0135  0.0582
 3788W        W19257  14.218   4.204  12.714  0.2299  0.0847  0.0142
 3789W        W19258  16.557   1.161   5.101 -0.1618  0.1099  0.0754
 3790W        W19259  12.542  12.353  16.238  0.1820  0.0893 -0.1939
 3791W        W19260  16.552  16.636  14.720  0.0630  0.2520 -0.0742
 3792W        W19261  15.980  14.524  11.837 -0.0088 -0.0329  0.0040
 3793W        W19262  14.084  17.115   2.323  0.0037  0.0406  0.0667
 3794W        W19263   1.678   8.092   3.672  0.2051 -0.2189 -0.2111
 3795W        W19264  17.726  13.402  13.774  0.0314 -0.1442  0.0700
 3796W        W19265   7.365  17.493   1.200 -0.2395 -0.2815  0.0464
 3797W        W19266   4.855  13.914  16.791  0.3017  0.0563  0.3189
 3798W        W19267   3.031   8.957  11.014  0.1717  0.3000 -0.2951
 3799W        W19268  16.703   1.530   4.786  0.0605 -0.1497 -0.1413
 3800W        W19269   7.651  14.896  13.434 -0.2723  0.2246  0.3449
 3801W        W19270   9.285   2.825   0.629  0.2531 -0.0307  0.0246
 3802W        W19271   7.954   2.637   0.500  0.0515 -0.0583  0.0547
 3803W        W19272   1.046   3.878  13.965  0.0280  0.1323  0.1433
 3804W        W19273  11.809  13.068  12.924  0.1241  0.1113  0.2677
 3805W        W19274   7.291   5.035   2.233 -0.1573 -0.0162 -0.1250
 3806W        W19275  12.169   4.593  13.171 -0.4523 -0.0390  0.0646
 3807W        W19276   9.977  12.671   4.148  0.2282 -0.0571  0.1515
 3808W        W19277   8.089  17.778   2.587  0.0506  0.1178 -0.0216
 3809W        W19278   4.708   4.016   1.920 -0.0535 -0.1610 -0.0677
 3810W        W19279   5.836   5.219  14.545 -0.1871 -0.2273 -0.1883
 3811W        W19280   2.582   7.391   4.701  0.0721  0.1071  0.0374
 3812W        W19281  10.289  17.778   4.869  0.1596  0.2049  0.2921
 3813W        W19282   5.296   3.439   2.439 -0.0313 -0.0553  0.0690
 3814W        W19283   8.949   2.638   3.917 -0.3447  0.2154 -0.2221
 3815W        W19284  10.328   5.177  15.708  0.0160 -0.2209  0.0873
 3816W        W19285   1.564  17.367   1.597 -0.3972 -0.3872 -0.0698
 3817W        W19286   1.225  10.675  16.022 -0.1223  0.0782 -0.0565
 3818W        W19287  11.115  11.836  13.236 -0.1334 -0.0143 -0.1181
 3819W        W19288  15.209  14.577   3.808  0.1007 -0.3848  0.1466
 3820W        W19289   7.842  11.939  16.736 -0.1544  0.0589 -0.0328
 3821W        W19290  10.748  16.986   0.210 -0.0058  0.2729  0.2137
 3822W        W19291   9.181   2.786   4.729  0.2071 -0.0194 -0.0804
 3823W        W19292  15.728   8.666   5.177 -0.2619 -0.2467  0.1230
 3824W        W19293   7.498   5.424  16.649  0.0645 -0.0064  0.0087
 3825W        W19294   0.403   9.105  14.735 -0.0093 -0.0882 -0.1450
 3826W        W19295   9.868  14.341   5.087 -0.0451 -0.0668 -0.2041
 3827W        W19296   4.273  15.621  12.835  0.3664 -0.1651 -0.0231
 3828W        W19297   2.504   9.866  12.676 -0.1275  0.0474  0.1252
 3829W        W19298  15.532  10.696   0.024  0.0366  0.0670 -0.1923
 3830W        W19299  13.601  11.336   3.928  0.1622 -0.2222  0.1197
 3831W        W19300   9.572   4.125   4.613  0.1834  0.0420 -0.0524
 3832W        W19301  14.036   1.192  13.066  0.0398 -0.0961  0.0955
 3833W        W19302   6.675  13.677   6.464  0.0469  0.2310 -0.1271
 3834W        W19303  14.379  14.038  15.520  0.1959  0.2964 -0.0760
 3835W        W19304   1.300  13.528   1.431  0.2370 -0.0989 -0.1615
 3836W        W19305   9.110   4.503  13.068 -0.2918  0.0502  0.1380
 3837W        W19306  11.533  10.707   1.211  0.0910  0.2190  0.0737
 3838W        W19307   8.117  15.832  16.239 -0.0430  0.0213 -0.0559
 3839W        W19308   9.390  11.148  11.499 -0.2259 -0.2458 -0.1771
 3840W        W19309   0.919   7.740   3.092  0.0292 -0.0397  0.0861
 3841W        W19310   0.091  16.503  16.425 -0.0282  0.0804 -0.1980
 3842W        W19311   9.007  14.506   4.704 -0.0774 -0.2310 -0.1977
 3843W        W19312   4.973  11.365  12.464  0.2129 -0.0443  0.0691
 3844W        W19313  11.714  11.690   0.519  0.0360  0.0450  0.0597
 3845W        W19314  15.169  13.067   0.344  0.1364  0.1885 -0.1625
 3846W        W19315   0.405  13.821   4.710  0.0655 -0.2877  0.2309
 3847W        W19316   7.556  10.290   4.197 -0.0578 -0.2296  0.0683
 3848W        W19317   7.936   2.517  12.739  0.1011  0.1263  0.0427
 3849W        W19318  10.875   9.134   4.960  0.1184 -0.0198  0.0888
 3850W        W19319  12.047   4.161   2.002 -0.1789 -0.2116  0.0446
 3851W        W19320  10.927   1.820  14.609  0.0057 -0.0341 -0.1150
 3852W        W19321   8.345   3.652   5.379  0.0241  0.0039 -0.2948
 3853W        W19322  12.398  14.316   1.830  0.3535 -0.2136 -0.0131
 3854W        W19323   1.798   1.018  13.336 -0.1438  0.0645  0.0829
 3855W        W19324   4.895  10.861   2.192  0.0215 -0.1759  0.2541
 3856W        W19325   6.840   9.473   2.818 -0.3262 -0.0358 -0.1952
 3857W        W19326  17.281  16.911   2.360 -0.2011 -0.2185  0.1877
 3858W        W19327   8.047   7.353   2.114  0.3367  0.0183 -0.1266
 3859W        W19328   6.062   9.347  13.887  0.2647 -0.2555 -0.0120
 3860W        W19329   0.521   6.147   0.480  0.1090  0.1461  0.0785
 3861W        W19330  17.021   9.104   4.962  0.4715  0.0272 -0.0521
 3862W        W19331   5.728  13.688   3.549  0.1259 -0.0959 -0.2525
 3863W        W19332  11.668   2.104  14.470  0.0534 -0.0164 -0.0252
 3864W        W19333   0.231   5.401  15.179 -0.1759 -0.1337  0.0090
 3865W        W19334   6.748   4.630   5.347 -0.1879 -0.0231 -0.0036
 3866W        W19335   9.149   7.620  15.942  0.1147 -0.2873 -0.1192
 3867W        W19336  13.073   3.348   0.458  0.0042  0.4298 -0.0043
 3868W        W19337   9.585  13.857   5.069  0.1744  0.0693 -0.0581
 3869W        W19338   0.069   1.326   5.757  0.1828  0.2327 -0.0546
 3870W        W19339   6.158   8.417   1.747 -0.0765  0.0369  0.4244
 3871W        W19340   5.679  10.842  12.245  0.0034  0.1463 -0.0353
 3872W        W19341   9.317  14.024   3.227 -0.1419  0.3033 -0.1993
 3873W        W19342  13.407  15.606   6.050 -0.3501  0.1293 -0.0913
 3874W        W19343  15.981  16.454   2.631  0.0999 -0.0014 -0.2518
 3875W        W19344   4.424   2.810   0.249 -0.2497  0.1110 -0.4510
 3876W        W19345   1.649   4.539   5.075  0.2087 -0.1237  0.2042
 3877W        W19346   0.394   2.486   5.131 -0.0251  0.0903  0.1205
 3878W        W19347   7.978   9.065  11.622  0.0705  0.1331 -0.1458
 3879W        W19348  11.052   6.463   5.958 -0.2410  0.3894  0.1898
 3880W        W19349   8.642  10.911  15.209  0.5041 -0.5695 -0.0078
 3881W        W19350  13.648  10.324  13.927  0.0470  0.1278 -0.0152
 3882W        W19351   2.551   3.908  14.563  0.1719 -0.2227  0.0679
 3883W        W19352   9.162  12.710  11.884  0.0401 -0.0786  0.1486
 3884W        W19353   9.855  13.811  13.638 -0.3420  0.2548 -0.1831
 3885W        W19354   0.475   6.494   5.892  0.2186  0.1934 -0.0973
 3886W        W19355   0.864   5.489  16.059  0.0366  0.3204  0.2382
 3887W        W19356  11.189  12.237   0.532 -0.0395 -0.2394 -0.1079
 3888W        W19357  10.577   1.302   2.689 -0.1637  0.1081 -0.1932
 3889W        W19358  11.146   8.728   5.729 -0.1081 -0.0688 -0.2251
 3890W        W19359   0.246  17.356   4.123 -0.1174  0.4447  0.0668
 3891W        W19360   0.037  11.546  12.297  0.2594 -0.0913  0.2009
 3892W        W19361   3.103   9.253  14.127 -0.1140  0.1807 -0.1924
 3893W        W19362  16.446   2.532  15.141  0.2853  0.0562  0.0496
 3894W        W19363   8.602  13.291  15.252 -0.0066  0.1745 -0.0416
 3895W        W19364   9.607   6.787  12.894  0.2030 -0.2530 -0.2232
 3896W        W19365   9.292  10.437   4.032 -0.0126  0.2085 -0.2947
 3897W        W19366  15.540   0.614   2.912 -0.0609 -0.0923  0.2911
 3898W        W19367   5.968  15.188   1.912 -0.1110 -0.0922 -0.1321
 3899W        W19368  16.855  16.820   2.021  0.1510  0.0760 -0.0951
 3900W        W19369   5.346   7.707   1.899  0.2801 -0.1433 -0.0633
 3901W        W19370   1.795  14.172  16.408  0.1772 -0.0779  0.1647
 3902W        W19371   0.343  15.615  10.191  0.0412  0.2516 -0.0619
 3903W        W19372  14.377   6.779   0.389 -0.1430 -0.0581  0.0372
 3904W        W19373  13.334  10.984   2.312  0.0025  0.0579  0.1013
 3905W        W19374  10.418  16.087  16.653 -0.1081 -0.0679  0.1980
 3906W        W19375  15.421  10.824  11.388 -0.3938  0.0684  0.1125
 3907W        W19376   0.051  10.051   4.680 -0.0110  0.1595  0.1748
 3908W        W19377  10.778  12.632   0.834 -0.1257 -0.0234  0.0213
 3909W        W19378  17.019  16.117   1.966  0.2439  0.1011  0.0256
 3910W        W19379   2.678   3.931   2.132 -0.0449 -0.0813 -0.0923
 3911W        W19380   6.300   3.421  12.977 -0.0699  0.2367 -0.0376
 3912W        W19381   5.936  14.291   2.475 -0.0726  0.0044 -0.2491
 3913W        W19382  10.027   3.864   1.325 -0.1580  0.0711  0.2200
 3914W        W19383  12.355   0.155   5.978 -0.1350  0.0866  0.1368
 3915W        W19384  14.825  15.420  15.626 -0.1363  0.2308  0.3243
 3916W        W19385   7.196   0.811   5.591  0.0360  0.1135 -0.4330
 3917W        W19386   4.000   5.504  14.810  0.2785  0.1991 -0.2670
 3918W        W19387  10.494  10.106  12.602 -0.2278  0.0971  0.1403
 3919W        W19388  10.404  16.561  10.852  0.0574  0.3081 -0.0420
 3920W        W19389   2.601  15.843  12.385  0.1260 -0.1719  0.0081
 3921W        W19390   9.368   6.818   3.537 -0.2146  0.1328  0.0037
 3922W        W19391   3.446   3.425   2.005  0.2794  0.1760 -0.1610
 3923W        W19392   8.985   9.888   2.865  0.1524 -0.0200  0.1666
 3924W        W19393  17.195  11.128   4.058  0.0302 -0.0508  0.1723
 3925W        W19394  16.817  13.028  13.571 -0.1169  0.2767  0.1384
 3926W        W19395  14.376  12.225  13.433 -0.2722  0.3235  0.0327
 3927W        W19396   4.960   3.390  11.672  0.0150  0.0257 -0.3539
 3928W        W19397   7.438   6.787  14.466  0.0980 -0.2114  0.0150
 3929W        W19398   6.161   7.440  13.556  0.1745 -0.1107 -0.2718
 3930W        W19399  10.242  17.297   4.982  0.2541 -0.2351 -0.3266
 3931W        W19400  16.027   0.166   1.865 -0.0224 -0.2509 -0.1859
 3932W        W19401   6.217   2.105   3.755  0.3261  0.1215  0.0298
 3933W        W19402   5.697   4.791   4.305 -0.0895 -0.1470 -0.1240
 3934W        W19403   4.604   9.474   2.152 -0.1590  0.0399 -0.1050
 3935W        W19404  14.532   9.723  13.289 -0.0213  0.0087 -0.1996
 3936W        W19405  10.931   7.689  12.069 -0.2794 -0.0430 -0.2143
 3937W        W19406  17.019   6.346  15.026 -0.1062  0.0608  0.0243
 3938W        W19407   5.054   1.711  14.875  0.0781  0.0847  0.0532
 3939W        W19408  16.281  16.783   1.184  0.0401  0.0769  0.1277
 3940W        W19409  12.798  17.711  13.454  0.1080 -0.1137  0.0389
 3941W        W19410   6.910   7.931   3.465 -0.1257  0.1297 -0.0457
 3942W        W19411   8.085  15.791   1.644  0.0800 -0.1335  0.0270
 3943W        W19412   7.470  13.746   4.760 -0.1515  0.0452  0.3781
 3944W        W19413   2.181  15.307  15.736 -0.0696  0.0986  0.1646
 3945W        W19414  11.061  10.670   0.951 -0.0116  0.0670  0.1365
 3946W        W19415   8.905   7.274  12.735  0.0256  0.0978 -0.0193
 3947W        W19416   7.943  11.335   4.940  0.2635 -0.2132 -0.0060
 3948W        W19417   9.379   7.245   5.435  0.2813  0.1186  0.0823
 3949W        W19418   5.268  10.278  13.213 -0.1185  0.0878  0.0721
 3950W        W19419  12.340  10.533   2.380 -0.0292 -0.0256 -0.2112
 3951W        W19420   3.322  11.936   6.154 -0.0242  0.2178  0.2254
 3952W        W19421   3.978  13.223   2.940  0.0802 -0.0893 -0.2087
 3953W        W19422   3.800   5.171  16.584 -0.2154  0.0524 -0.1763
 3954W        W19423   5.019   4.203  13.660  0.0686  0.0347  0.1412
 3955W        W19424   4.751   2.398   1.621  0.0673 -0.0594  0.3283
 3956W        W19425   7.332  13.632   6.301  0.2115 -0.1859 -0.3043
 3957W        W19426   2.030   4.719  12.813  0.1595  0.0751  0.0765
 3958W        W19427  14.106   5.070   4.065  0.2803 -0.1702 -0.3137
 3959W        W19428  17.240   4.200  15.666 -0.0704 -0.0097 -0.0564
 3960W        W19429  12.455  11.447   5.502  0.1628  0.2372  0.2612
 3961W        W19430   5.559  12.915   5.563  0.0698 -0.0247  0.3175
 3962W        W19431   0.003   7.951  12.173 -0.2232 -0.2175 -0.3160
 3963W        W19432   7.164  12.777   3.415  0.1466 -0.2982 -0.0414
 3964W        W19433  10.356  15.824   4.593 -0.0966 -0.1530 -0.1674
 3965W        W19434   1.368   7.551  16.047  0.0401 -0.1402  0.1521
 3966W        W19435   5.672   0.899   0.505 -0.1074  0.1109  0.0272
 3967W        W19436  10.384   2.693  16.650  0.0041 -0.0132  0.1351
 3968W        W19437   9.874   1.922   2.572 -0.2659  0.0737  0.1375
 3969W        W19438   0.566  17.152   0.471 -0.1115  0.1856  0.3016
 3970W        W19439   0.619  13.319   2.809  0.2083 -0.0634  0.1920
 3971W        W19440  15.386   2.627  12.048  0.1321 -0.1204 -0.0942
 3972W        W19441   8.526   5.487   5.892 -0.1747  0.1642 -0.1240
 3973W        W19442   1.591  17.562   4.267  0.0558  0.0657 -0.1933
 3974W        W19443   5.375   0.586   3.104  0.1122 -0.1238  0.0591
 3975W        W19444  13.001  14.922  15.336 -0.1397 -0.2166 -0.0603
 3976W        W19445   8.711   4.677  14.806 -0.2689 -0.1777  0.0229
 3977W        W19446  13.833   5.675   1.701 -0.1568  0.2830  0.1776
 3978W        W19447   1.062  11.102   2.997  0.3670 -0.1861 -0.0941
 3979W        W19448   6.242   4.993  16.696 -0.1899  0.2343  0.3334
 3980W        W19449  13.205  13.252   2.814 -0.0925 -0.0593  0.1428
 3981W        W19450   8.605   1.570   4.048 -0.3221  0.2055  0.2819
 3982W        W19451   1.527  14.482  16.091  0.1616  0.3406 -0.1238
 3983W        W19452   8.735   1.904   0.777  0.1739  0.2601 -0.0318
 3984W        W19453  13.673  16.377  13.028  0.1564  0.0734  0.1110
 3985W        W19454  11.073  11.040  10.909  0.1373  0.0245  0.1567
 3986W        W19455   3.511  15.968  11.962 -0.0699  0.0997  0.1346
 3987W        W19456  11.568   9.848   1.570  0.1934  0.1000  0.0073
 3988W        W19457   4.995  15.335   1.620 -0.0321  0.0178  0.0450
 3989W        W19458   8.609   1.271  15.588 -0.0513 -0.0598 -0.0018
 3990W        W19459  14.232  10.552   3.928  0.1360  0.1743  0.2063
 3991W        W19460   8.868  15.504  13.723  0.0424  0.3562 -0.1867
 3992W        W19461  12.988  10.055  16.454  0.0850  0.0834  0.0101
 3993W        W19462   5.639   8.277  16.710  0.0490 -0.0607  0.3294
 3994W        W19463  14.225   4.626   3.961  0.2555  0.1960  0.1433
 3995W        W19464  13.808   4.963   0.037  0.3151  0.1992 -0.0324
 3996W        W19465   2.940   9.407   0.766 -0.0046 -0.0026  0.0071
 3997W        W19466   4.528   1.533   4.348 -0.0758 -0.0282  0.2242
 3998W        W19467  16.526   0.148  12.288  0.0271  0.2410  0.2700
 3999W        W19468  10.633   1.752  15.638 -0.1960 -0.1281 -0.0884
 4000W        W19469  17.752   8.211  13.746 -0.2106 -0.2201 -0.2992
 4001W        W19470   5.224   1.243   2.908 -0.0759 -0.0573  0.2329
 4002W        W19471   0.702  10.974  16.681  0.1034 -0.1976  0.3671
 4003W        W19472   5.338   2.402   3.922  0.1690 -0.1538  0.2081
 4004W        W19473   1.381  10.780  14.241 -0.1137  0.1771  0.0421
 4005W        W19474   3.182   4.455  16.086 -0.0474 -0.0826  0.1653
 4006W        W19475  17.570  12.248  13.310  0.0057  0.0682 -0.1811
 4007W        W19476  12.937  16.718  11.990 -0.2828 -0.2140 -0.0873
 4008W        W19477  14.410  11.220   1.438 -0.1801  0.0379  0.1773
 4009W        W19478   7.988  11.834   2.926 -0.0773 -0.1612  0.2080
 4010W        W19479   5.312   9.858   5.492  0.0037 -0.1408  0.1991
 4011W        W19480   1.791   3.008  12.119  0.0719  0.0845  0.0846
 4012W        W19481   2.223   4.327   5.106  0.2857  0.2972 -0.2222
 4013W        W19482   7.948  11.302   1.171 -0.3616  0.1116 -0.1404
 4014W        W19483  10.837  13.775   4.652  0.0262  0.0546  0.1537
 4015W        W19484   7.910   3.571  14.146 -0.0239 -0.0370 -0.0584
 4016W        W19485   2.679   2.669  13.110  0.2611  0.1271  0.2391
 4017W        W19486   9.472  11.994   3.616  0.1794  0.1421  0.3677
 4018W        W19487  12.843   2.841   1.292 -0.0018  0.0701 -0.1332
 4019W        W19488  17.377  11.101   2.595 -0.0137 -0.0152  0.3730
 4020W        W19489  16.104   0.226  11.546  0.0044  0.0526 -0.1366
 4021W        W19490   3.136  10.624  12.737  0.3602 -0.0602  0.1598
 4022W        W19491  15.447   0.505   3.870  0.1924  0.1063 -0.1609
 4023W        W19492  17.079   1.976  11.232 -0.1791 -0.1912 -0.4096
 4024W        W19493  16.294  12.631  15.397  0.2233  0.0430  0.0960
 4025W        W19494  16.568  13.939   2.705  0.2437 -0.0069  0.0963
 4026W        W19495  13.066   5.198  15.769 -0.1094 -0.2440  0.3258
 4027W        W19496   6.668  10.506  14.495  0.3028  0.2431 -0.1113
 4028W        W19497   3.981  12.445   3.441 -0.2866 -0.2306  0.5258
 4029W        W19498   2.720  13.321  11.989 -0.1577 -0.0927  0.0158
 4030W        W19499  13.713   3.731  16.337  0.0861  0.1940 -0.3380
 4031W        W19500  13.991   6.384  16.448 -0.1160  0.0597  0.1789
 4032W        W19501  16.488  10.020   0.502  0.0400 -0.1367 -0.0560
 4033W        W19502  15.399  15.055  13.288  0.0258 -0.0559  0.1244
 4034W        W19503   7.382  12.746  16.751  0.1228  0.0381  0.2079
 4035W        W19504  10.718   6.008  11.186  0.0545 -0.0225  0.0864
 4036W        W19505  12.810   2.542  12.648 -0.3729 -0.0205 -0.2072
 4037W        W19506   5.858  10.939  11.433 -0.1029 -0.1917  0.0903
 4038W        W19507   4.960  12.306   0.457 -0.1305  0.0793 -0.0815
 4039W        W19508   8.438  13.028   3.336  0.2275 -0.1204 -0.2755
 4040W        W19509   5.805   6.255  16.754  0.1245 -0.0134 -0.0018
 4041W        W19510   5.261  14.307   4.757 -0.0736 -0.0539 -0.2657
 4042W        W19511   6.842   8.583   1.976  0.2366  0.0345 -0.0722
 4043W        W19512  10.734   4.422   5.006  0.1313  0.1834 -0.2833
 4044W        W19513   6.793   4.225  13.825 -0.2042 -0.0774  0.0884
 4045W        W19514   5.169   2.628   1.855 -0.0037 -0.0364  0.2227
 4046W        W19515  17.349  16.091  13.637  0.2247  0.1411 -0.1293
 4047W        W19516   9.693   3.918   0.758  0.0181 -0.0030  0.1235
 4048W        W19517  14.911   9.456  15.851  0.1251  0.0013  0.0054
 4049W        W19518  16.966  14.944   2.902  0.1799 -0.0572  0.0808
 4050W        W19519  10.987   8.234   0.217 -0.1158 -0.0225  0.1622
 4051W        W19520   6.065  12.251  12.088 -0.1138 -0.3454  0.1341
 4052W        W19521   6.930   9.279  15.167 -0.1986  0.1665 -0.0531
 4053W        W19522   7.017   9.397  15.643 -0.0339 -0.0296 -0.1182
 4054W        W19523   7.019  17.091   2.682 -0.1417  0.1953  0.0743
 4055W        W19524   3.402   4.313   4.805  0.0141 -0.2819  0.0708
 4056W        W19525   1.161   3.518   9.794  0.3551 -0.0209  0.1201
 4057W        W19526   1.304  17.246   0.660 -0.0129 -0.0436  0.0302
 4058W        W19527   8.840   3.503   0.610 -0.1960  0.1634 -0.1814
 4059W        W19528   2.316  11.288  16.499 -0.0678 -0.3996  0.2458
 4060W        W19529   2.394  13.508  15.998  0.0444 -0.1591  0.1202
 4061W        W19530  11.955  17.014  16.202  0.0720 -0.1381 -0.2006
 4062W        W19531  17.373  16.226  12.252  0.0446 -0.1777 -0.0782
 4063W        W19532   9.320   1.327  13.673  0.1781  0.2059  0.0581
 4064W        W19533  12.605  10.854  13.238  0.0081 -0.0428  0.0604
 4065W        W19534   4.775   6.964  15.651 -0.0980 -0.0790 -0.0164
 4066W        W19535   9.210   3.693   2.590  0.0168  0.5490 -0.5846
 4067W        W19536   3.626  10.859  12.451  0.3075  0.2037  0.0053
 4068W        W19537   5.892  16.362  16.548  0.0672 -0.0347  0.3533
 4069W        W19538  11.950   5.518   0.993  0.1885  0.0098 -0.2589
 4070W        W19539   0.645   9.116  12.477  0.1624 -0.1457 -0.1997
 4071W        W19540  13.233   7.510  16.476  0.2271  0.2957 -0.0795
 4072W        W19541   3.128   5.952   4.326 -0.0687  0.1135  0.0878
 4073W        W19542   7.585   6.858  16.358 -0.0477  0.0827  0.0475
 4074W        W19543   4.214  16.098   0.386 -0.2464  0.0238 -0.0685
 4075W        W19544  13.500   4.553   0.019  0.1862 -0.1706 -0.0932
 4076W        W19545  15.189   2.598   4.618  0.1152  0.0401  0.0040
 4077W        W19546  11.256   5.397   1.550  0.1093 -0.1319 -0.2616
 4078W        W19547   3.432   9.285   3.441  0.2788  0.1673  0.2455
 4079W        W19548  13.260  16.288  11.977  0.0518 -0.3778 -0.0055
 4080W        W19549  10.075  14.755   5.329  0.1857  0.2824  0.0220
 4081W        W19550   1.245   6.717  15.393  0.0194 -0.2132  0.0923
 4082W        W19551  12.500  14.785  15.541  0.1283 -0.2925 -0.1578
 4083W        W19552  17.221   9.125  14.764 -0.0058  0.2179 -0.0884
 4084W        W19553   7.952  13.391   2.769 -0.1042 -0.0479  0.1510
 4085W        W19554   6.970  14.407   2.751  0.0936 -0.0737 -0.1253
 4086W        W19555   2.469  17.682   3.257 -0.1724  0.0059 -0.2231
 4087W        W19556  14.748   4.305   1.750 -0.0297  0.0549 -0.0385
 4088W        W19557   6.076   5.556   4.617 -0.0164  0.1664  0.1182
 4089W        W19558  17.178   4.947   1.084  0.3119 -0.1617 -0.0676
 4090W        W19559   1.952   5.543   1.032  0.0832 -0.0490 -0.3838
 4091W        W19560   4.005   9.096  13.497 -0.1398  0.1451 -0.1078
 4092W        W19561   1.510   4.010  14.208  0.0356  0.1115  0.2697
 4093W        W19562   6.803   6.871  16.722  0.0978  0.1696 -0.0550
 4094W        W19563  12.796  12.288  15.779  0.0605  0.3414 -0.0160
 4095W        W19564  12.673  11.729  14.726  0.1549 -0.2932 -0.2005
 4096W        W19565   4.495  16.082  12.927 -0.2500  0.3427  0.2080
 4097W        W19566  14.711   7.097  13.449  0.0376  0.3249 -0.0850
 4098W        W19567   2.788   5.689  12.616 -0.0321 -0.1660  0.2130
 4099W        W19568  11.384  11.357  13.388 -0.0429  0.0262 -0.2397
 4100W        W19569  10.499  15.469   2.188 -0.0618  0.1570 -0.1229
 4101W        W19570  13.250   1.021   1.619 -0.0609  0.0274 -0.0721
 4102W        W19571   5.412  10.472  14.563  0.0371  0.2317 -0.0087
 4103W        W19572   0.545  12.923   1.796 -0.0158  0.0818 -0.1960
 4104W        W19573   1.724   0.802   0.016 -0.0858 -0.2119  0.1056
 4105W        W19574   8.304   0.582   6.119 -0.0177  0.2722 -0.0108
 4106W        W19575   9.306  12.395   0.161  0.0852  0.0089 -0.1183
 4107W        W19576   0.518  10.544  12.427 -0.1990  0.1007  0.2049
 4108W        W19577   2.661  15.342  16.473  0.3516  0.2178 -0.3350
 4109W        W19578   7.483  14.549  16.322 -0.0487  0.2477 -0.0286
 4110W        W19579   9.129   0.742   3.727 -0.1380 -0.1893  0.1232
 4111W        W19580  16.609  12.973  11.890 -0.0973 -0.2250  0.0498
 4112W        W19581   2.515  11.282   5.475 -0.2955  0.1430 -0.0936
 4113W        W19582   6.036   4.624   3.207 -0.1181  0.2331 -0.2254
 4114W        W19583   7.320  15.950  14.172 -0.4211  0.2361  0.0609
 4115W        W19584   6.510   3.486   3.716 -0.1355 -0.1678 -0.0653
 4116W        W19585   6.093   8.827   1.496  0.3143  0.0394  0.1058
 4117W        W19586   4.328   3.192   3.600 -0.0269  0.2697 -0.1690
 4118W        W19587   9.132   3.618   1.565 -0.0367  0.1662 -0.2021
 4119W        W19588  15.734   6.432   3.261 -0.1219  0.0590  0.1632
 4120W        W19589  14.904   1.860   0.382 -0.0733  0.0056 -0.0760
 4121W        W19590   9.686  12.046   4.701 -0.1568  0.0202 -0.1549
 4122W        W19591  11.805   0.476   5.816  0.4470 -0.0228  0.1569
 4123W        W19592   9.484   2.907  15.109 -0.0506  0.1691  0.0126
 4124W        W19593   1.975  12.691  14.865 -0.3125  0.0555 -0.0728
 4125W        W19594   3.526   4.385   0.445 -0.1256  0.1190 -0.1820
 4126W        W19595  10.271   0.662  14.268  0.0410 -0.0703  0.3948
 4127W        W19596   5.948   8.759  15.856  0.2462  0.3066 -0.3207
 4128W        W19597  13.862  16.664   3.136  0.0194  0.2280  0.1201
 4129W        W19598  13.158  17.729   5.404 -0.0462  0.1532  0.0375
 4130W        W19599   7.502   6.730  11.307 -0.0169  0.1157  0.0497
 4131W        W19600   6.660   0.997   2.480 -0.1603 -0.3573 -0.1840
 4132W        W19601  10.507  10.438   3.794  0.2455  0.0979  0.0512
 4133W        W19602   5.370   3.057  14.359 -0.2881  0.0535  0.1849
 4134W        W19603  11.111   5.035   2.930 -0.0561 -0.0109 -0.0944
 4135W        W19604   4.078  12.354  14.864 -0.2269  0.1598  0.0817
 4136W        W19605  10.161   9.780  15.910 -0.0457 -0.0236 -0.0201
 4137W        W19606   6.015  16.205   3.221 -0.0245  0.1266 -0.3751
 4138W        W19607   2.758   4.682   3.794  0.0833 -0.3032 -0.0932
 4139W        W19608   9.422   0.098   2.498  0.0891  0.2076  0.0458
 4140W        W19609   2.006   6.955   4.740 -0.0344 -0.1271  0.0453
 4141W        W19610   3.088  14.502  14.557  0.1962 -0.0457 -0.1226
 4142W        W19611   2.135   4.058  11.183 -0.2240 -0.1765  0.1656
 4143W        W19612  15.937   9.449  14.711  0.0504 -0.2361  0.0655
 4144W        W19613   7.289   5.023   3.685  0.0542 -0.0603 -0.2956
 4145W        W19614  12.328   3.574   5.762 -0.0902 -0.1281 -0.1940
 4146W        W19615  12.694   2.424   1.733 -0.2501 -0.3097 -0.3411
 4147W        W19616  17.116  15.575   4.628  0.0084 -0.1836  0.1126
 4148W        W19617   5.773   9.623  12.674 -0.0941  0.2037  0.2565
 4149W        W19618  15.324   7.947   4.445 -0.0543  0.2304 -0.0193
 4150W        W19619   7.227   9.451   5.183 -0.1098  0.1864 -0.1028
 4151W        W19620  10.594  15.886   1.302 -0.0355 -0.2086  0.1293
 4152W        W19621  11.281  14.229  14.595 -0.0893 -0.2494 -0.1229
 4153W        W19622   2.530  10.203  11.463  0.0000  0.2643  0.0542
 4154W        W19623  13.380  10.628  14.420  0.1103  0.2156 -0.0769
 4155W        W19624  11.544   9.014   2.158  0.0533  0.0256 -0.0071
 4156W        W19625   0.821  15.155  14.543 -0.1239  0.1618 -0.0142
 4157W        W19626  14.627  15.002  15.281  0.2078  0.1081 -0.0815
 4158W        W19627  12.257   6.932  15.499  0.0308 -0.2008  0.2526
 4159W        W19628   1.711   5.950   3.979 -0.2356  0.0992 -0.0021
 4160W        W19629   8.064   7.331   1.187  0.3730  0.1434  0.0051
 4161W        W19630   5.983  10.085   4.064  0.0941  0.1189 -0.0125
 4162W        W19631   9.559  12.882  13.618  0.0737 -0.1166  0.3222
 4163W        W19632  16.411  11.643  11.914 -0.0697 -0.0086 -0.1232
 4164W        W19633  16.411  15.500  14.247  0.0049 -0.1123 -0.0508
 4165W        W19634  15.979  16.669  13.417 -0.1885 -0.1259 -0.0470
 4166W        W19635   2.698  14.808  16.171  0.1164 -0.1995 -0.3283
 4167W        W19636   3.816  17.711  16.486  0.2143 -0.0117 -0.1178
 4168W        W19637   3.439   2.637   0.392  0.1046  0.1216 -0.2423
 4169W        W19638   1.394   6.862   0.333  0.1510  0.2420 -0.0622
 4170W        W19639  17.345   9.372   2.529  0.0070  0.0131 -0.6420
 4171W        W19640  15.281  10.241   0.204  0.1551 -0.1700  0.0189
 4172W        W19641  15.005  10.072  11.105 -0.1111 -0.3059 -0.2389
 4173W        W19642   9.361  11.082  15.527  0.0152  0.0887 -0.0741
 4174W        W19643   0.071  17.163   1.753 -0.2956 -0.0008 -0.0497
 4175W        W19644   8.231  16.965   5.570  0.0991 -0.0413 -0.3493
 4176W        W19645  12.329   0.655   3.068 -0.0240  0.1339  0.3717
 4177W        W19646   5.923  16.288  14.977  0.1051 -0.0871 -0.1351
 4178W        W19647   2.854   1.802   4.657  0.1470 -0.0105 -0.0738
 4179W        W19648   0.780  11.784  13.270 -0.3121  0.1169  0.0331
 4180W        W19649   8.060  16.169  16.664 -0.1362 -0.0861  0.3622
 4181W        W19650   5.350  11.543  14.743 -0.1233 -0.1500 -0.0076
 4182W        W19651   5.136   2.342  11.551 -0.2167 -0.2086 -0.0903
 4183W        W19652   9.711   1.931  15.495  0.1041  0.0493 -0.2340
 4184W        W19653  10.294   6.012  13.104  0.0039  0.0060 -0.0126
 4185W        W19654   8.618   4.307   4.218  0.0816 -0.1681  0.0958
 4186W        W19655  12.352  14.156   4.072  0.0374  0.3206 -0.0871
 4187W        W19656  13.736   2.075  15.738  0.2278 -0.0242 -0.3765
 4188W        W19657  11.437   2.618   5.929 -0.3479  0.0183  0.0968
 4189W        W19658   7.712  14.391   2.723 -0.1593 -0.1387  0.0713
 4190W        W19659   8.248  11.761  12.763 -0.1769  0.1495 -0.3492
 4191W        W19660  12.783   8.883   2.750 -0.0403  0.2414  0.1373
 4192W        W19661   2.547   3.056  12.695 -0.1311  0.0836  0.0760
 4193W        W19662   8.178   8.538  13.340  0.2796 -0.3244 -0.1613
 4194W        W19663  11.549  15.925   1.457 -0.1893  0.0971 -0.0827
 4195W        W19664   8.516  14.746   2.704 -0.0922  0.0516  0.0524
 4196W        W19665   8.079  10.226  15.524  0.2244  0.1860 -0.1032
 4197W        W19666   2.388  16.943  12.680 -0.0717  0.0470  0.2152
 4198W        W19667   5.296   4.569   2.721 -0.0265 -0.0096  0.3776
 4199W        W19668   1.948   6.752  14.854  0.0602  0.1252 -0.0314
 4200W        W19669   2.856  11.610  11.051  0.1146  0.1576  0.0513
 4201W        W19670  15.961   4.256  15.150  0.0167  0.0098  0.0462
 4202W        W19671   7.900   1.691  13.665 -0.0411  0.0027 -0.0030
 4203W        W19672   9.125   0.036   4.235 -0.2568  0.2876 -0.0152
 4204W        W19673   4.136  13.714  13.387  0.2360  0.1294 -0.0542
 4205W        W19674  14.277   1.741   3.726  0.2190 -0.1722 -0.1218
 4206W        W19675  10.248   6.084  12.599  0.0856  0.3418 -0.1041
 4207W        W19676  11.478   1.634   2.133 -0.2946 -0.1030 -0.0898
 4208W        W19677  11.717  16.308  14.734  0.1188  0.2273  0.0980
 4209W        W19678  10.523  14.482   3.871 -0.1346  0.0943 -0.1756
 4210W        W19679   5.890   3.611  13.934  0.1258 -0.2929 -0.1625
 4211W        W19680   7.283   5.827  13.166 -0.0548 -0.0888  0.0569
 4212W        W19681   7.029   4.692   1.366  0.1256  0.1245 -0.0743
 4213W        W19682  16.410   6.413  14.911  0.1477 -0.3850  0.1573
 4214W        W19683  11.627   9.874  16.465 -0.2055 -0.1711  0.0204
 4215W        W19684   5.963  10.158  12.753 -0.1958  0.0601 -0.1038
 4216W        W19685   0.547  13.559  16.166  0.2607  0.1351 -0.2580
 4217W        W19686  16.293  11.376  15.461  0.1750  0.0638  0.1026
 4218W        W19687   6.789  16.786   3.070 -0.3176  0.0454 -0.0412
 4219W        W19688   6.096   9.306   1.456 -0.2343 -0.1091 -0.0320
 4220W        W19689   2.835   0.481  12.609 -0.0049 -0.0075  0.0508
 4221W        W19690  16.076  14.606   1.827 -0.0711  0.1904 -0.1782
 4222W        W19691  14.570  13.828  14.190  0.1260  0.1176  0.0057
 4223W        W19692   2.688  11.687  13.286 -0.1356 -0.1246  0.0347
 4224W        W19693   4.505   2.748   3.510 -0.0907 -0.2794  0.1156
 4225W        W19694  15.709   7.453   0.871  0.1724 -0.1382 -0.2752
 4226W        W19695   4.693  12.705   2.474  0.1757  0.0433 -0.0414
 4227W        W19696   1.976  16.018   1.407 -0.0820  0.1316 -0.1016
 4228W        W19697  12.688   2.336  15.263  0.0508  0.1073  0.4096
 4229W        W19698  16.896  11.669  11.166 -0.3394 -0.0810  0.5147
 4230W        W19699   2.586  16.629   2.068  0.0747  0.0673  0.2168
 4231W        W19700   5.409   0.242   3.483 -0.0586 -0.0401  0.2631
 4232W        W19701  16.367   8.577  14.865 -0.0429  0.0559  0.1580
 4233W        W19702  16.181   5.031   2.111  0.2316 -0.2167  0.1601
 4234W        W19703  13.591   6.917  11.429 -0.0019  0.3335 -0.1966
 4235W        W19704   0.731   1.808  11.068  0.1165 -0.0017 -0.1017
 4236W        W19705   6.846  14.827   4.998 -0.1687  0.0640 -0.4162
 4237W        W19706   8.195  14.290   6.103 -0.1109 -0.1981  0.0615
 4238W        W19707  14.861   1.095   3.888 -0.1801  0.0695  0.2154
 4239W        W19708   9.140  16.459   3.105 -0.0831 -0.2064 -0.0627
 4240W        W19709  15.378   1.561   3.773  0.0345 -0.2003  0.0851
 4241W        W19710   5.686   0.371   5.119  0.2088 -0.3194  0.1123
 4242W        W19711   7.370   6.493   0.989 -0.0242  0.2479 -0.5609
 4243W        W19712   6.152   4.052   5.436 -0.2476 -0.1442  0.0781
 4244W        W19713  13.930   8.277   2.611 -0.2463  0.4639 -0.0860
 4245W        W19714  15.865   7.841  14.729  0.4804 -0.0156  0.0463
 4246W        W19715   1.268  16.570  13.967 -0.0888  0.2110 -0.0155
 4247W        W19716  11.433   4.398   4.860 -0.1273  0.4385  0.0134
 4248W        W19717   9.506  13.717  13.271  0.1513  0.0221  0.1181
 4249W        W19718  10.888  11.494  15.686 -0.1158  0.0002 -0.0117
 4250W        W19719   0.220   1.645  13.633 -0.1125  0.0123  0.1114
 4251W        W19720   2.728   1.274   4.617 -0.0323 -0.1339 -0.0347
 4252W        W19721   4.866  15.037   3.497 -0.0546 -0.0450 -0.1393
 4253W        W19722  14.397  12.580   4.124  0.0334  0.1577  0.1096
 4254W        W19723  10.043  13.540  13.274  0.1870  0.2038  0.1431
 4255W        W19724  14.445  10.461   4.808  0.0543  0.1143 -0.0875
 4256W        W19725   2.623   4.913  15.749 -0.0425 -0.0617 -0.2792
 4257W        W19726   4.537  16.712   1.715  0.1101 -0.1444  0.1639
 4258W        W19727  11.080  16.392   0.242 -0.1650  0.1709  0.1246
 4259W        W19728   1.211  14.370  14.341  0.2011 -0.1981  0.0421
 4260W        W19729   1.735  13.368  14.304  0.0772 -0.0966  0.0334
 4261W        W19730  14.668   2.537   6.299 -0.3039 -0.1329  0.1666
 4262W        W19731   7.907  13.088   0.386 -0.0184 -0.0222  0.2549
 4263W        W19732   6.182  16.964  11.804 -0.3260 -0.1855  0.0061
 4264W        W19733   3.681   6.083   5.060 -0.0697 -0.0103 -0.2352
 4265W        W19734   6.244  10.068   5.004 -0.0079 -0.1449 -0.2374
 4266W        W19735  11.800   9.016   2.578  0.1136  0.3436  0.0588
 4267W        W19736   9.332  10.740  11.834 -0.1523 -0.1206  0.0800
 4268W        W19737   8.600   5.207   0.543  0.2008 -0.1951 -0.0622
 4269W        W19738  16.740  11.054  11.025  0.2477 -0.4939 -0.1560
 4270W        W19739   6.290  13.959   4.836  0.0667 -0.0116 -0.0399
 4271W        W19740  15.970  10.413   0.916 -0.1054 -0.0136  0.1236
 4272W        W19741   2.068   5.978   2.239 -0.1579 -0.0167  0.1416
 4273W        W19742  11.665   9.505  11.216  0.2639 -0.0980 -0.0645
 4274W        W19743   4.827   2.669   0.538 -0.1310  0.3292 -0.3885
 4275W        W19744  16.515  12.553  14.962  0.1194  0.2465 -0.0209
 4276W        W19745   2.404   9.921  14.463 -0.1226 -0.0354 -0.2641
 4277W        W19746   6.974   5.981   4.761 -0.2427  0.2796  0.0161
 4278W        W19747  14.773  17.292   1.109  0.1135  0.1968  0.0386
 4279W        W19748  10.199  15.279   3.729 -0.0014 -0.2929 -0.0888
 4280W        W19749  17.142   3.689   5.666 -0.0586  0.0172  0.2735
 4281W        W19750   6.575   9.923  15.796  0.1871 -0.0066 -0.1442
 4282W        W19751  16.545  14.938   4.273  0.0054 -0.0513 -0.1389
 4283W        W19752   4.375  16.498   3.994  0.1867  0.1505  0.0895
 4284W        W19753   2.763   2.628   1.998  0.0882 -0.2284 -0.0209
 4285W        W19754  15.815   7.700  13.107 -0.0716 -0.1470  0.3038
 4286W        W19755  10.406   0.744   5.984 -0.0250  0.0686  0.0465
 4287W        W19756   1.353  10.381   4.899  0.0216 -0.0765  0.2992
 4288W        W19757   6.682  16.045  15.285  0.0145  0.0991  0.2740
 4289W        W19758   8.762   9.186  13.432 -0.0227 -0.0520  0.2213
 4290W        W19759  10.929   1.887   1.046  0.2045  0.2397  0.1755
 4291W        W19760  10.169  16.236   1.659  0.0741  0.0932 -0.1154
 4292W        W19761   3.064   0.550  15.730 -0.0471 -0.1382 -0.0572
 4293W        W19762  14.326   9.974  14.692  0.0739 -0.1645  0.0959
 4294W        W19763   0.676   1.725   3.092  0.0713 -0.0885 -0.0420
 4295W        W19764  12.170  11.490   0.409 -0.1768  0.0713  0.0715
 4296W        W19765  14.195  15.123   4.936 -0.0805 -0.1707  0.0201
 4297W        W19766   0.307   6.240  12.593 -0.1575  0.2508 -0.1226
 4298W        W19767   4.375  10.307   4.715  0.0592 -0.0177  0.1977
 4299W        W19768   5.979   8.054   4.471  0.0138 -0.0722  0.3281
 4300W        W19769   2.682   7.656  12.436 -0.0408  0.1653 -0.2796
 4301W        W19770   5.545  14.703   4.745  0.2655  0.0605 -0.0868
 4302W        W19771  17.319  14.565  11.056 -0.1346  0.2923 -0.1097
 4303W        W19772   7.928   3.995   4.763  0.0666  0.2917  0.0734
 4304W        W19773  17.546  13.911  10.802 -0.1888  0.0368 -0.2068
 4305W        W19774  13.565  11.458   2.190 -0.0040  0.1247  0.0795
 4306W        W19775   6.105  11.372   2.979  0.0822  0.1093 -0.0680
 4307W        W19776   5.862  12.011   2.347 -0.0308 -0.1243 -0.4189
 4308W        W19777  14.889  15.817   5.604  0.1278  0.0302  0.1199
 4309W        W19778   0.749  13.729  15.364  0.2647  0.0174 -0.0635
 4310W        W19779   1.436   0.759  14.644  0.2034  0.1583  0.0564
 4311W        W19780   5.303  12.492   6.235 -0.1156  0.0995 -0.0307
 4312W        W19781   5.179   9.207   3.132 -0.3693 -0.1166  0.1391
 4313W        W19782  12.962  10.211   5.040 -0.0149  0.1889 -0.2796
 4314W        W19783  15.898   8.433   2.972  0.0812  0.0618 -0.1633
 4315W        W19784   5.934  11.166  14.654  0.1312 -0.0169  0.0381
 4316W        W19785  13.715   4.175   0.251 -0.4846  0.0193  0.0624
 4317W        W19786  10.948  14.336   2.115  0.0353 -0.2892  0.1072
 4318W        W19787   7.658  11.873   0.763  0.0791 -0.3296 -0.1655
 4319W        W19788   8.210  16.902  13.326  0.1240  0.2285  0.0936
 4320W        W19789  14.003  13.261   1.668 -0.0788 -0.0909 -0.0535
 4321W        W19790   1.555   4.670  15.767 -0.0671  0.0201 -0.1231
 4322W        W19791  17.712  13.808   0.010 -0.0680  0.1464 -0.0849
 4323W        W19792   0.590   5.746  13.243  0.1526 -0.2508 -0.3127
 4324W        W19793  15.064   8.127   5.621 -0.1578 -0.1129  0.1010
 4325W        W19794  14.959   3.447   0.140  0.0762 -0.2711 -0.2269
 4326W        W19795  11.201   0.463  11.904 -0.0450 -0.1206 -0.0238
 4327W        W19796  12.709   6.874   1.127  0.2237  0.1759  0.1789
 4328W        W19797   3.629   0.825  12.335 -0.1409  0.1021 -0.0289
 4329W        W19798  13.985   8.071  14.873  0.2064  0.0986 -0.0179
 4330W        W19799   9.923   6.960  12.475  0.1112  0.1391  0.0727
 4331W        W19800   3.072  15.246   3.311 -0.1496 -0.2736 -0.1669
 4332W        W19801  13.656   1.255  11.499 -0.3278 -0.2246 -0.0518
 4333W        W19802   6.661   6.288   3.531  0.2343 -0.0661 -0.2357
 4334W        W19803  12.620   0.419   3.607 -0.1554  0.3402  0.1943
 4335W        W19804  17.569  11.242   0.456 -0.3090  0.1367 -0.0017
 4336W        W19805  11.541   0.027   5.902 -0.0138 -0.0013 -0.3945
 4337W        W19806   3.611   2.355   1.695  0.0262  0.2019  0.3733
 4338W        W19807  14.440  11.339   5.615  0.0084 -0.0141  0.0626
 4339W        W19808   4.768  10.620  11.654 -0.0072  0.0153 -0.0257
 4340W        W19809  14.030   8.284  13.979  0.3333 -0.0240  0.1920
 4341W        W19810  11.033   1.584  12.864 -0.2247 -0.2118 -0.2827
 4342W        W19811   1.977   1.858   4.929  0.1359 -0.0750 -0.2208
 4343W        W19812   8.028   3.468  12.162 -0.1266 -0.0931 -0.1341
 4344W        W19813   9.159   3.827  13.710 -0.1990 -0.1295 -0.1146
 4345W        W19814   1.577  15.378  12.941 -0.0803  0.1497  0.1305
 4346W        W19815   5.369   8.458   5.480  0.2887  0.2267  0.1938
 4347W        W19816   2.580   4.958   1.399  0.0420 -0.1344 -0.2916
 4348W        W19817  15.171   0.360   0.788  0.2660 -0.0657 -0.0876
 4349W        W19818   1.603   9.935  15.612 -0.0613 -0.0059  0.1427
 4350W        W19819   9.043   6.370  16.297 -0.0759 -0.2599 -0.2270
 4351W        W19820  10.587   5.312  15.289 -0.1032  0.3259  0.0116
 4352W        W19821   0.747   8.502   0.446  0.3641  0.3324  0.1256
 4353W        W19822   9.828   6.740   2.181 -0.0303  0.1620  0.1115
 4354W        W19823   5.525   1.720   2.684  0.0103 -0.0218  0.2315
 4355W        W19824   5.566   6.213   5.841  0.3706  0.1506  0.1293
 4356W        W19825   8.969   3.614   0.101  0.0851  0.0467  0.3025
 4357W        W19826   9.468  17.483   3.770  0.0185 -0.0631  0.1238
 4358W        W19827   1.577  16.520  11.896  0.0147  0.0500  0.3276
 4359W        W19828   2.033   0.070  13.490  0.1414 -0.2487 -0.1464
 4360W        W19829   2.511   6.017  15.129 -0.0470  0.1211 -0.2043
 4361W        W19830  15.591   9.712   5.289 -0.0335 -0.0663  0.0393
 4362W        W19831   8.901   7.034   1.064  0.1103  0.0372 -0.0737
 4363W        W19832  12.244   3.480  11.288 -0.0509 -0.1676  0.1119
 4364W        W19833   6.783  12.309  13.839  0.0593  0.0766  0.3528
 4365W        W19834   5.523   6.545   0.222  0.0989 -0.0064 -0.0434
 4366W        W19835  11.302   4.222  15.503 -0.0645  0.5468 -0.2314
 4367W        W19836   4.223   9.933  11.520  0.1932 -0.4665 -0.2504
 4368W        W19837   4.161   3.249   0.375  0.2916 -0.0175  0.0534
 4369W        W19838  10.185  10.595   0.276  0.0807  0.2329 -0.2386
 4370W        W19839   7.643   8.224   1.720 -0.2458  0.2093 -0.1596
 4371W        W19840   8.980   2.828   2.856 -0.3783 -0.2070 -0.0463
 4372W        W19841  14.690   1.613  11.788  0.0710  0.2136 -0.0965
 4373W        W19842   1.626   9.871  14.419 -0.1115 -0.1741 -0.1464
 4374W        W19843  14.567  11.993   2.014  0.0884 -0.1091  0.2481
 4375W        W19844   3.942  11.631  14.221  0.1848 -0.1431  0.3720
 4376W        W19845   5.201  14.375   3.039  0.0697 -0.1627  0.2275
 4377W        W19846  12.082   7.558  15.222 -0.0722  0.1978 -0.0628
 4378W        W19847   2.517   4.739   5.050  0.0766  0.2259 -0.1428
 4379W        W19848   3.185   6.200  14.053  0.3242 -0.0684 -0.0227
 4380W        W19849  13.277  16.963   4.849  0.2766 -0.2285 -0.0134
 4381W        W19850  14.926  13.110  14.548 -0.3825  0.2018 -0.1863
 4382W        W19851   1.997  17.121   5.154  0.1939 -0.0095 -0.3600
 4383W        W19852   3.376  15.123  12.920  0.1362 -0.0625 -0.1621
 4384W        W19853  12.662   9.030  14.819 -0.0985 -0.0137 -0.4043
 4385W        W19854   1.599   3.759  15.137  0.1621  0.2163 -0.0548
 4386W        W19855  15.118   0.233   3.457 -0.1298 -0.1251  0.1994
 4387W        W19856   7.738  16.531  12.542  0.1791 -0.0816  0.0633
 4388W        W19857  14.543   5.422  15.405 -0.2076 -0.0145  0.0490
 4389W        W19858   7.162  17.601  15.765  0.0783 -0.0898  0.2574
 4390W        W19859   3.122  15.937   4.107 -0.0444 -0.0047  0.0279
 4391W        W19860  12.774   0.236   3.126 -0.0400  0.3468 -0.0669
 4392W        W19861   5.116   3.985  14.530  0.0369  0.1762  0.2092
 4393W        W19862   1.788  10.886  11.482  0.1129  0.1001  0.2061
 4394W        W19863   0.678   1.695   4.896  0.1361 -0.0236 -0.0177
 4395W        W19864  15.630   8.477  13.727 -0.3535 -0.0121  0.0349
 4396W        W19865   7.667   5.392   3.263  0.0671  0.1452 -0.3454
 4397W        W19866   5.622  13.180   2.665 -0.1011  0.0062  0.4345
 4398W        W19867  12.314   3.897   0.373  0.0485 -0.0087 -0.0619
 4399W        W19868  16.291  13.897  15.738  0.0596  0.3536  0.2594
 4400W        W19869   7.282   1.361   3.197  0.2446  0.2197 -0.1035
 4401W        W19870   6.885   0.267   6.496 -0.3309 -0.0032 -0.3979
 4402W        W19871   8.302   5.428  14.674 -0.0796 -0.0764 -0.1770
 4403W        W19872   7.865  17.468   3.037  0.1173  0.1295 -0.2064
 4404W        W19873  12.005   3.535   2.073 -0.0975  0.2690  0.3348
 4405W        W19874   3.731  15.071   1.878  0.0361  0.1045  0.1807
 4406W        W19875  13.562   7.562  13.904  0.1033 -0.0866 -0.3183
 4407W        W19876   7.117   5.547   1.478 -0.1946  0.2888  0.0435
 4408W        W19877  15.787   5.849  15.158 -0.0739 -0.1187 -0.1860
 4409W        W19878   4.894   5.662   3.276 -0.0557  0.0129  0.2154
 4410W        W19879   6.842   5.125   1.465 -0.1028 -0.1278  0.0506
 4411W        W19880   7.813  14.841   3.862 -0.0457 -0.0462 -0.0801
 4412W        W19881   9.434   9.469   4.460 -0.1707  0.1815  0.0931
 4413W        W19882  10.974  11.855   5.065 -0.2866 -0.0385 -0.0021
 4414W        W19883   5.252   6.537   2.937 -0.0237  0.1228 -0.2585
 4415W        W19884  16.585  12.190  10.746  0.0566 -0.0002  0.1312
 4416W        W19885  16.149  16.355   2.202 -0.0436 -0.2400 -0.0072
 4417W        W19886   7.289   1.869   0.354 -0.0373 -0.1721  0.1742
 4418W        W19887  16.814   9.052  11.689  0.0598 -0.0854  0.3389
 4419W        W19888   4.895  14.650   2.487 -0.0761  0.1184 -0.1187
 4420W        W19889   3.843   8.701  16.136  0.1786 -0.0731 -0.0349
 4421W        W19890  10.380  10.736   5.693 -0.1958  0.2031  0.0552
 4422W        W19891  10.843  12.836  13.345 -0.1712 -0.2116  0.1014
 4423W        W19892   6.184  16.118  15.357 -0.0815 -0.2850  0.0280
 4424W        W19893  15.768  17.082  13.689 -0.1808 -0.0632  0.0031
 4425W        W19894  12.655  16.403   2.397  0.0296 -0.1285 -0.1912
 4426W        W19895   9.294   1.589  15.391  0.1263  0.2023  0.1429
 4427W        W19896   0.669  15.819  12.688  0.1093 -0.1293 -0.4038
 4428W        W19897  10.189  12.464  16.532  0.1924 -0.1385  0.0896
 4429W        W19898   9.799  12.968   1.477  0.1089 -0.0583  0.1257
 4430W        W19899   3.368   2.196  15.630  0.0904 -0.1895 -0.0406
 4431W        W19900   2.477  12.113   5.105  0.0567 -0.2464 -0.0920
 4432W        W19901  14.273  14.433  15.084  0.1110  0.0483 -0.0881
 4433W        W19902  17.326  11.202   5.680 -0.1226  0.0440  0.1431
 4434W        W19903   8.652  14.327  10.764 -0.0464  0.2477  0.0214
 4435W        W19904  16.539  16.319   5.730 -0.0959 -0.1038 -0.2222
 4436W        W19905   9.807  13.218   4.125 -0.3424  0.1784 -0.4214
 4437W        W19906  16.945   8.593   2.296  0.1840  0.1327  0.2419
 4438W        W19907   6.881  13.881   2.677 -0.2645 -0.1856  0.0806
 4439W        W19908  11.092   7.493   4.391  0.3078  0.2315  0.1145
 4440W        W19909  10.972  16.219  15.932 -0.1447 -0.1391 -0.3968
 4441W        W19910  11.135   4.346  14.448 -0.0624 -0.0736 -0.1560
 4442W        W19911   1.288  11.608  14.159 -0.3238  0.0323 -0.2562
 4443W        W19912  15.829  17.253  12.239  0.0394 -0.0580 -0.1035
 4444W        W19913  14.609   4.295  13.620  0.0383  0.0727 -0.2083
 4445W        W19914  13.573   5.047  15.660  0.1625  0.0766  0.2095
 4446W        W19915  11.337   5.332  13.684  0.1524 -0.1866 -0.1287
 4447W        W19916  13.374  10.391  15.655 -0.3256 -0.1353  0.2106
 4448W        W19917   8.292  16.597   5.941 -0.1516  0.0337  0.1891
 4449W        W19918   5.204  15.471   5.108  0.1464 -0.0987 -0.1275
 4450W        W19919  12.177   6.380   1.759  0.3209  0.1106  0.2070
 4451W        W19920  11.880   3.439   4.577 -0.1981  0.1785 -0.0235
 4452W        W19921   3.029   4.620  15.603 -0.2657 -0.1056  0.0043
 4453W        W19922   6.823  16.257   2.047 -0.0157  0.0575  0.0598
 4454W        W19923   0.846   1.333  11.114  0.1904  0.1495 -0.0218
 4455W        W19924   2.561   1.281   3.641  0.0573 -0.1064  0.0160
 4456W        W19925   3.433   2.918  16.677  0.0183 -0.1233 -0.0209
 4457W        W19926   1.655  17.106  16.022  0.2724  0.1684 -0.1441
 4458W        W19927  17.033   3.246   3.734 -0.0574 -0.0116 -0.1041
 4459W        W19928   7.179   3.914   4.335  0.1794 -0.2233  0.3921
 4460W        W19929  11.316  11.949   3.532 -0.1276 -0.0203 -0.3369
 4461W        W19930   6.575  13.646   5.569  0.0187 -0.1135  0.0343
 4462W        W19931   6.911  10.254  15.949  0.3527 -0.0058  0.4011
 4463W        W19932   9.088  11.258  13.946  0.1218 -0.1608  0.0237
 4464W        W19933  14.027  15.841  15.584  0.0114 -0.4194 -0.1283
 4465W        W19934  12.610   0.208  13.086 -0.0943 -0.1792  0.1730
 4466W        W19935   7.391   8.885   3.589  0.0767  0.0383 -0.0896
 4467W        W19936  11.268   4.211   4.330 -0.3792  0.0814  0.1743
 4468W        W19937  14.604  11.802  13.346 -0.0104  0.0340  0.4243
 4469W        W19938  15.901   7.962   5.808 -0.1094 -0.2453 -0.0008
 4470W        W19939  15.413  16.197  15.333 -0.1896  0.0626 -0.1494
 4471W        W19940   4.135   1.578  14.068  0.1108  0.0252 -0.0310
 4472W        W19941   0.001   4.930  12.897 -0.0204 -0.0364 -0.1347
 4473W        W19942   8.398  14.948  16.607 -0.1115 -0.1387 -0.1424
 4474W        W19943   5.541  16.426   2.017 -0.1727 -0.0394 -0.0152
 4475W        W19944   8.130  14.491   0.877  0.1255 -0.1010 -0.0077
 4476W        W19945  13.166   2.228  13.900  0.1017 -0.2876  0.0324
 4477W        W19946   5.388   4.061   3.710  0.2454 -0.0121  0.0374
 4478W        W19947   9.827   2.139   0.890 -0.1315 -0.0227  0.0927
 4479W        W19948   2.775   3.059  11.269  0.0010 -0.1095  0.0090
 4480W        W19949   4.427  13.512   2.053  0.0806  0.0049 -0.0053
 4481W        W19950   6.221   9.037   5.691 -0.0782  0.0199 -0.0965
 4482W        W19951  10.766   0.638  12.649 -0.1513 -0.0486 -0.0357
 4483W        W19952   8.266   6.499   0.423 -0.0305  0.2733 -0.1754
 4484W        W19953   6.000   6.708   4.213  0.0316  0.0863 -0.3617
 4485W        W19954   1.687  16.386   1.561  0.0478 -0.0628  0.0075
 4486W        W19955   0.709   4.002  10.988  0.0570 -0.0814 -0.1770
 4487W        W19956   8.267   9.952   5.754  0.0364  0.0373  0.2092
 4488W        W19957  14.129   6.962  12.108  0.0608 -0.2290  0.1266
 4489W        W19958   9.292   7.933   0.361  0.1733  0.3273 -0.0249
 4490W        W19959  16.992   9.955   4.118  0.1809  0.0418  0.0590
 4491W        W19960   0.759  11.381  14.790  0.1542  0.1110 -0.3161
 4492W        W19961   3.165   5.932  13.567  0.0336 -0.0169  0.0495
 4493W        W19962  17.709  15.437  12.602 -0.2563 -0.2320 -0.0815
 4494W        W19963  15.504   3.726   2.776 -0.3696 -0.1693  0.3021
 4495W        W19964   4.967   5.163   5.971 -0.0416 -0.3569  0.0253
 4496W        W19965   9.138   5.554  13.550  0.0324  0.1569 -0.1926
 4497W        W19966   2.784  13.462   4.687 -0.0996 -0.0789 -0.2921
 4498W        W19967   0.808  16.236   2.404 -0.4832  0.0472  0.1427
 4499W        W19968  11.608   5.837   6.393  0.0534 -0.0994 -0.1619
 4500W        W19969  16.849  10.427  15.053 -0.0397 -0.1878 -0.1024
 4501W        W19970  17.406  14.474   2.964 -0.4178  0.3430  0.0710
 4502W        W19971   5.982   0.887   3.969 -0.0123 -0.1730  0.0563
 4503W        W19972   7.473   8.794   2.371 -0.2715  0.0551  0.2268
 4504W        W19973   1.435   8.036  13.563 -0.3285 -0.3601  0.1367
 4505W        W19974   4.026  13.420   4.539  0.2869  0.0981  0.2092
 4506W        W19975  11.676  17.738   5.118 -0.1946 -0.0317 -0.2009
 4507W        W19976   5.235   9.076   0.145  0.0091  0.2507  0.3485
 4508W        W19977  12.852   7.929   5.004  0.0695  0.2214 -0.3851
 4509W        W19978  10.200   2.264  12.395 -0.3393  0.1074  0.0339
 4510W        W19979   2.833   0.491   0.131 -0.0043  0.1688  0.1267
 4511W        W19980   5.686  10.465   3.258 -0.0479 -0.0424 -0.0370
 4512W        W19981   0.688  11.712  15.660  0.0056 -0.1257  0.0166
 4513W        W19982   0.978   8.309  12.027  0.0029 -0.1064  0.0884
 4514W        W19983   5.285   8.705   3.051  0.1303 -0.1928  0.0922
 4515W        W19984   1.101   8.884  13.338 -0.0688  0.0629 -0.0806
 4516W        W19985   7.607   0.149   4.699  0.0803  0.0270 -0.0584
 4517W        W19986   9.186   3.103  14.536  0.1579 -0.0313 -0.1153
 4518W        W19987  13.621  11.200  15.603 -0.2932  0.0614 -0.0258
 4519W        W19988  16.842   2.710   5.534 -0.2452  0.1541 -0.2045
 4520W        W19989   6.632   0.645  14.482 -0.1197 -0.2776 -0.0507
 4521W        W19990   7.443  16.833   0.671  0.0837  0.0004 -0.0966
 4522W        W19991   8.385   2.142  11.976  0.2609  0.0535 -0.1615
 4523W        W19992  15.022   9.700   1.633  0.1607 -0.1263 -0.1018
 4524W        W19993   3.615   3.790   0.304  0.1099  0.1730 -0.1396
 4525W        W19994  16.858  13.644  13.178 -0.0853 -0.0608  0.0343
 4526W        W19995   8.824  15.926   2.243  0.0843  0.0548 -0.1913
 4527W        W19996   8.795   8.825  15.409 -0.2023 -0.0894  0.0343
 4528W        W19997   9.649   3.256   4.990  0.1380 -0.0087 -0.0102
 4529W        W19998  13.482   2.997   4.620 -0.2024 -0.1718 -0.3221
 4530W        W19999   5.313  17.640   4.263  0.3356 -0.1361  0.3308
 4531W        W20000  12.743  11.138   1.048  0.0759 -0.0442 -0.0027
 4532W        W20001  10.743   1.645  11.365  0.0259 -0.0676  0.1460
 4533W        W20002   5.558  12.306   4.334 -0.2794 -0.2845  0.4374
 4534W        W20003   9.492   4.383  12.818  0.2319 -0.0653 -0.0529
 4535W        W20004   7.095  13.707  16.438 -0.0938 -0.2647 -0.1947
 4536W        W20005  13.410   6.586   2.693 -0.0781  0.0335  0.0923
 4537W        W20006   3.741  10.051   3.081 -0.3258  0.0305  0.2004
 4538W        W20007  17.646  10.179  15.480 -0.1745 -0.2762 -0.1613
 4539W        W20008   2.242   4.827   2.537  0.1946  0.0110 -0.2225
 4540W        W20009   7.924   3.574   1.728  0.2764 -0.0623 -0.3348
 4541W        W20010  14.893  15.697   5.144 -0.4528  0.3099  0.2047
 4542W        W20011   0.353  14.128   3.815  0.0997  0.0649 -0.0327
 4543W        W20012  10.369   9.832   2.398  0.1519  0.0659 -0.0682
 4544W        W20013  13.249   9.104  11.846  0.0552  0.0047 -0.1926
 4545W        W20014  16.100   5.902  12.961 -0.2342  0.2103  0.1007
 4546W        W20015   5.893   4.604  13.957  0.1979 -0.0831  0.0171
 4547W        W20016  17.694   0.481  11.288 -0.0231  0.0019 -0.1367
 4548W        W20017   6.060   2.803   2.312 -0.0844  0.2569 -0.1169
 4549W        W20018  12.032  17.474  12.082 -0.0329  0.1116  0.0016
 4550W        W20019   8.928  11.902  14.030 -0.2763 -0.1132 -0.0603
 4551W        W20020   4.127  11.782  12.416 -0.0351 -0.2143 -0.1074
 4552W        W20021  14.635   7.621   2.840  0.0586 -0.2820 -0.1888
 4553W        W20022  15.439   5.059   4.515 -0.0348  0.2075  0.1460
 4554W        W20023   8.238   7.754  11.430 -0.0261  0.0849 -0.0073
 4555W        W20024  16.961   3.861  15.350 -0.0652 -0.3088  0.1675
 4556W        W20025  16.959   9.360   2.897  0.0262  0.3034  0.1225
 4557W        W20026  10.517   7.519   2.322  0.2282  0.0005 -0.0243
 4558W        W20027  16.257   8.880  16.652  0.0054 -0.0246  0.0964
 4559W        W20028  15.228   4.122  14.259 -0.0886  0.1033 -0.1211
 4560W        W20029   3.806  11.319   1.030  0.2051 -0.0545  0.0186
 4561W        W20030   8.424   3.337  12.467 -0.2200  0.1186 -0.1655
 4562W        W20031   1.328  12.982   2.405  0.2732  0.1678  0.2469
 4563W        W20032   2.982   4.958   1.086 -0.3209  0.0760 -0.3966
 4564W        W20033   0.721  10.692   3.206  0.1433  0.1302 -0.2817
 4565W        W20034  17.417   2.939  15.793 -0.1151  0.0413  0.3413
 4566W        W20035  11.599  10.799   2.885  0.2809  0.0159 -0.0912
 4567W        W20036  11.720   8.578   4.812 -0.1649 -0.0970 -0.0453
 4568W        W20037  17.383   0.706   4.262  0.3664 -0.0786  0.0917
 4569W        W20038  10.130   7.405  12.277  0.0040  0.0430 -0.0093
 4570W        W20039  15.242   7.917  11.554  0.1488 -0.1452 -0.4181
 4571W        W20040   8.892   8.180  13.052  0.1840 -0.2157 -0.4437
 4572W        W20041   0.638   2.520   5.981 -0.1444  0.0569 -0.2728
 4573W        W20042   8.397  10.741   0.072 -0.0835 -0.0224  0.1120
 4574W        W20043   9.385   3.191   2.904  0.1186 -0.0230 -0.2219
 4575W        W20044  13.806   6.485   1.769 -0.2322  0.0080  0.1609
 4576W        W20045   0.787  14.474   0.850 -0.1115 -0.2271  0.0484
 4577W        W20046  10.972  10.117   3.829  0.0975  0.1440 -0.0453
 4578W        W20047  14.475  11.820  15.574  0.0419  0.1409  0.1988
 4579W        W20048   6.637   7.219  16.429 -0.3922 -0.0747 -0.2376
 4580W        W20049  10.986  10.203  12.461 -0.0430 -0.2091  0.1810
 4581W        W20050  14.742  15.782   2.602 -0.0337  0.0566 -0.0312
 4582W        W20051  17.380  15.754  14.092  0.1138 -0.1093  0.3899
 4583W        W20052   3.866  12.187  12.363 -0.1147 -0.2109  0.1253
 4584W        W20053   9.134  17.389  15.044  0.2348  0.3313 -0.1602
 4585W        W20054  14.033  16.230  15.232  0.2229 -0.2377 -0.0708
 4586W        W20055   0.623  17.363  14.841 -0.0148 -0.1355  0.0761
 4587W        W20056  16.813   1.900  14.975  0.0662  0.3018 -0.0829
 4588W        W20057  14.673   9.901  12.549 -0.1278  0.0707 -0.1259
 4589W        W20058   4.282  12.751  15.051 -0.2571  0.2557 -0.0504
 4590W        W20059  14.952   6.516   2.646  0.0498  0.0958  0.0425
 4591W        W20060  13.596   0.937  13.814 -0.2288 -0.1678 -0.0730
 4592W        W20061   0.987   2.055   5.085 -0.1590  0.0125 -0.0068
 4593W        W20062   5.104   7.339  14.865 -0.0697  0.1441 -0.1548
 4594W        W20063  13.703   0.041  15.331  0.2728 -0.1854  0.0963
 4595W        W20064   6.200   6.290  16.397 -0.2018  0.0987  0.2898
 4596W        W20065   1.759  17.102   3.771  0.3934 -0.0190  0.0617
 4597W        W20066   2.246   4.511  15.037  0.0009 -0.2078  0.2153
 4598W        W20067  12.096   6.397   6.091 -0.1659 -0.0111 -0.0156
 4599W        W20068   1.520   7.858  15.292 -0.1942 -0.3026  0.0569
 4600W        W20069  10.157   7.121  13.753  0.1427  0.0340  0.1281
 4601W        W20070   6.543   7.752  10.870 -0.1942 -0.0868  0.1422
 4602W        W20071   9.964   3.828   5.963 -0.0649  0.0429  0.0154
 4603W        W20072  14.060  11.886  13.278 -0.2038 -0.1543 -0.1449
 4604W        W20073  15.522  10.528  14.206  0.0961  0.2916 -0.0197
 4605W        W20074   5.088   8.099   4.832  0.0443  0.4382 -0.0478
 4606W        W20075   2.506  13.864  14.080 -0.1238  0.2168 -0.0584
 4607W        W20076  10.410   6.281   3.885  0.0253 -0.0974  0.2793
 4608W        W20077  12.864  11.074  12.869 -0.1432 -0.1108  0.0848
 4609W        W20078   0.037   8.758  13.734 -0.0034 -0.0256 -0.1375
 4610W        W20079   4.816  12.737  11.677 -0.0836 -0.0790 -0.0633
 4611W        W20080  11.541   9.836   3.687  0.1664  0.4433  0.2589
 4612W        W20081  15.235   7.294   5.974 -0.0391 -0.2705  0.0471
 4613W        W20082  15.589   5.348   0.396  0.2331 -0.1469 -0.2403
 4614W        W20083   2.829   9.407  13.676  0.1247  0.0731  0.2577
 4615W        W20084  16.385   3.361  11.420  0.0917 -0.2361  0.0840
 4616W        W20085   4.951  10.640  13.451 -0.0146  0.0821 -0.2678
 4617W        W20086   7.554  14.149  15.332 -0.2083 -0.2567  0.0351
 4618W        W20087   0.393  12.366  11.555 -0.1595  0.1249  0.0162
 4619W        W20088  16.382  14.992   1.618  0.1086 -0.0456  0.0978
 4620W        W20089   7.271  12.746   1.108  0.3761 -0.1449  0.1138
 4621W        W20090   0.116   7.623  12.894 -0.1319  0.0119 -0.0975
 4622W        W20091  15.990   2.934  14.072 -0.2232 -0.0321 -0.1272
 4623W        W20092   3.923  17.410  11.599  0.2590 -0.2013 -0.0362
 4624W        W20093   3.203   9.099   0.328  0.0571 -0.2015 -0.0132
 4625W        W20094   1.328   4.603   0.422  0.0005 -0.0322  0.1645
 4626W        W20095   0.458   8.524  16.146 -0.0104  0.1625 -0.0404
 4627W        W20096   1.513   7.378   1.802  0.3174  0.2734 -0.1283
 4628W        W20097   4.889  13.506  11.611 -0.1574  0.0649 -0.0806
 4629W        W20098   5.115   2.729   2.407  0.2119 -0.1079 -0.0914
 4630W        W20099   4.645   0.251  16.809  0.0108  0.0462  0.1101
 4631W        W20100  11.714  17.170   1.832 -0.0895  0.3583 -0.0672
 4632W        W20101  15.058   6.802   1.043  0.0138  0.1817  0.3574
 4633W        W20102  14.660   1.793  15.514  0.1690 -0.1382  0.2524
 4634W        W20103  10.311   8.858  16.109  0.1557  0.1115 -0.0564
 4635W        W20104   7.446   7.842  13.139 -0.0173 -0.2377  0.0629
 4636W        W20105  12.232   3.552  11.784 -0.1955 -0.2681  0.0941
 4637W        W20106   4.739   2.867   4.825  0.0465 -0.3068  0.0977
 4638W        W20107   0.414  11.282  11.994  0.1443 -0.2312  0.2538
 4639W        W20108  14.761  15.712   1.002  0.0414  0.1951  0.2590
 4640W        W20109  11.316  16.877   1.755 -0.1420  0.0883 -0.1519
 4641W        W20110   4.251   3.873   1.999 -0.1981 -0.2210 -0.0758
 4642W        W20111   8.292   0.198  16.419  0.1775  0.0029 -0.1001
 4643W        W20112  13.140  17.190   4.427 -0.3238  0.1896  0.1968
 4644W        W20113  13.501   5.436   5.741 -0.1384  0.0586  0.0746
 4645W        W20114   5.250  14.743  15.382  0.0763  0.1402  0.2799
 4646W        W20115   4.672   9.349   3.143 -0.0774 -0.0932  0.0017
 4647W        W20116  13.656  15.247   4.465 -0.2748  0.0462  0.2051
 4648W        W20117   4.943   6.654   1.030 -0.2298 -0.1703  0.2696
 4649W        W20118  17.244   5.730   0.315  0.1636 -0.1602 -0.0379
 4650W        W20119   9.924  10.128   0.072 -0.0186  0.1785 -0.0349
 4651W        W20120  10.388  16.518   5.233  0.1631 -0.1700  0.0173
 4652W        W20121  11.727   4.304  14.294  0.0212  0.0895 -0.0825
 4653W        W20122   1.152  15.954  15.839 -0.2520  0.1815 -0.1911
 4654W        W20123   5.145  15.781   4.272 -0.0902 -0.0893  0.0560
 4655W        W20124   5.021  16.709   1.568 -0.1461  0.1794 -0.2914
 4656W        W20125   3.129  17.248  11.979 -0.2970 -0.0953 -0.0772
 4657W        W20126  17.137   2.429   4.240  0.3389 -0.0073  0.1305
 4658W        W20127   9.826   1.365   0.362  0.1263 -0.1019  0.2080
 4659W        W20128   6.886  15.647  14.403 -0.0975 -0.1035  0.2214
 4660W        W20129   5.286   9.839  13.466 -0.3353  0.1402 -0.3978
 4661W        W20130  10.446  14.936   4.104  0.2953  0.1079  0.0838
 4662W        W20131   0.155   8.156  15.486  0.0030  0.2355 -0.2288
 4663W        W20132   4.539  10.922  13.541 -0.1607  0.1246  0.0327
 4664W        W20133   5.564   6.201   3.102  0.0987  0.1007 -0.3474
 4665W        W20134  10.821   2.446   3.325  0.3947  0.2481 -0.1803
 4666W        W20135  12.279   8.448   5.554  0.1000  0.2361 -0.0020
 4667W        W20136  16.857   0.968  10.481 -0.2859  0.1040  0.1968
 4668W        W20137  13.189   0.201   1.764 -0.0079 -0.3586 -0.1470
 4669W        W20138   6.715  14.573  15.987 -0.4385 -0.0851 -0.2454
 4670W        W20139  16.963   9.797  14.270  0.0135 -0.1066  0.4128
 4671W        W20140   4.867   4.208  16.103  0.0927  0.0118 -0.0319
 4672W        W20141  11.450   1.808  12.726  0.4230  0.1429 -0.2755
 4673W        W20142  11.629   7.581  14.559  0.3155  0.1520 -0.1492
 4674W        W20143   3.127   4.258  14.839 -0.0635  0.1179 -0.0363
 4675W        W20144   6.744  10.109   3.956 -0.1681  0.0398  0.0894
 4676W        W20145   2.531   4.482  12.257  0.2078  0.2211 -0.1415
 4677W        W20146   3.991   2.545  11.830 -0.1504  0.2317 -0.1430
 4678W        W20147   7.820  13.546  14.337  0.1204 -0.0344 -0.0545
 4679W        W20148  11.106  11.161  14.420 -0.0187  0.1067  0.0354
 4680W        W20149  13.547  14.120   1.360  0.1218  0.1981 -0.4822
 4681W        W20150  16.785  10.870   4.301 -0.1862  0.1119  0.3851
 4682W        W20151   6.272   5.540  15.692 -0.0183  0.1924 -0.0189
 4683W        W20152   9.720   3.938  13.012 -0.0788  0.0967 -0.2356
 4684W        W20153   2.521  14.380  13.915 -0.3045  0.3172 -0.1174
 4685W        W20154   2.520   5.467  11.893  0.1066 -0.1974  0.1561
 4686W        W20155   9.624  11.132   4.420  0.0316 -0.0216  0.2173
 4687W        W20156   6.718  12.826   6.051  0.3745 -0.2416  0.1068
 4688W        W20157   2.972   6.604  16.293 -0.0952 -0.2674  0.1870
 4689W        W20158  16.062   0.798   5.075 -0.0266  0.0163  0.1790
 4690W        W20159   0.348   1.876   1.667 -0.1267  0.1334 -0.0659
 4691W        W20160   9.386  17.264  14.347  0.0094 -0.0077 -0.1082
 4692W        W20161  10.610  17.246   1.077  0.1592  0.0099 -0.0952
 4693W        W20162  10.242   0.050  13.369 -0.0100  0.0589  0.0805
 4694W        W20163   0.717  14.391   2.193 -0.0239  0.0585 -0.0440
 4695W        W20164   5.411  13.841  12.411  0.1032  0.1787  0.1674
 4696W        W20165   0.524  12.421  16.794  0.2839  0.6303  0.1672
 4697W        W20166   8.614   1.168   4.403 -0.0001  0.0822 -0.2426
 4698W        W20167  14.213   8.586   1.287  0.1189 -0.1744 -0.3146
 4699W        W20168   7.260   5.225   4.585  0.2661  0.2436 -0.0039
 4700W        W20169   8.005  13.591  16.586 -0.1189  0.2307 -0.4972
 4701W        W20170   8.058  11.434  12.020 -0.1172 -0.0420 -0.1404
 4702W        W20171   3.308   2.303   1.215  0.2237  0.1673  0.1149
 4703W        W20172  14.537  12.880   3.235 -0.0239 -0.1048  0.0811
 4704W        W20173  15.103  10.676  11.806 -0.0825 -0.0392 -0.1518
 4705W        W20174   2.246   4.742   3.965  0.0950 -0.1310  0.0651
 4706W        W20175  15.734  16.020   4.148 -0.1310 -0.0577  0.0810
 4707W        W20176   8.095   2.225   5.191  0.3823  0.2722 -0.0175
 4708W        W20177   2.953   3.160  12.230  0.1749  0.0183 -0.0823
 4709W        W20178  16.501   5.523  13.824 -0.2013 -0.4078 -0.0593
 4710W        W20179  17.304  12.133  15.024  0.2796 -0.1330  0.0601
 4711W        W20180   3.572   6.874   0.131  0.0083 -0.3859 -0.0215
 4712W        W20181   8.794   4.633   3.910 -0.2759  0.0522  0.1236
 4713W        W20182   9.538   2.158  14.159  0.0750  0.0138  0.1456
 4714W        W20183  10.764  10.247  15.779  0.1613  0.3995  0.2702
 4715W        W20184   4.601  11.972   4.786 -0.0569 -0.2781  0.1385
 4716W        W20185  14.485   5.551   0.871 -0.2344 -0.2808 -0.0909
 4717W        W20186   1.558   2.090  13.261 -0.1186  0.0652 -0.0607
 4718W        W20187   2.372   8.052  12.638 -0.0776  0.1576  0.0403
 4719W        W20188   5.077   8.363  13.807 -0.1477  0.0047 -0.1819
 4720W        W20189   8.097   9.429  12.433  0.0141 -0.1448  0.3524
 4721W        W20190   1.661   8.194   4.932 -0.3363 -0.0457 -0.1440
 4722W        W20191  11.590   0.005  14.043  0.0151 -0.4638 -0.1101
 4723W        W20192  16.019  12.528  12.797 -0.2295 -0.0539  0.0900
 4724W        W20193   5.625   4.535   5.737 -0.0364  0.2307 -0.0096
 4725W        W20194  17.325  13.855   4.440 -0.0666 -0.0062 -0.2833
 4726W        W20195  11.711   7.735   1.541 -0.0310 -0.0366  0.0798
 4727W        W20196   2.855   5.493  13.584 -0.2076 -0.0304  0.0552
 4728W        W20197  14.365   5.257  14.055  0.2630  0.0097 -0.3304
 4729W        W20198  13.628  11.018   4.378  0.1672  0.1682 -0.2236
 4730W        W20199   5.113   4.989  16.223 -0.1051  0.0219  0.1287
 4731W        W20200  10.652   8.890  12.570  0.0124 -0.4613 -0.1344
 4732W        W20201   8.457   1.268   5.198  0.1566 -0.0690 -0.0883
 4733W        W20202   3.795   7.623   1.118  0.0978  0.0956  0.0478
 4734W        W20203   1.658  13.219  15.286  0.0986 -0.0920  0.0563
 4735W        W20204   7.992   1.582  12.848 -0.1543 -0.2930  0.1847
 4736W        W20205   2.201   9.052  14.229  0.0864 -0.1943 -0.0050
 4737W        W20206   8.975  10.400   1.737  0.0090  0.1842 -0.1032
 4738W        W20207   0.371  16.586  12.517 -0.1777  0.0463 -0.0959
 4739W        W20208  12.988   5.366  11.732  0.0919  0.2587  0.0162
 4740W        W20209   7.917   4.925  11.769  0.5433 -0.0146 -0.1376
 4741W        W20210   8.820  11.328   1.519  0.0410 -0.1527  0.2065
 4742W        W20211   2.113  10.470   0.187 -0.0074 -0.1824  0.0105
 4743W        W20212  11.077   8.674   2.663 -0.2537  0.1424 -0.1828
 4744W        W20213   2.257  12.681   1.072 -0.0473  0.0518 -0.1993
 4745W        W20214   0.773  13.122   2.344 -0.2108  0.0472  0.4403
 4746W        W20215   0.831   6.859  12.688  0.0988 -0.0189  0.3642
 4747W        W20216   8.241  13.596  11.502 -0.1995 -0.1046 -0.1366
 4748W        W20217   1.357   3.059  13.622 -0.0897  0.1504 -0.0972
 4749W        W20218  15.042   7.317   4.042  0.0129 -0.1877 -0.1037
 4750W        W20219  11.685   1.029   1.494  0.3684 -0.0699  0.0766
 4751W        W20220   6.722  14.434  11.823 -0.1494 -0.1506  0.2512
 4752W        W20221   2.768   4.534   0.235  0.1804 -0.0163 -0.3075
 4753W        W20222   4.390   4.762  11.884  0.1487  0.1854 -0.1387
 4754W        W20223   9.449   0.470  16.141 -0.1644 -0.1852  0.1349
 4755W        W20224   5.077   9.861  13.018 -0.0470  0.1045 -0.0999
 4756W        W20225   1.378  15.944  11.561 -0.0885 -0.0734 -0.1914
 4757W        W20226   6.866   9.819   4.315 -0.0563  0.3158 -0.0804
 4758W        W20227   7.416   7.856   5.189 -0.0923  0.0455  0.1211
 4759W        W20228   1.222   2.852   3.725  0.0867 -0.0345  0.0896
 4760W        W20229  10.158   2.158   5.358  0.0059  0.2533 -0.0417
 4761W        W20230  16.805   9.763   3.691  0.1537 -0.0133 -0.1483
 4762W        W20231   3.565  10.781   3.174  0.0692 -0.0849 -0.0005
 4763W        W20232  16.033   1.996  15.925 -0.1817  0.0213 -0.0494
 4764W        W20233   5.831   0.655   6.009  0.0127  0.2520  0.2622
 4765W        W20234   1.988  13.474   4.837  0.0806  0.0169  0.2144
 4766W        W20235   7.503  16.784  16.357 -0.0615 -0.2421  0.0032
 4767W        W20236  14.320   9.922   1.277  0.0175  0.0466  0.2970
 4768W        W20237  13.797  14.920   2.200  0.1980  0.1617  0.2012
 4769W        W20238   0.148   1.198  11.810  0.0418  0.0330 -0.0176
 4770W        W20239   3.253  16.881   2.746  0.1147 -0.0900 -0.0903
 4771W        W20240  12.335  11.046  16.306 -0.0641 -0.0311 -0.1424
 4772W        W20241  17.000   3.562   3.252  0.2619 -0.1228 -0.2970
 4773W        W20242   4.954  13.285   5.088  0.2310 -0.1937 -0.0883
 4774W        W20243   9.972   0.948   1.169  0.1432 -0.2730 -0.1287
 4775W        W20244  10.744  10.009   6.032 -0.1010  0.4681  0.2314
 4776W        W20245   9.662  11.533   3.435 -0.2693  0.2053 -0.0205
 4777W        W20246   3.301   6.963   3.520 -0.0359 -0.1005 -0.0110
 4778W        W20247   5.786   3.920   0.752 -0.0026  0.0737 -0.0995
 4779W        W20248  12.357   7.258   2.093 -0.1714  0.0518 -0.3231
 4780W        W20249   3.744   6.761   3.620  0.1189  0.0989 -0.2071
 4781W        W20250  15.833  15.969   4.971  0.3252  0.1722 -0.0911
 4782W        W20251  17.603  11.270  11.912 -0.2135  0.1032  0.2092
 4783W        W20252   5.705  14.634  15.945  0.0234 -0.2692 -0.0807
 4784W        W20253   5.896  10.643   0.902  0.2309  0.0480 -0.2798
 4785W        W20254   0.856   4.978  14.638  0.0173  0.1796 -0.0493
 4786W        W20255   5.440   5.118  13.153 -0.2648  0.2877  0.0915
 4787W        W20256   5.991  11.822  15.291 -0.0985  0.1196  0.1894
 4788W        W20257   2.352   0.755   2.378 -0.3407 -0.0572  0.4000
 4789W        W20258  16.100   7.477  16.358 -0.0417 -0.0886 -0.2306
 4790W        W20259   5.345  17.016   4.848 -0.0871 -0.2555  0.0123
 4791W        W20260   9.900  11.208  13.608  0.1019 -0.1022  0.0574
 4792W        W20261  15.344  16.103  16.271 -0.1623 -0.0618  0.3195
 4793W        W20262  17.646  10.770   0.188 -0.0107 -0.2099 -0.4085
 4794W        W20263   0.382   2.720   4.577 -0.2214  0.0448 -0.0757
 4795W        W20264   4.664   7.290  11.648  0.0515 -0.2828  0.1605
 4796W        W20265  11.436   0.895   4.196 -0.1500 -0.3304 -0.2316
 4797W        W20266   5.892   7.804   5.853  0.1714 -0.0049  0.0288
 4798W        W20267  14.224  12.742  13.321 -0.0659  0.1811 -0.0096
 4799W        W20268   7.024  11.315  14.319  0.2703 -0.0238 -0.0529
 4800W        W20269  17.196   3.524   2.612 -0.2414 -0.1499  0.0292
 4801W        W20270  12.941   1.889   4.453 -0.2137 -0.0618 -0.0026
 4802W        W20271  13.367  15.240   0.202 -0.1423  0.2026  0.0352
 4803W        W20272   1.250  10.192  15.868 -0.1349 -0.0795  0.0050
 4804W        W20273   0.401  12.310   4.237 -0.0790  0.0131  0.0526
 4805W        W20274  15.991   3.551   4.663 -0.3018  0.0200 -0.3629
 4806W        W20275   5.141  12.478   2.651 -0.0383 -0.0248  0.0405
 4807W        W20276  13.072   9.989  13.474  0.1129  0.0456  0.4728
 4808W        W20277   8.849   0.026  16.835 -0.0484  0.1359 -0.0614
 4809W        W20278   0.487   6.699   0.224 -0.2180 -0.0670 -0.1766
 4810W        W20279  16.097  16.392   4.038 -0.3277 -0.0413  0.1594
 4811W        W20280   3.453  13.776  11.890  0.2153 -0.0942  0.0088
 4812W        W20281   0.761   4.424  10.691  0.1459  0.1173  0.2839
 4813W        W20282   6.352  15.441  11.741  0.1746 -0.2563  0.4956
 4814W        W20283   2.223  12.391   3.269  0.1637  0.1191 -0.0106
 4815W        W20284   5.065  12.791   2.209 -0.1431  0.2705 -0.1559
 4816W        W20285  11.727   0.550  16.703  0.4256  0.0790  0.2174
 4817W        W20286   2.097  10.642  14.613 -0.0151 -0.1475 -0.3141
 4818W        W20287  16.262  10.368   1.375 -0.0352  0.0297  0.2559
 4819W        W20288   0.850  17.593  12.873  0.0885  0.0697  0.1470
 4820W        W20289  15.706   9.758   4.201  0.2149 -0.1505 -0.0928
 4821W        W20290  17.102  12.555   4.935 -0.1949  0.2083  0.0658
 4822W        W20291  12.497   8.899  13.867 -0.0053  0.0746 -0.2030
 4823W        W20292  16.813   1.903   3.192 -0.0559  0.0205  0.0505
 4824W        W20293   7.447  10.534   4.664 -0.1266  0.1119  0.0989
 4825W        W20294   1.097   1.989  12.047 -0.0328 -0.1643  0.2040
 4826W        W20295   7.076  13.685  14.401 -0.0531 -0.0813 -0.1104
 4827W        W20296   4.859   9.161  11.789 -0.1019 -0.0254  0.1287
 4828W        W20297   9.599  14.173   2.014  0.2275  0.1618 -0.2792
 4829W        W20298   2.010   0.122  14.910 -0.4174  0.1535  0.4410
 4830W        W20299   2.275   4.046   5.526  0.0283 -0.0446  0.0594
 4831W        W20300   6.841   1.671  15.351  0.1327  0.0506  0.1852
 4832W        W20301  12.107   6.495  13.216  0.1123  0.0268 -0.0929
 4833W        W20302   8.717  11.047  15.758 -0.0410 -0.0494 -0.1447
 4834W        W20303   8.105  16.177  13.806  0.1921 -0.0275  0.1353
 4835W        W20304   2.980   5.862   1.245  0.0212 -0.0919 -0.0991
 4836W        W20305   7.307  13.091  14.884  0.4182  0.1448 -0.2205
 4837W        W20306  15.899  11.216   2.596 -0.1458  0.1489 -0.4359
 4838W        W20307   0.689  11.504  11.193  0.2295 -0.0296 -0.0813
 4839W        W20308   5.189   6.609  13.058  0.0423  0.0749 -0.2102
 4840W        W20309   7.445   6.787   2.975 -0.0909  0.0289 -0.0242
 4841W        W20310   9.656   4.640   6.205 -0.2848 -0.1654 -0.1624
 4842W        W20311   3.052  17.368  14.124  0.1623  0.1044  0.0527
 4843W        W20312   8.452  11.090  13.738 -0.2587 -0.3431  0.1894
 4844W        W20313  13.596  13.114   0.448  0.3229  0.0387  0.2505
 4845W        W20314   4.721  14.093   4.702  0.2637 -0.0715  0.1955
 4846W        W20315   9.605   9.457   3.390 -0.1984  0.0195  0.1255
 4847W        W20316  16.359   9.725  16.667  0.3258 -0.3315 -0.0183
 4848W        W20317  11.381  10.826  14.684 -0.2571 -0.0587 -0.0627
 4849W        W20318  11.462  17.042  16.017  0.0187 -0.2316  0.0206
 4850W        W20319   8.352   0.002   0.799  0.2333  0.0804 -0.0060
 4851W        W20320   8.478   6.080   2.463 -0.1952 -0.0357 -0.0669
 4852W        W20321   1.215  13.835   4.693  0.0347  0.4101  0.0388
 4853W        W20322   9.296   3.947   4.218 -0.0339 -0.2610  0.0389
 4854W        W20323   9.583  12.777   4.981  0.4140  0.1093  0.0744
 4855W        W20324  17.744   6.567  16.030 -0.0075  0.2002  0.1124
 4856W        W20325  10.138  15.839   2.142 -0.2063  0.3379 -0.2382
 4857W        W20326   2.383   0.271   4.718 -0.1975 -0.2327  0.2151
 4858W        W20327  15.257   8.347  15.168 -0.1538 -0.2889  0.2329
 4859W        W20328   7.533  17.128  15.069  0.2377  0.0518 -0.3546
 4860W        W20329  14.604  17.568  12.622  0.2204 -0.0350 -0.1916
 4861W        W20330   1.509   5.343  13.223  0.2557 -0.1326 -0.0819
 4862W        W20331   9.742  12.679   0.986 -0.2244 -0.1278  0.0325
 4863W        W20332  11.801   1.413  16.589  0.1129  0.1518 -0.0479
 4864W        W20333   8.377  15.089   4.347 -0.0434  0.0528 -0.0851
 4865W        W20334   7.857  15.542  12.795  0.2769  0.0479  0.0480
 4866W        W20335   0.022  10.334  12.110 -0.1598 -0.0936  0.1103
 4867W        W20336   0.556  11.391  16.384 -0.0310  0.1995 -0.1507
 4868W        W20337   6.366   5.491  13.775  0.2705  0.1590  0.1678
 4869W        W20338   0.757   6.001  11.235 -0.0662  0.0059  0.1077
 4870W        W20339   1.537   9.396  14.135  0.0645  0.0784 -0.1566
 4871W        W20340   4.567  14.591  13.682  0.1873 -0.1421  0.2063
 4872W        W20341  12.364  13.264   4.645  0.1145 -0.0276  0.1212
 4873W        W20342   6.061   6.095   2.941  0.1121  0.3938  0.1123
 4874W        W20343   3.255   7.577  16.185 -0.1514 -0.1635  0.0243
 4875W        W20344  12.658  15.572   5.674 -0.2293 -0.1648  0.0434
 4876W        W20345   4.350   2.990  14.617 -0.1347  0.4202 -0.0113
 4877W        W20346   9.438  12.397   4.366  0.2994  0.0028  0.0702
 4878W        W20347   9.268   2.910  14.104 -0.2912  0.2761 -0.3858
 4879W        W20348  14.830   3.048  13.798  0.2167  0.1938  0.2308
 4880W        W20349   5.059  14.421  13.020 -0.0424 -0.3083 -0.3109
 4881W        W20350   0.960  15.966  11.869 -0.0567  0.2116  0.1050
 4882W        W20351  13.508  14.249  12.609 -0.1251  0.0093  0.0483
 4883W        W20352  12.375  15.430   4.769  0.1670  0.4846  0.2991
 4884W        W20353   9.710  16.634  13.595 -0.2031  0.0431 -0.1106
 4885W        W20354   2.658   7.416  15.263 -0.0924  0.2475  0.1079
 4886W        W20355   3.086   8.706  13.380 -0.2067 -0.1098 -0.2042
 4887W        W20356   6.416   1.981   5.717 -0.1680  0.2170 -0.3136
 4888W        W20357  17.117  10.296  14.252 -0.0234 -0.2859  0.1112
 4889W        W20358   8.312   3.396  13.516  0.2832  0.2199 -0.3291
 4890W        W20359   0.396   7.881   4.726  0.1380  0.1245  0.1601
 4891W        W20360  15.101  14.602  14.723  0.0267  0.0069 -0.1712
 4892W        W20361   5.711   3.242  16.293  0.1715  0.0892  0.1219
 4893W        W20362  10.493   1.667   3.771 -0.1197 -0.0161  0.2794
 4894W        W20363  12.514   9.659  12.038  0.3759  0.1538  0.0985
 4895W        W20364   2.956  15.296   0.030 -0.0847  0.1016  0.1832
 4896W        W20365  15.514   3.758  13.309 -0.2079 -0.0867  0.0976
 4897W        W20366  12.652  11.337  15.090  0.1065  0.0234  0.2105
 4898W        W20367  11.375  13.033  12.646 -0.0739 -0.0374  0.0109
 4899W        W20368   7.797  13.850  14.883  0.1931 -0.0075 -0.1349
 4900W        W20369  16.312   4.009  11.162  0.0233  0.0921 -0.0975
 4901W        W20370  12.669  14.215   3.732  0.0110 -0.1975  0.1253
 4902W        W20371  16.252  14.040   6.407 -0.2349  0.0455 -0.3491
 4903W        W20372  14.326   0.164   0.945  0.2385 -0.1770 -0.0800
 4904W        W20373   8.961  13.998   0.833  0.2566  0.0317  0.0367
 4905W        W20374   5.353  13.642  14.938 -0.0681 -0.1637 -0.0217
 4906W        W20375  10.252  10.924  13.883  0.0094 -0.0496  0.1966
 4907W        W20376   0.914   3.938   4.916  0.0857 -0.1323  0.2354
 4908W        W20377  10.342   4.120   1.699 -0.0141 -0.0003 -0.0815
 4909W        W20378  17.134   4.897   0.129 -0.0165  0.0626 -0.0870
 4910W        W20379   6.732   2.437  11.067  0.0496  0.0616 -0.1206
 4911W        W20380   0.791   8.692   2.917  0.2739 -0.0010  0.1983
 4912W        W20381  17.380   4.776   2.247 -0.0072  0.0336 -0.0777
 4913W        W20382  13.789  13.379  15.292  0.1937 -0.0970  0.2212
 4914W        W20383   2.596  17.397  11.082  0.0888 -0.2487  0.0185
 4915W        W20384  17.089   9.500  10.747 -0.1925 -0.0227  0.1166
 4916W        W20385   2.287   4.810  10.926  0.0500 -0.0183 -0.0878
 4917W        W20386   5.530  16.219   3.365  0.0851 -0.0625 -0.1026
 4918W        W20387  11.677   3.091   5.962  0.1664 -0.1192 -0.1578
 4919W        W20388   1.667   2.663  11.815 -0.1844  0.0464 -0.0944
 4920W        W20389   7.263  12.176   4.099 -0.1277  0.0615 -0.0858
 4921W        W20390  10.701   2.410  14.865 -0.1522  0.0694 -0.1291
 4922W        W20391   9.128   0.559  11.421 -0.0398  0.3608 -0.1367
 4923W        W20392   7.489   6.350   0.141 -0.1928  0.0180 -0.0726
 4924W        W20393   9.101  13.202  11.919  0.0045  0.2900 -0.1435
 4925W        W20394  10.854   3.729  13.907  0.0154 -0.0197 -0.1085
 4926W        W20395   0.469  12.383  11.060 -0.2008 -0.0129 -0.1031
 4927W        W20396   6.193   7.952   2.132  0.1387  0.1122 -0.3739
 4928W        W20397   6.086   1.055  13.237 -0.0082 -0.0707 -0.2131
 4929W        W20398   9.091   3.619   3.893  0.2639 -0.0265  0.0746
 4930W        W20399  12.967   4.295  12.797 -0.0509  0.2245 -0.1748
 4931W        W20400  17.223   7.819  13.398  0.1049  0.2981  0.1029
 4932W        W20401  14.172  11.018   4.484  0.1892 -0.1512 -0.1307
 4933W        W20402  14.215   5.999   5.950  0.1394  0.2180 -0.2845
 4934W        W20403  14.942   3.479  12.055  0.1028 -0.3948  0.0820
 4935W        W20404   5.070  12.042  11.899  0.3458  0.3847  0.0341
 4936W        W20405   1.587   2.007  14.870  0.1592 -0.3128 -0.6904
 4937W        W20406  13.985  15.723  16.038  0.0364 -0.0332  0.0683
 4938W        W20407   2.503  14.612  15.293  0.1918  0.2567 -0.0632
 4939W        W20408  11.553  15.753  14.733  0.1058 -0.0350 -0.0257
 4940W        W20409   1.603   3.951  14.686 -0.1416  0.1716  0.0206
 4941W        W20410   9.593  15.561   4.813 -0.0904  0.0242 -0.4147
 4942W        W20411  14.882   0.569  13.221 -0.0511 -0.1045  0.2633
 4943W        W20412   0.296   3.509  14.549 -0.0185 -0.3281  0.0129
 4944W        W20413   1.894   4.341  14.129 -0.2689  0.0297 -0.0152
 4945W        W20414   3.081  17.319  15.880  0.3617 -0.1809  0.0685
 4946W        W20415   3.316   0.518   4.606  0.1305  0.3786 -0.0319
 4947W        W20416   9.018   6.084   0.954  0.0461  0.1244 -0.2559
 4948W        W20417   1.601  14.406   3.342  0.1256  0.0347  0.2379
 4949W        W20418   9.734  10.289  11.221 -0.2260  0.1366  0.0602
 4950W        W20419  16.128   3.285  13.714 -0.0028 -0.2438  0.1112
 4951W        W20420   9.485   1.466   5.413 -0.1724 -0.0985  0.1066
 4952W        W20421   1.807   4.546   3.785 -0.1405 -0.0583  0.2345
 4953W        W20422  12.647   8.382  11.928  0.2764 -0.0914 -0.2321
 4954W        W20423  14.926   8.657   5.509 -0.1505 -0.3670  0.1377
 4955W        W20424  11.819  15.827   5.035 -0.1630  0.4656 -0.1429
 4956W        W20425   1.401  17.331  12.314  0.3145  0.2828  0.0899
 4957W        W20426   4.832  12.074  16.579  0.2609  0.0077 -0.1231
 4958W        W20427   2.948  16.086   1.096  0.2534 -0.2519 -0.1729
 4959W        W20428  15.576  15.533  10.975  0.2298 -0.1943 -0.3111
 4960W        W20429   8.838   9.816  16.021 -0.4247  0.1335 -0.0144
 4961W        W20430  13.265  17.775   6.279 -0.4249  0.0928  0.2245
 4962W        W20431  13.966   7.337   2.151 -0.2659  0.1258  0.1462
 4963W        W20432   1.570  12.830  14.589  0.1131  0.4933  0.2421
 4964W        W20433  13.777  16.429   3.571 -0.2686 -0.1614  0.2097
 4965W        W20434   1.684  15.643   1.233 -0.4151  0.0831  0.0209
 4966W        W20435  11.833   0.017  16.779 -0.1933  0.3365 -0.0509
 4967W        W20436  13.992  11.581  11.280  0.2691 -0.0607 -0.0862
 4968W        W20437   3.382   1.408  11.451 -0.1139  0.1945  0.1420
 4969W        W20438   8.605   4.479  16.065 -0.2976 -0.5160 -0.0744
 4970W        W20439   0.890   8.276   5.588 -0.0495  0.1200  0.1780
 4971W        W20440   5.414   3.175   5.347 -0.3859  0.1781 -0.0360
 4972W        W20441   3.742  16.387   0.305 -0.3401 -0.0638 -0.2692
 4973W        W20442   7.673  11.563  10.550  0.2525  0.1452  0.1290
 4974W        W20443   1.838  15.065  14.849  0.1852 -0.3704  0.2550
 4975W        W20444   8.103   9.289  14.096 -0.1024  0.2417 -0.0465
 4976W        W20445  11.162   9.659  11.180  0.2628  0.1445 -0.0637
 4977W        W20446  12.178  14.330  14.437  0.2434 -0.0441  0.2181
 4978W        W20447   7.073   0.675   5.094 -0.1157  0.2756  0.0478
 4979W        W20448  10.479   0.463   4.817 -0.2243  0.3152  0.3041
 4980W        W20449  13.726  10.557  11.715 -0.1757  0.0992  0.4251
 4981W        W20450  14.442   1.006   0.858 -0.0478 -0.1007 -0.0244
 4982W        W20451   5.680   0.939  15.454  0.0910 -0.0900 -0.1114
 4983W        W20452   1.103  14.945  12.051 -0.2305 -0.0124  0.1044
 4984W        W20453   5.272   3.260   5.805 -0.0725  0.0999 -0.2489
 4985W        W20454   3.466  16.868   1.762 -0.2336  0.0714  0.0631
 4986W        W20455  17.612  10.301  11.666 -0.1452 -0.2042 -0.1274
 4987W        W20456   4.205   7.324   1.332 -0.1131 -0.0757  0.0921
 4988W        W20457  11.918   8.187  15.272  0.3501 -0.2621 -0.0846
 4989W        W20458   9.694   3.773  16.100  0.0589  0.2460 -0.0239
 4990W        W20459   6.517   2.240   2.199  0.1672  0.2258  0.1308
 4991W        W20460   6.333   6.592  14.624 -0.0595  0.2257 -0.2360
 4992W        W20461  16.839  13.725  14.194 -0.0394  0.1197  0.1109
 4993W        W20462   1.652  11.879   0.535 -0.0829  0.2579 -0.3001
 4994W        W20463  17.614   5.119   1.314 -0.1194 -0.1534  0.2107
 4995W        W20464   0.310   8.926   2.662 -0.3002  0.0744  0.0582
 4996W        W20465  16.820  15.312   0.198  0.0246  0.1028 -0.1684
 4997W        W20466   7.282  11.869  12.754 -0.0086 -0.0244  0.0633
 4998W        W20467   6.031   5.129  13.873  0.1138 -0.1452 -0.1702
 4999W        W20468   2.199  15.027  16.252 -0.1953  0.0624 -0.2783
 5000W        W20469  15.365  11.034   1.517  0.3295  0.1090  0.2397
 5001W        W20470   0.868  12.369   4.458  0.1763 -0.0212  0.0974
 5002W        W20471   0.835  12.993  15.327 -0.1895 -0.1311 -0.1362
 5003W        W20472  17.131   6.919   0.102  0.1047  0.0257 -0.1787
 5004W        W20473  11.294   3.177   5.534 -0.1105 -0.1172  0.1659
 5005W        W20474  17.682   6.120  12.202  0.1097  0.0600 -0.1659
 5006W        W20475   9.965  10.659  15.885 -0.2545 -0.0870  0.0710
 5007W        W20476   2.203   1.755   0.722  0.0375  0.1476  0.1387
 5008W        W20477   7.853   8.431   1.039 -0.2348 -0.1989  0.1981
 5009W        W20478  17.251   2.107  14.780  0.3002  0.2392 -0.1935
 5010W        W20479   0.838  13.094  13.131  0.0112 -0.0845  0.2265
 5011W        W20480   7.217   1.600  14.493  0.0525 -0.0042 -0.2222
 5012W        W20481   5.647   8.557  16.257  0.0955  0.1505 -0.0648
 5013W        W20482  10.101   7.637   3.431 -0.1601 -0.0882 -0.1627
 5014W        W20483  13.268  13.906  12.316  0.2217 -0.1465 -0.0309
 5015W        W20484   4.835   7.598  14.435  0.1266 -0.3444 -0.2546
 5016W        W20485  11.698   6.274   0.214 -0.0677 -0.1621  0.2551
 5017W        W20486   0.758  16.813  15.403 -0.1267 -0.1728 -0.1155
 5018W        W20487  12.236   6.204   4.244 -0.0380  0.0032 -0.0682
 5019W        W20488   4.330   6.423   3.058  0.1242 -0.0321 -0.0143
 5020W        W20489  11.143   7.022   4.061 -0.0400  0.0232  0.0545
 5021W        W20490   7.791   0.812   0.942  0.2824  0.0585  0.3532
 5022W        W20491  10.563   7.165  14.048  0.2031 -0.1739  0.1047
 5023W        W20492  15.090   0.161  11.730  0.0247 -0.1047  0.2231
 5024W        W20493  10.942  10.509   5.620 -0.0266 -0.1346 -0.0295
 5025W        W20494   8.379   7.669   1.765  0.1945  0.0930  0.1298
 5026W        W20495  15.813   3.257   0.345  0.1362 -0.1122  0.1327
 5027W        W20496   5.580  16.434  11.584  0.1314  0.0405  0.1857
 5028W        W20497  10.168   5.694  15.869  0.0849 -0.1479  0.3339
 5029W        W20498   4.434   0.729   1.730 -0.1119 -0.1769  0.0798
 5030W        W20499   1.585  12.418  15.759  0.0040 -0.3083  0.3319
 5031W        W20500   2.997   4.958   5.129 -0.1923  0.2654 -0.2231
 5032W        W20501  14.635   7.168   3.718 -0.0078  0.1228 -0.1401
 5033W        W20502  15.733  11.284  12.957  0.0027 -0.0312 -0.0185
 5034W        W20503  12.418   6.794   3.603  0.1745 -0.2378  0.2067
 5035W        W20504  15.443   5.003   1.999  0.4607  0.1862 -0.4590
 5036W        W20505  13.035  14.902  13.653  0.1725 -0.0488  0.2530
 5037W        W20506   4.357  12.295  15.338 -0.1129  0.0316  0.2428
 5038W        W20507  14.871   2.341   3.259 -0.1387 -0.2264  0.1313
 5039W        W20508   5.516  11.672   3.599  0.2960 -0.0533 -0.1206
 5040W        W20509  16.640  13.904  15.308 -0.2670 -0.0634  0.1340
 5041W        W20510  15.065   2.578  16.153 -0.1576  0.2574  0.0464
 5042W        W20511  15.595   5.914   0.202  0.0298  0.3435  0.3371
 5043W        W20512   4.414  16.657   5.648  0.1438  0.1504  0.0380
 5044W        W20513   7.468   2.983  13.405 -0.1675 -0.2315  0.2405
 5045W        W20514  13.024   9.003  10.483  0.1171 -0.2350 -0.2780
 5046W        W20515  10.726   0.855   2.494  0.1128  0.1011 -0.1977
 5047W        W20516  17.451   9.240   3.124 -0.1791 -0.1310  0.0017
 5048W        W20517  16.107  11.657  12.305 -0.1910 -0.0936  0.0612
 5049W        W20518  17.531   5.913   4.342 -0.0771 -0.2205 -0.2065
 5050W        W20519   0.719   1.940   0.916  0.1382  0.0212 -0.2980
 5051W        W20520  10.707  10.450  16.347 -0.0505 -0.1080  0.5306
 5052W        W20521   8.583  12.087   3.336  0.1667  0.0168 -0.0478
 5053W        W20522  12.563   3.440   0.141 -0.2380  0.0001  0.0904
 5054W        W20523   9.348   0.547   2.822 -0.0177  0.1554  0.1933
 5055W        W20524  17.351   2.189  13.009  0.1010 -0.0875  0.2858
 5056W        W20525   5.471  14.074  13.522  0.1449  0.1974  0.1026
 5057W        W20526  17.718   3.890  13.645 -0.1465 -0.0523  0.0759
 5058W        W20527  16.795   9.805   1.956  0.2386  0.0136 -0.1807
 5059W        W20528  11.527  10.936  15.217 -0.0441 -0.2525 -0.0501
 5060W        W20529  15.094  16.385   1.458 -0.0170  0.1158 -0.0310
 5061W        W20530  14.421  10.473  13.083  0.1585  0.0611 -0.1396
 5062W        W20531   2.281  13.069  14.012  0.1963 -0.0905  0.3075
 5063W        W20532  14.605   8.762  16.303  0.1729  0.0048 -0.1661
 5064W        W20533   0.302   4.938  15.384  0.2320 -0.2567  0.0993
 5065W        W20534   3.529  14.086   4.185  0.1567  0.1870  0.1856
 5066W        W20535  15.872   1.801  15.215  0.1306 -0.2175  0.1147
 5067W        W20536  16.039  14.261   1.426 -0.1307  0.2312  0.0955
 5068W        W20537  17.631   7.908  15.830 -0.4404 -0.1475 -0.2868
 5069W        W20538  16.622   1.334  14.949 -0.4568  0.0726  0.1319
 5070W        W20539   6.133   1.353   4.804  0.1840 -0.2954 -0.2550
 5071W        W20540   0.669   2.671  14.071  0.0780 -0.0502  0.1501
 5072W        W20541   1.893  13.697  12.876  0.0274  0.0232  0.0408
 5073W        W20542   6.725   3.819  16.612 -0.1741 -0.0457  0.0782
 5074W        W20543   2.470  12.940   0.712 -0.3101 -0.2962  0.0029
 5075W        W20544   4.998  15.511   4.662  0.2049  0.2270  0.0488
 5076W        W20545   2.299  17.084  11.369 -0.1001  0.2751 -0.0588
 5077W        W20546   6.173   9.222  14.804  0.3114  0.0895  0.2442
 5078W        W20547   3.084   6.602   2.556  0.1941 -0.1137  0.3297
 5079W        W20548  16.650   0.329   2.397 -0.2114 -0.2576 -0.1872
 5080W        W20549   5.644   3.549   6.494 -0.4316 -0.0603  0.0517
 5081W        W20550  10.420   1.579  11.751  0.0705  0.3730  0.0022
 5082W        W20551  10.552   3.123   5.001 -0.3156 -0.0339 -0.0366
 5083W        W20552   3.348  11.726   3.320  0.2744  0.2485 -0.1810
 5084W        W20553  14.209   2.648   3.947 -0.1125 -0.2112 -0.0699
 5085W        W20554  14.816   7.612   4.989 -0.1501 -0.0158  0.1842
 5086W        W20555   5.063   7.165  12.065  0.2212  0.1912  0.2810
 5087W        W20556   3.557  13.781  16.353 -0.2805 -0.0956  0.2290
 5088W        W20557  11.635  17.387  13.264 -0.2435 -0.0430 -0.0809
 5089W        W20558   9.837  13.226   1.028 -0.0495 -0.0200  0.2091
 5090W        W20559   3.970  13.685  15.303  0.0867 -0.0650 -0.0827
 5091W        W20560   4.310   1.232   1.394 -0.1543  0.2915  0.2454
 5092W        W20561   1.723  10.433  11.309  0.0065 -0.0065 -0.1004
 5093W        W20562  10.674   7.582   5.286 -0.0332  0.1399  0.0545
 5094W        W20563  15.402   2.011  16.435 -0.3246 -0.3268 -0.3457
 5095W        W20564  15.926  12.179  12.330 -0.0174 -0.0207 -0.2740
 5096W        W20565   1.209  10.360   3.514 -0.2110  0.1887  0.0075
 5097W        W20566   6.588   3.678   1.976  0.0386  0.0736 -0.3847
 5098W        W20567   1.813   2.906  13.283  0.0770 -0.1551  0.1049
 5099W        W20568   7.097   6.096   5.638 -0.2852  0.2522 -0.0931
 5100W        W20569  15.214  17.279  15.238  0.1726 -0.1892 -0.2897
 5101W        W20570  17.757   0.546   5.735  0.1428 -0.0132  0.2531
 5102W        W20571  13.594  11.611  15.198  0.0151  0.0219  0.0158
 5103W        W20572  12.416   9.636   0.069 -0.1056  0.0528 -0.1565
 5104W        W20573   9.320   0.325   0.645  0.0013 -0.0215  0.0372
 5105W        W20574   0.684   3.687  16.406 -0.1369  0.0850  0.2469
 5106W        W20575  17.745   9.773  12.166 -0.0922  0.1043  0.0653
 5107W        W20576   3.029  16.374   3.757 -0.1098  0.3076  0.0415
 5108W        W20577  15.585  16.712  13.966  0.1341  0.1058  0.0680
 5109W        W20578   0.409   2.000  11.975 -0.0306  0.3877  0.1002
 5110W        W20579   3.221  14.169  15.691  0.0293  0.0818  0.1188
 5111W        W20580   3.052   5.196  13.950 -0.0763 -0.1004 -0.1227
 5112W        W20581  16.930   9.031  13.459  0.0426  0.0279  0.1049
 5113W        W20582  15.704   1.192  14.026  0.0599 -0.0777 -0.0746
 5114W        W20583   6.955   8.382   1.379 -0.0035 -0.1880 -0.1459
 5115W        W20584  17.148  16.534  11.349 -0.1532 -0.0804 -0.0659
 5116W        W20585  10.694   9.814   2.832  0.2609 -0.1335  0.0865
 5117W        W20586  12.224   1.031   5.323  0.1200  0.1153  0.1715
 5118W        W20587  16.145  14.013   1.856 -0.1369 -0.4383 -0.0005
 5119W        W20588   3.244  13.334  13.145 -0.3259 -0.2012 -0.2378
 5120W        W20589   3.913   8.054   3.103  0.0418  0.0625 -0.0928
 5121W        W20590   9.720   2.604  14.173 -0.1961  0.1099  0.0746
 5122W        W20591  16.793   6.289  13.353  0.1912  0.0449  0.1530
 5123W        W20592   2.223  15.585   1.292 -0.1592 -0.0966  0.4018
 5124W        W20593   6.135  13.502  16.677  0.1134 -0.2060  0.2769
 5125W        W20594  16.328   7.556   0.084  0.0194  0.0841  0.0317
 5126W        W20595   9.668  10.273   2.330 -0.3203  0.0170 -0.0651
 5127W        W20596   3.231   7.845   1.720  0.0633  0.1234  0.1218
 5128W        W20597  16.642   6.788  13.585  0.2843  0.1214  0.1730
 5129W        W20598   6.044   1.245  15.710  0.0050  0.2099  0.0676
 5130W        W20599   4.986  16.225   4.215 -0.0903 -0.0729 -0.1666
 5131W        W20600   6.277  16.539   1.375 -0.0339  0.0386  0.2101
 5132W        W20601   3.624   1.716  10.841  0.0535  0.0516 -0.0002
 5133W        W20602  14.435   3.167   2.589 -0.1757  0.0167 -0.1061
 5134W        W20603   6.638  11.428   5.735 -0.2998 -0.0440 -0.0224
 5135W        W20604   3.335   7.696   3.805  0.0151 -0.0135 -0.1581
 5136W        W20605   7.539  13.411   0.663  0.0844  0.2220  0.1432
 5137W        W20606   6.514  14.295   3.455  0.3143 -0.1138  0.1789
 5138W        W20607  10.763   0.337  14.127 -0.0372 -0.0952  0.3200
 5139W        W20608   2.473   0.046  13.802 -0.0644  0.2258  0.1174
 5140W        W20609  12.186  13.942   0.431 -0.2309  0.0515  0.1611
 5141W        W20610   1.660   8.721  15.891  0.1846 -0.4376 -0.0874
 5142W        W20611  15.482  13.551  12.574 -0.1736 -0.2210  0.0974
 5143W        W20612  15.707  17.199   2.552  0.0047 -0.1981  0.1658
 5144W        W20613  17.327  12.323   4.459  0.0611  0.3497  0.1153
 5145W        W20614  16.805  14.134  13.297 -0.2439  0.1091 -0.2044
 5146W        W20615  15.335  11.990  13.773 -0.0414  0.0449 -0.2492
 5147W        W20616  15.910  15.182   3.810  0.3799  0.0992 -0.0524
 5148W        W20617   2.201   3.729   4.129  0.0162  0.1732 -0.1194
 5149W        W20618  16.056  13.948  13.733 -0.3655 -0.0490  0.2069
 5150W        W20619  14.737   9.952  14.349  0.1360 -0.0883  0.0356
 5151W        W20620  17.009  13.085   2.874 -0.1153  0.1426  0.1416
 5152W        W20621   6.464  15.982  14.361 -0.2119 -0.0905 -0.0363
 5153W        W20622   4.203   4.981  12.931 -0.0274  0.1539 -0.1474
 5154W        W20623  13.337   1.677  14.927 -0.2764  0.2135  0.0718
 5155W        W20624   7.650   1.446  10.994  0.0011  0.0170 -0.0679
 5156W        W20625  12.633   8.978  15.674 -0.0360 -0.0755 -0.0183
 5157W        W20626   4.049   5.511  16.830  0.2342 -0.0300 -0.3287
 5158W        W20627   6.078   7.521  12.315 -0.0895 -0.0076 -0.1329
 5159W        W20628  12.900   8.239  12.344 -0.0333 -0.0305 -0.0620
 5160W        W20629   1.785   6.129   5.062 -0.0577  0.0147  0.2259
 5161W        W20630  15.586  13.294   0.616  0.1548  0.1293 -0.3046
 5162W        W20631   1.843   6.438  13.986 -0.5549 -0.0764 -0.0964
 5163W        W20632  15.963  16.887   3.861  0.0955 -0.0780  0.2570
 5164W        W20633  12.786  14.397  11.741 -0.1517  0.3884 -0.1315
 5165W        W20634  12.621  11.959  13.936  0.1097  0.0122  0.0502
 5166W        W20635   6.016  12.214   3.549  0.0250 -0.0583  0.1542
 5167W        W20636   8.428  16.485   4.213  0.2123 -0.2068 -0.3464
 5168W        W20637   5.980   3.072   5.243  0.0725 -0.0378  0.0770
 5169W        W20638  14.151   0.759  14.481  0.4201  0.3802 -0.0036
 5170W        W20639   5.991   4.523   5.374 -0.0821 -0.0105  0.2623
 5171W        W20640  16.449  10.872  14.990 -0.0281  0.1063 -0.0527
 5172W        W20641  11.227   0.810   3.199  0.1330  0.2286  0.1491
 5173W        W20642   8.330   7.704  15.047  0.1315  0.0701 -0.2323
 5174W        W20643  14.745   9.494   0.027 -0.4491  0.0631 -0.2102
 5175W        W20644  15.752  12.725  15.405  0.2063 -0.2020 -0.0359
 5176W        W20645   1.535   8.550  10.635  0.2468 -0.1450 -0.2311
 5177W        W20646   5.499  14.122   0.469 -0.1962  0.1156 -0.1109
 5178W        W20647  12.140   7.410  13.825 -0.2333  0.0310  0.0765
 5179W        W20648   9.156   9.414   3.102 -0.1012 -0.0703  0.3606
 5180W        W20649   0.857  15.458  14.113  0.4788 -0.2717 -0.0671
 5181W        W20650   1.735  17.381   0.548 -0.0808 -0.2093  0.0332
 5182W        W20651  13.722  13.850  13.936 -0.1468 -0.2379 -0.2375
 5183W        W20652   0.776   7.873  12.160  0.1791 -0.2587  0.1245
 5184W        W20653   8.351   5.788  14.054  0.1739  0.1235  0.6597
 5185W        W20654   6.654   0.177   4.434  0.2605  0.2145 -0.0976
 5186W        W20655   2.200  12.794  10.846  0.1287 -0.1653 -0.1548
 5187W        W20656  11.980  15.347  11.832  0.0900 -0.2270 -0.4197
 5188W        W20657   7.738   7.765   3.930 -0.0782  0.1581  0.3952
 5189W        W20658   3.280   7.503  15.410 -0.0976 -0.2041 -0.1011
 5190W        W20659   9.923  11.331  16.563  0.2986 -0.1286  0.0268
 5191W        W20660   8.376  14.512  13.612 -0.0844  0.1790  0.0271
 5192W        W20661   8.874  10.402   0.793  0.0985 -0.0176 -0.0510
 5193W        W20662  11.462  15.642   5.418  0.1463  0.1027 -0.2632
 5194W        W20663  12.374   8.018  16.626  0.0521  0.1305  0.0125
 5195W        W20664  15.501   6.761   2.965 -0.0862 -0.2595  0.0210
 5196W        W20665   2.024   7.406   1.968 -0.2610 -0.0465 -0.1149
 5197W        W20666  14.530  12.827  15.943 -0.0170 -0.0518  0.2242
 5198W        W20667   9.114   9.846   5.560  0.3408  0.1793  0.0882
 5199W        W20668  16.921   2.412   4.686 -0.1830 -0.0999  0.0179
 5200W        W20669   5.223  10.223   5.159 -0.1854 -0.1542 -0.2176
 5201W        W20670   4.553  15.302   5.528  0.3970  0.1292  0.1079
 5202W        W20671   6.953  16.013   3.782 -0.0186  0.2348  0.2036
 5203W        W20672   1.282   0.017   1.423 -0.0557 -0.1050 -0.0688
 5204W        W20673   7.110  17.022   1.078  0.0984 -0.0038  0.1387
 5205W        W20674   9.908   6.426   0.823  0.1413 -0.0696 -0.1775
 5206W        W20675  15.077  15.683  12.105  0.1412  0.1032 -0.1903
 5207W        W20676  11.889   2.146   4.640  0.3504 -0.0851 -0.0350
 5208W        W20677  13.950  11.440   1.877 -0.1526  0.1332  0.3614
 5209W        W20678  12.890  15.299   0.428 -0.0413 -0.2953 -0.0416
 5210W        W20679   8.149   8.141  15.770  0.0580 -0.0972  0.1599
 5211W        W20680  16.299   5.069   0.154  0.1713  0.1806  0.2248
 5212W        W20681  14.674  16.189   0.054 -0.0297 -0.0906 -0.1400
 5213W        W20682   0.699   7.319   0.780  0.1212  0.2521 -0.1520
 5214W        W20683   2.328   7.758   0.769 -0.0040  0.0861  0.0822
 5215W        W20684   6.339  13.542  12.970 -0.0300  0.0777  0.0917
 5216W        W20685  15.520  17.216  16.360 -0.0198 -0.0791  0.0978
 5217W        W20686   4.719  15.197  14.383 -0.1592 -0.3059 -0.0206
 5218W        W20687   0.835   4.194   1.183  0.3621  0.1666  0.0237
 5219W        W20688  17.023   9.343   1.855 -0.0214 -0.0117 -0.0239
 5220W        W20689  12.298  15.254  14.799 -0.2489 -0.1003 -0.0960
 5221W        W20690   3.244   3.840  14.090 -0.0925  0.0508 -0.0074
 5222W        W20691   9.791  10.260   4.555 -0.4172 -0.0536  0.0715
 5223W        W20692  16.487  13.159   5.221 -0.0270 -0.0022  0.1049
 5224W        W20693   1.068   1.783   4.681 -0.1603 -0.0749  0.1207
 5225W        W20694   8.898   9.973   4.941  0.0733 -0.0280  0.1898
 5226W        W20695   2.067  15.237   3.278 -0.3383 -0.3909  0.1281
 5227W        W20696   0.947   4.157   3.911  0.2090 -0.1318  0.0660
 5228W        W20697  14.537  16.616  13.020  0.1786 -0.0254 -0.1815
 5229W        W20698   4.250   4.229  15.255  0.2315 -0.3196 -0.1414
 5230W        W20699  11.031  12.941  16.435 -0.1539  0.0266 -0.1516
 5231W        W20700   4.954  13.156   4.629  0.3811  0.1944  0.3846
 5232W        W20701  10.411  14.210   2.745  0.1477  0.0959  0.2391
 5233W        W20702   9.922   4.760   4.460  0.2125  0.0210 -0.1650
 5234W        W20703   8.078   5.218   0.566  0.1177  0.2820 -0.0287
 5235W        W20704  16.110  14.969   3.352  0.1972 -0.1152  0.0985
 5236W        W20705  11.828   7.306   2.894 -0.0495  0.1729  0.1833
 5237W        W20706  10.972   3.724   4.365  0.3105 -0.2049  0.1481
 5238W        W20707   5.406   6.810   4.415 -0.3929  0.1808  0.1725
 5239W        W20708   7.672  15.284   0.527 -0.1668  0.0119 -0.0518
 5240W        W20709  14.220  15.738   1.815  0.0592 -0.1405  0.2181
 5241W        W20710   0.775   2.567  10.556  0.0807  0.0412 -0.1680
 5242W        W20711  10.956  12.978  11.844 -0.4114  0.3167  0.2454
 5243W        W20712   3.055   7.880  16.578  0.0673  0.1362  0.3425
 5244W        W20713   7.635  13.712   3.185 -0.1453 -0.0003  0.0614
 5245W        W20714   2.999   0.367  10.496  0.0669 -0.2389  0.0398
 5246W        W20715  10.681   8.078   5.292  0.1893  0.0995  0.0219
 5247W        W20716   2.247   2.700  11.037  0.0836 -0.1959  0.3443
 5248W        W20717  10.950   2.599  15.756  0.1115 -0.3640  0.0811
 5249W        W20718  16.780   7.472   4.262 -0.3812 -0.0949  0.0202
 5250W        W20719  10.374  12.109   3.449 -0.0877 -0.3386  0.0928
 5251W        W20720  17.128  11.555  11.712  0.0158 -0.2342 -0.1602
 5252W        W20721   4.748  12.217   5.772 -0.1734 -0.1004  0.1950
 5253W        W20722   6.171   1.830   2.379  0.3035  0.0308 -0.1126
 5254W        W20723   7.533   0.488   0.679 -0.1246  0.2760 -0.1379
 5255W        W20724   5.267  11.959  15.553 -0.0658  0.2822  0.0330
 5256W        W20725   8.089  14.384   3.719 -0.2914  0.2654  0.0095
 5257W        W20726   3.474   0.891   0.507 -0.2815 -0.1901  0.0132
 5258W        W20727   8.397   9.277   2.970  0.1676 -0.1373  0.2550
 5259W        W20728   4.878  11.348   0.873  0.1409  0.3076  0.3730
 5260W        W20729  12.891   4.687  12.452 -0.0662 -0.3625 -0.0291
 5261W        W20730   9.853   1.222   6.066 -0.0858  0.2864 -0.0624
 5262W        W20731   3.475   6.964  14.223 -0.0630  0.0978  0.2536
 5263W        W20732   1.528   8.569  11.242  0.0895  0.1088 -0.2440
 5264W        W20733   7.416  15.517  15.298 -0.0803 -0.1774 -0.1816
 5265W        W20734   2.499  17.223  13.723  0.0202  0.0590 -0.0282
 5266W        W20735   2.003  13.343  15.679 -0.2334  0.2801 -0.0837
 5267W        W20736   9.463   1.832   3.590  0.0063  0.0948  0.1479
 5268W        W20737   8.909  10.605   3.728  0.1770  0.3350 -0.0848
 5269W        W20738   1.509  16.129  16.187 -0.0828  0.2501  0.0382
 5270W        W20739   6.743  10.705   1.521  0.2327 -0.2596 -0.2043
 5271W        W20740  12.792   5.652   1.585 -0.2722 -0.2207  0.1126
 5272W        W20741   2.953  12.391  12.314  0.0685 -0.0148 -0.0720
 5273W        W20742   5.947  11.739   3.350  0.1953 -0.1164 -0.3636
 5274W        W20743   0.476   5.349   3.814  0.4076 -0.3030  0.1317
 5275W        W20744   1.002   6.066  13.339 -0.1733  0.0600 -0.0778
 5276W        W20745   6.667  13.807  13.305 -0.2581  0.3375 -0.1717
 5277W        W20746   5.548   8.227   4.705  0.2310 -0.0642 -0.1386
 5278W        W20747  10.254  16.294   4.730 -0.1983 -0.1631 -0.1254
 5279W        W20748   5.202   4.529  15.397 -0.2515 -0.0597 -0.1565
 5280W        W20749   8.807  15.729   5.360 -0.2271  0.3141  0.0604
 5281W        W20750  16.872   6.464  14.056  0.2593 -0.0276 -0.0521
 5282W        W20751   4.083  15.940  11.938 -0.1620  0.0344 -0.0887
 5283W        W20752  13.173  10.442  16.089  0.3259 -0.0607 -0.4946
 5284W        W20753   0.809   7.862   1.405  0.3060 -0.1722  0.2289
 5285W        W20754  10.342   4.607   3.120  0.2770  0.1086 -0.0472
 5286W        W20755   5.773  10.416  12.070  0.3196 -0.4740 -0.0173
 5287W        W20756   0.457   3.316   4.094  0.0306 -0.1212 -0.0278
 5288W        W20757   0.845  13.656   4.425  0.0153  0.1062 -0.0880
 5289W        W20758  14.527   2.172   0.049 -0.1738 -0.1185  0.0946
 5290W        W20759   4.712   0.159  15.138 -0.0289 -0.0168  0.0134
 5291W        W20760  10.793  14.188  14.865  0.0618 -0.2483  0.0254
 5292W        W20761   7.521   8.488  14.092 -0.1668 -0.1291 -0.1992
 5293W        W20762  11.527   5.451   2.804  0.0860  0.1613  0.1263
 5294W        W20763   2.912   6.158   2.841 -0.2183  0.1244 -0.1626
 5295W        W20764  12.038   3.089   1.505  0.2595 -0.0090 -0.1178
 5296W        W20765  15.124   5.901   4.853 -0.0839 -0.0683 -0.0894
 5297W        W20766  16.991   9.673  13.737  0.1340 -0.0681  0.1337
 5298W        W20767   8.789   3.807   4.254  0.0111  0.0169 -0.1197
 5299W        W20768  13.179   3.525   2.501  0.2914  0.1761 -0.0907
 5300W        W20769   3.579  15.960  14.137 -0.0551  0.1360  0.1178
 5301W        W20770   2.034  11.465   1.778  0.1255  0.1488  0.1598
 5302W        W20771   8.446  16.612   1.509  0.0942  0.4786  0.1814
 5303W        W20772  12.124   6.198  16.549 -0.0450 -0.0198  0.2215
 5304W        W20773   1.550  11.324   2.781 -0.1357 -0.1073  0.0643
 5305W        W20774   6.735   8.636  14.823 -0.0684  0.0308 -0.0184
 5306W        W20775   3.475   9.392   1.820 -0.2910  0.1269  0.0235
 5307W        W20776   9.887  10.989  12.451 -0.0403 -0.0019  0.0993
 5308W        W20777   1.004  16.624  14.462  0.2725 -0.2289 -0.0287
 5309W        W20778   1.130   6.395  15.086  0.0455 -0.0804  0.2500
 5310W        W20779  17.336   4.663  12.416 -0.2135  0.3632 -0.0113
 5311W        W20780  10.808  15.113  14.830  0.0139  0.0395 -0.3703
 5312W        W20781  16.712   5.572  11.557 -0.1422  0.2840  0.0266
 5313W        W20782   9.903  14.934  16.665 -0.0210  0.2399 -0.1895
 5314W        W20783  11.137   5.640   3.092  0.2625  0.0332 -0.2180
 5315W        W20784  12.404  17.641  13.806  0.0580 -0.2565 -0.1733
 5316W        W20785   3.234  14.024   3.713  0.0059  0.0046 -0.0174
 5317W        W20786  12.200   1.244  13.883 -0.2443  0.2815 -0.1894
 5318W        W20787   3.689   9.838   1.816  0.0972  0.0228  0.1603
 5319W        W20788  13.457  16.565   0.737 -0.2943  0.0129  0.4215
 5320W        W20789   8.064   2.825  11.145 -0.1239 -0.0263 -0.1167
 5321W        W20790  17.174  10.541  10.035  0.1226 -0.1298  0.2307
 5322W        W20791   7.909   8.274   3.979  0.0290 -0.0121 -0.1506
 5323W        W20792  11.380  16.622   3.919  0.1413  0.2389 -0.0777
 5324W        W20793  13.277  11.201  15.012  0.1140 -0.2411  0.0376
 5325W        W20794  15.922   9.959   0.705 -0.1501  0.2288 -0.0199
 5326W        W20795  16.809   3.986  16.487  0.1547  0.0195  0.4212
 5327W        W20796   5.099  12.413  16.797  0.0196 -0.3287  0.1024
 5328W        W20797  15.465  17.607  13.570 -0.3429 -0.0224  0.2148
 5329W        W20798   8.915   0.248  13.703  0.1724 -0.2033 -0.0960
 5330W        W20799   3.215  12.228  14.635  0.1091 -0.2119  0.0324
 5331W        W20800   5.521   3.402   4.876  0.1600  0.2164 -0.1956
 5332W        W20801   2.543   8.595  14.466  0.0081 -0.0617 -0.2815
 5333W        W20802   4.290  16.617   3.468  0.0205 -0.0471  0.0399
 5334W        W20803  12.662  12.291   2.623 -0.1118  0.0669  0.0242
 5335W        W20804  10.729   9.644  15.975  0.0965  0.0897 -0.0789
 5336W        W20805   6.273  16.398  16.212  0.1653 -0.2337  0.2012
 5337W        W20806   7.080  13.655   5.428 -0.3650  0.2320  0.1683
 5338W        W20807   4.767   0.476  11.341  0.2388  0.1420  0.1465
 5339W        W20808   3.488   8.254   2.418 -0.1527  0.1273 -0.0283
 5340W        W20809  12.535   5.545  14.984 -0.1575 -0.4255 -0.2545
 5341W        W20810  10.131   9.176  14.845 -0.0623 -0.3951 -0.2237
 5342W        W20811   3.366  11.540  14.023 -0.3129 -0.0084 -0.2534
 5343W        W20812   1.176  16.869  12.055  0.0721  0.0580  0.1083
 5344W        W20813   5.222   2.766   5.639 -0.1206  0.1807  0.1384
 5345W        W20814   2.756   3.067  13.442  0.0217 -0.0534 -0.1464
 5346W        W20815   7.300   9.448   2.300 -0.1115 -0.2920 -0.0485
 5347W        W20816  16.925   2.754   3.807 -0.0760  0.1931  0.2024
 5348W        W20817   0.073   6.592  15.520  0.0919  0.0344 -0.1340
 5349W        W20818  16.113   6.771   3.352 -0.0412 -0.3259  0.1789
 5350W        W20819  12.153   5.114  15.075 -0.1788 -0.1648  0.0727
 5351W        W20820  15.532   8.815  16.070  0.1113 -0.0192  0.0708
 5352W        W20821  12.580   9.412   4.526 -0.1736 -0.0719  0.1124
 5353W        W20822  16.348  14.314   4.994  0.1197 -0.0927 -0.0216
 5354W        W20823   2.819   1.806  13.006  0.1473  0.0069 -0.0699
 5355W        W20824   7.627   3.046   5.232 -0.3175  0.1581 -0.1130
 5356W        W20825  14.175   0.350   0.169  0.0638  0.0577  0.0185
 5357W        W20826   7.710   0.886   1.451 -0.1822 -0.2628  0.1057
 5358W        W20827   1.549  10.171  15.092 -0.0316  0.0306  0.1098
 5359W        W20828  13.081   4.874   2.277  0.1773  0.0037 -0.0049
 5360W        W20829   9.975   0.375  13.998  0.1615  0.0329 -0.2164
 5361W        W20830  11.850   8.192   5.748 -0.3014  0.0009  0.1655
 5362W        W20831  12.117   5.331  15.837  0.2408  0.1242  0.0182
 5363W        W20832  13.966   1.656   3.298 -0.2892 -0.2164  0.2065
 5364W        W20833  16.896  16.642  14.361 -0.0214  0.0600 -0.0013
 5365W        W20834  12.895   0.214  16.228  0.1365 -0.0876 -0.0682
 5366W        W20835   5.543   4.917   5.439  0.1736 -0.1582  0.0017
 5367W        W20836  12.042   0.225  16.346 -0.0333  0.5317 -0.1549
 5368W        W20837   5.222  12.490   3.186  0.2412 -0.2052 -0.0655
 5369W        W20838   2.053  14.751   3.423  0.1633 -0.2823  0.2743
 5370W        W20839   3.296  17.668  11.664  0.1115  0.1875  0.0457
 5371W        W20840   3.450  11.330  14.874  0.1736 -0.0005 -0.0073
 5372W        W20841  16.463   9.815   4.955 -0.1357 -0.3089  0.1037
 5373W        W20842   6.011   4.954   3.575 -0.0189 -0.0878 -0.2616
 5374W        W20843  16.168  11.411   4.765  0.1101 -0.1286 -0.0257
 5375W        W20844   8.245   7.713  12.413 -0.0812 -0.1679 -0.3323
 5376W        W20845   0.499  10.645   4.636 -0.2745  0.1107 -0.0183
 5377W        W20846  16.850  14.050  12.217 -0.0959 -0.2895 -0.3675
 5378W        W20847  11.218  16.368  14.840 -0.2064 -0.4228  0.2205
 5379W        W20848  15.741  14.900  16.675  0.0373  0.0660  0.2564
 5380W        W20849  12.429   0.762  14.487  0.2102  0.0423  0.1644
 5381W        W20850   9.662  14.622  12.820  0.0508 -0.1276 -0.0665
 5382W        W20851  17.016   8.362   4.543  0.0237 -0.4354 -0.1800
 5383W        W20852  14.433   8.622   0.848 -0.0847  0.3035 -0.1123
 5384W        W20853   6.665   1.032  11.779 -0.1888 -0.0877  0.2129
 5385W        W20854   6.861  17.318   3.936  0.0395  0.0969  0.1663
 5386W        W20855  15.688   3.355   1.467 -0.1817  0.2328  0.0839
 5387W        W20856   8.664  16.399   3.415 -0.0292 -0.3150  0.1262
 5388W        W20857  12.967   9.908  15.301  0.0679  0.1052  0.0073
 5389W        W20858  13.028   0.070  12.117  0.1110  0.0314 -0.2203
 5390W        W20859   7.639   5.611  15.520  0.1250 -0.1338  0.2202
 5391W        W20860  11.295   0.679   5.152 -0.1501 -0.1788 -0.1571
 5392W        W20861   6.230   9.693   0.136 -0.1608  0.1315 -0.1510
 5393W        W20862   9.245  15.409   5.287 -0.0646  0.2554 -0.0646
 5394W        W20863   7.391  13.832   1.116  0.1669  0.0826  0.0461
 5395W        W20864   4.743   0.359  14.582 -0.0329  0.1080  0.2671
 5396W        W20865  12.337  15.148   1.504 -0.2979 -0.2210 -0.1156
 5397W        W20866   8.629  15.612  12.372  0.2256 -0.3939 -0.0605
 5398W        W20867  16.771  13.722  11.268 -0.0250 -0.1737  0.1836
 5399W        W20868   7.770  11.108  11.769 -0.1084 -0.0362  0.1048
 5400W        W20869  12.945   0.477   5.299  0.0191 -0.2844  0.0360
 5401W        W20870   9.454  10.646  15.797 -0.1267  0.1205 -0.0098
 5402W        W20871   6.862   3.737  13.756  0.0256  0.0366 -0.1921
 5403W        W20872   1.114   9.365   0.170 -0.0073  0.0046 -0.1602
 5404W        W20873   5.382  13.274   4.859 -0.0419  0.2142  0.0081
 5405W        W20874   9.589   1.093  15.567 -0.1601 -0.0580 -0.1124
 5406W        W20875  12.870   7.211  16.238  0.1633 -0.1308 -0.1111
 5407W        W20876   6.741  15.799   4.644  0.1844 -0.0821 -0.0441
 5408W        W20877  10.930   7.952  13.476 -0.0649  0.0770 -0.1679
 5409W        W20878   9.232  10.800  13.843  0.1741 -0.0606  0.0720
 5410W        W20879   3.885   5.184  14.471 -0.0646 -0.0059 -0.1401
 5411W        W20880   2.603  10.212   0.876 -0.1684  0.1672 -0.0454
 5412W        W20881  11.353  12.707   3.464  0.0127 -0.0535  0.1529
 5413W        W20882   7.513  10.854   2.118  0.1705  0.0339 -0.2710
 5414W        W20883   4.837   5.950  15.417  0.0693  0.2603  0.0448
 5415W        W20884   4.262  11.504   3.325  0.2124  0.0579  0.0939
 5416W        W20885   5.723  11.107   5.428 -0.0173 -0.1922 -0.0614
 5417W        W20886   0.753   2.757   0.477  0.0383  0.1332  0.0648
 5418W        W20887  13.671   4.589  13.859  0.1585 -0.1958 -0.0743
 5419W        W20888   0.834  11.170   1.485  0.3318  0.2212 -0.0915
 5420W        W20889   5.630  14.289   0.909 -0.3119  0.0736  0.0563
 5421W        W20890   1.172   3.458  10.891  0.0085  0.0176 -0.1074
 5422W        W20891   7.196   1.377   1.405  0.0550  0.0480 -0.0991
 5423W        W20892  16.566  15.029  14.120 -0.4899 -0.1381  0.1309
 5424W        W20893  14.322   0.687  16.647  0.1174 -0.0699 -0.1332
 5425W        W20894  13.354  13.706  12.798 -0.1832  0.0505  0.4494
 5426W        W20895  12.043   5.347  16.689 -0.1204  0.1714 -0.2098
 5427W        W20896   2.255  10.970  15.007  0.0503  0.0465  0.3784
 5428W        W20897   8.207  15.270   6.236  0.0062 -0.0695 -0.1828
 5429W        W20898   3.649   1.228  14.436  0.0167  0.2204  0.0719
 5430W        W20899  17.459  15.109  15.188 -0.0227 -0.1566  0.1118
 5431W        W20900   9.220   6.077  15.710 -0.2659 -0.2352  0.1994
 5432W        W20901  10.319   1.185   0.357 -0.1066  0.0571 -0.3284
 5433W        W20902  16.745  12.283  11.244  0.2052  0.1327 -0.0442
 5434W        W20903   2.473   4.214   1.748  0.1603  0.0799 -0.1251
 5435W        W20904   0.352  17.329  16.536 -0.0153  0.0296 -0.0022
 5436W        W20905  17.256  15.536  12.779  0.2058  0.0233  0.0340
 5437W        W20906  10.574   2.765   6.545 -0.3128 -0.0331  0.1261
 5438W        W20907   4.658   8.703   1.868 -0.4998  0.1663  0.4199
 5439W        W20908  15.006   8.115  12.552  0.1939 -0.1385  0.3048
 5440W        W20909  11.370  14.675  12.533  0.3943  0.0191 -0.0863
 5441W        W20910  10.807   7.610  14.288 -0.1626 -0.0872 -0.1089
 5442W        W20911   3.963   8.887  14.680  0.2086  0.2649 -0.1221
 5443W        W20912  10.200  12.803   2.217  0.2395  0.0652  0.1023
 5444W        W20913  14.573  16.356  12.224  0.2637 -0.1372  0.1887
 5445W        W20914   2.190   0.672  15.623 -0.1619 -0.0810 -0.1843
 5446W        W20915  17.730  15.179   1.311  0.1700  0.2653  0.0527
 5447W        W20916  13.623  15.449   4.011 -0.0577  0.2472  0.0421
 5448W        W20917   8.792   9.852   0.516  0.0913  0.1034  0.0352
 5449W        W20918   8.617   4.286  15.606  0.1000 -0.0985  0.0470
 5450W        W20919  14.771  16.693  16.837  0.1347 -0.0453  0.3304
 5451W        W20920   6.471  15.743  12.153 -0.1967  0.1620 -0.1878
 5452W        W20921  14.639   4.456   4.256  0.0788  0.1753 -0.0353
 5453W        W20922   9.618  15.412  13.334 -0.1263  0.1434  0.0051
 5454W        W20923   5.988   3.389   2.431 -0.3039  0.2882  0.1729
 5455W        W20924  13.467   4.913  16.491  0.0876  0.1696 -0.1312
 5456W        W20925   4.722   4.913  15.184  0.1519 -0.0465  0.3269
 5457W        W20926   2.123  16.463   1.936  0.2502  0.1376  0.1861
 5458W        W20927  12.321  11.886  14.325 -0.3073  0.0342  0.3380
 5459W        W20928   3.304   0.521  12.416  0.0928 -0.0057 -0.2932
 5460W        W20929  12.562   5.872   3.770  0.4187  0.0441 -0.0573
 5461W        W20930   6.867   5.678   0.567  0.0048 -0.1906 -0.0435
 5462W        W20931  13.103   8.191  11.392 -0.0306 -0.4249 -0.0246
 5463W        W20932  14.781   3.367   0.573 -0.0709 -0.1788  0.0288
 5464W        W20933   5.774   5.622  16.104  0.1236 -0.1521  0.2064
 5465W        W20934   6.467   6.405   4.436 -0.0898  0.2973 -0.1508
 5466W        W20935   4.491  14.970  14.770 -0.1253  0.2547  0.1877
 5467W        W20936  13.578   4.784  15.265  0.1084 -0.1283 -0.4760
 5468W        W20937  11.982   1.094  14.297 -0.1156  0.0592  0.0247
 5469W        W20938   8.909   0.083  14.940  0.1670 -0.2964  0.1240
 5470W        W20939  13.431   2.439  13.094  0.0476 -0.1448  0.4008
 5471W        W20940   4.397  16.961   3.828 -0.0810 -0.3280 -0.0145
 5472W        W20941  13.309   9.306   5.480 -0.0533  0.0951  0.0827
 5473W        W20942   3.536   5.215  14.852  0.0748  0.2024 -0.3549
 5474W        W20943  10.591  13.538  11.429  0.3331  0.1625 -0.2072
 5475W        W20944   6.941  16.702   5.857  0.1328  0.1214 -0.0166
 5476W        W20945  13.700   1.346   1.746 -0.0729 -0.3269 -0.0910
 5477W        W20946   5.079  11.080   4.830 -0.3662 -0.0885  0.0582
 5478W        W20947   3.743  13.839   0.991  0.0370 -0.1494  0.1938
 5479W        W20948   4.608   1.670  12.815 -0.2048  0.2205  0.0243
 5480W        W20949   3.461   2.951   1.803 -0.1077 -0.0607  0.4146
 5481W        W20950   1.443   6.610  15.887  0.0931  0.1478  0.1290
 5482W        W20951   5.767   7.913   3.410 -0.2743  0.1462 -0.0438
 5483W        W20952   4.484  10.536  12.734  0.1424 -0.1220  0.1346
 5484W        W20953  12.180   3.081   5.940  0.0841  0.0642 -0.1068
 5485W        W20954   7.303   1.068   4.848 -0.0673 -0.3434 -0.0895
 5486W        W20955  14.432  16.869   2.037 -0.2787 -0.2725  0.3474
 5487W        W20956  12.504  11.198  11.894  0.1804  0.3514 -0.0911
 5488W        W20957   1.285  12.541  16.468  0.0541 -0.2383  0.1441
 5489W        W20958  14.503   2.156   3.867  0.0093 -0.1292 -0.0687
 5490W        W20959  12.467   2.274  14.728 -0.1963 -0.0182  0.4336
 5491W        W20960  16.616   8.323  15.295 -0.2129  0.0003 -0.0026
 5492W        W20961  12.955   6.864   1.527 -0.0512 -0.0371 -0.1813
 5493W        W20962  16.426  16.960   0.698  0.6043 -0.0735  0.2233
 5494W        W20963   4.375  10.779   3.086  0.1008 -0.1341 -0.2415
 5495W        W20964  16.176  14.118   5.616  0.0140 -0.2159 -0.2035
 5496W        W20965   4.426  12.588  13.949 -0.0766  0.0906  0.5518
 5497W        W20966   8.011   4.219  15.093  0.1149 -0.1779 -0.0726
 5498W        W20967  13.564   4.659   1.481  0.2804  0.0247  0.1119
 5499W        W20968   5.582   1.427  15.493 -0.0298 -0.3643  0.0353
 5500W        W20969   1.024  11.356  12.430 -0.0112 -0.1511  0.0676
 5501W        W20970   6.465   2.911   2.640  0.0190 -0.0398 -0.1383
 5502W        W20971   7.438   2.234   2.226 -0.1998  0.3611  0.1117
 5503W        W20972  15.947   3.127  11.592 -0.1642  0.1415  0.1266
 5504W        W20973  15.562   0.589  11.979  0.1040 -0.1879  0.1528
 5505W        W20974   3.777  13.124  15.502 -0.0861  0.0615 -0.1158
 5506W        W20975   8.565   7.794   5.323  0.0511  0.1781  0.1193
 5507W        W20976  10.762   5.165  16.263 -0.1244 -0.2043 -0.0186
 5508W        W20977   7.519  17.304  12.622 -0.0726 -0.1370  0.0693
 5509W        W20978  13.636   4.144   3.659 -0.1142  0.0018 -0.3105
 5510W        W20979  16.700   2.024   4.936 -0.3257  0.0642  0.0978
 5511W        W20980   0.951  12.888  14.053 -0.2013 -0.0542  0.1866
 5512W        W20981   0.920   8.723  12.613 -0.3382 -0.0065  0.1835
 5513W        W20982  14.357   2.177  15.724  0.1640 -0.0339  0.2042
 5514W        W20983   1.643  14.267  14.203 -0.3533  0.1328 -0.2491
 5515W        W20984   2.394   6.968  10.802 -0.1357 -0.0072 -0.1281
 5516W        W20985   8.396  11.749  14.050 -0.3123  0.2796  0.1467
 5517W        W20986   3.698  15.157  14.393 -0.2156  0.1437 -0.0340
 5518W        W20987   2.590   2.409  14.584 -0.3310  0.1434 -0.1265
 5519W        W20988   6.594   7.160   1.510  0.0288 -0.2088  0.1087
 5520W        W20989   8.740  10.062  16.402 -0.3147 -0.3159 -0.0089
 5521W        W20990  13.915  15.039  12.373  0.0533 -0.0608  0.0562
 5522W        W20991  14.058  16.327  16.170 -0.0023 -0.1333  0.0920
 5523W        W20992   9.532  16.197  16.665  0.1673  0.2861  0.0165
 5524W        W20993   6.153  10.365  15.066  0.0503  0.0487  0.1721
 5525W        W20994  15.680   9.372  15.900  0.0978 -0.0747  0.3124
 5526W        W20995  17.590   0.900  12.695  0.0832 -0.1086 -0.2149
 5527W        W20996  13.304  14.149  16.144  0.1821  0.4669 -0.4170
 5528W        W20997   1.624  15.484   3.328  0.0285 -0.3439  0.3055
 5529W        W20998   3.464  10.625   0.420 -0.2562 -0.2432  0.1403
 5530W        W20999   9.263   9.856   1.566  0.1839  0.1560 -0.1359
 5531W        W21000  11.426  10.307  16.683  0.0500 -0.1081  0.2704
 5532W        W21001  12.984   3.974  11.254  0.0186  0.4996  0.0979
 5533W        W21002  12.337   9.678   3.325  0.2636 -0.1859 -0.4160
 5534W        W21003   6.486   1.445   1.545 -0.3098  0.2977  0.3830
 5535W        W21004   5.617   2.685   2.078  0.0834 -0.0027  0.1394
 5536W        W21005  13.977  13.614   5.370  0.0715 -0.0981 -0.0580
 5537W        W21006  17.410   0.121  10.333 -0.2615  0.0215  0.1297
 5538W        W21007  13.949   8.835  13.239 -0.2279 -0.0151 -0.1568
 5539W        W21008   3.258  12.008   1.611  0.1783  0.0537  0.3366
 5540W        W21009  10.612   9.191  15.879  0.3062 -0.0979 -0.0815
 5541W        W21010   2.216   8.894   4.473 -0.1314 -0.3530  0.0551
 5542W        W21011  15.028   0.868   5.602  0.0940  0.1089  0.3422
 5543W        W21012   9.558   1.748  15.935 -0.1959 -0.0243 -0.1183
 5544W        W21013  15.020  15.264   0.979  0.0858  0.1441 -0.2471
 5545W        W21014   9.430  12.843  13.126 -0.2420  0.3321 -0.0218
 5546W        W21015  14.039   9.536  15.073  0.1092 -0.1463 -0.0183
 5547W        W21016  15.357   4.379  16.502  0.0755 -0.1276  0.1991
 5548W        W21017   1.420   0.792   0.518  0.2563  0.2395  0.0991
 5549W        W21018   2.598   1.549  12.163 -0.2193  0.0605 -0.1238
 5550W        W21019   3.607  17.343   1.302  0.1520 -0.2236  0.1297
 5551W        W21020  13.250  13.486  15.905 -0.0409  0.1764  0.1263
 5552W        W21021   6.185  12.855   0.503  0.1974 -0.1517 -0.0184
 5553W        W21022  10.196   0.713  14.782  0.0896 -0.4472 -0.0780
 5554W        W21023  10.576   3.602   2.215 -0.4026 -0.0295  0.2653
 5555W        W21024  10.626   9.889  12.179  0.2309 -0.2030 -0.1004
 5556W        W21025   0.533  16.882   2.806 -0.1474  0.0800  0.0814
 5557W        W21026   6.788  17.175   5.473  0.0481 -0.0101 -0.0382
 5558W        W21027  10.779   3.043  15.636 -0.1527 -0.0041  0.2400
 5559W        W21028   8.406   0.239   2.876 -0.0030 -0.0166  0.1397
 5560W        W21029  12.583  16.892   2.410  0.0016 -0.1723  0.0921
 5561W        W21030   0.988   9.328   4.159  0.1744  0.1778  0.1837
 5562W        W21031   5.700   2.654   5.322 -0.0758 -0.0874  0.3187
 5563W        W21032   3.082   4.623   6.178 -0.1049  0.5560 -0.2839
 5564W        W21033  11.991   0.542   4.753 -0.1213 -0.0856 -0.1070
 5565W        W21034   6.570   6.115   2.131  0.3027  0.0876  0.2273
 5566W        W21035   4.493   1.185  15.009  0.0407 -0.1435 -0.1318
 5567W        W21036   2.584   9.396  14.161  0.0233 -0.0334  0.0745
 5568W        W21037   1.764   4.900  13.182  0.0615 -0.0106 -0.2049
 5569W        W21038   1.010  10.266  10.621 -0.2801 -0.1584  0.0468
 5570W        W21039  16.571  15.272   3.374  0.0618  0.0426  0.1553
 5571W        W21040   9.752   3.721  14.962  0.2125  0.0757 -0.0438
 5572W        W21041   0.563   3.504  11.182 -0.1043 -0.3171  0.2529
 5573W        W21042   1.214  14.083  11.537  0.0600 -0.1266  0.1313
 5574W        W21043   8.524  13.948   5.253  0.1283 -0.0884  0.0501
 5575W        W21044   8.947  10.089   4.179  0.1166 -0.3628 -0.1251
 5576W        W21045   9.992  15.775   1.447 -0.0195  0.2307 -0.3652
 5577W        W21046  11.035  16.535  12.716  0.0767 -0.1710 -0.0585
 5578W        W21047   4.769  17.708   1.847  0.2004  0.0561  0.2364
 5579W        W21048  14.012  11.067   3.933  0.1065 -0.1159  0.1819
 5580W        W21049   0.264  16.570  15.114 -0.1025 -0.1809 -0.1746
 5581W        W21050   0.357   2.626  11.492  0.0932  0.0771  0.1629
 5582W        W21051   8.427  13.373   3.662  0.1885 -0.2027  0.1440
 5583W        W21052  10.757  11.016  12.000 -0.0001  0.1753  0.1174
 5584W        W21053   1.631   2.293   2.963  0.1194 -0.3391 -0.1593
 5585W        W21054   9.129   8.357  11.961  0.1533 -0.1013  0.1963
 5586W        W21055  13.881  12.351  13.479  0.0287  0.0157 -0.0159
 5587W        W21056  10.316   9.376  16.344 -0.0858 -0.2146  0.0453
 5588W        W21057   0.740  11.586   0.566  0.2601  0.1191 -0.0448
 5589W        W21058  15.111  12.932  13.338  0.1557  0.1162 -0.1251
 5590W        W21059   2.003  13.916  13.398  0.2808 -0.0141  0.1422
 5591W        W21060  17.286  17.558   5.971  0.1981 -0.0719 -0.3371
 5592W        W21061   4.408   0.392  11.719  0.1204 -0.0808 -0.1229
 5593W        W21062   3.924  12.626   4.947 -0.3706  0.1644 -0.0575
 5594W        W21063  11.380   5.068  11.732 -0.2058  0.1239  0.0270
 5595W        W21064   3.099  17.643   4.070  0.0197  0.1686 -0.1419
 5596W        W21065   4.731   2.852  13.750 -0.0085  0.3757 -0.2164
 5597W        W21066   3.430  11.426  11.641 -0.0526 -0.1218  0.2553
 5598W        W21067   2.221  13.010   5.133  0.0107 -0.0047 -0.2061
 5599W        W21068   4.941   9.103   2.246  0.1289  0.2248 -0.0470
 5600W        W21069   0.054   9.052  11.288  0.3835 -0.0144 -0.0121
 5601W        W21070  11.725  12.227  14.911  0.2644  0.3561  0.3472
 5602W        W21071  16.857  13.956   1.874  0.1330 -0.0350  0.1936
 5603W        W21072  13.843  15.472   5.057 -0.1771 -0.2790  0.0746
 5604W        W21073   7.175  17.755  12.877  0.0524 -0.0904 -0.1276
 5605W        W21074   1.147   9.681   1.277 -0.0624  0.1978  0.2873
 5606W        W21075  17.251   4.048  12.839  0.2813  0.0872 -0.1330
 5607W        W21076   8.120   0.542  14.831 -0.2819 -0.1480 -0.2460
 5608W        W21077   3.484   7.533  12.621 -0.3549 -0.1498 -0.1000
 5609W        W21078  17.418   9.832  16.720  0.0711  0.3220 -0.0499
 5610W        W21079  14.970  12.766  16.322  0.3532 -0.1010 -0.0673
 5611W        W21080   6.023   9.142  11.940 -0.1254 -0.2485  0.0755
 5612W        W21081  13.162  12.164  16.779 -0.1446 -0.0004 -0.1196
 5613W        W21082  17.571  11.684   0.078  0.0856  0.2129 -0.0266
 5614W        W21083  12.957   7.937   2.109 -0.0222  0.0053  0.0944
 5615W        W21084  13.881  15.606  14.472  0.0325 -0.0714 -0.3193
 5616W        W21085  11.393  11.567   5.097 -0.1458  0.0045  0.2281
 5617W        W21086  15.424   7.116   1.217 -0.2665  0.0522 -0.1883
 5618W        W21087   3.452  12.794   4.242 -0.1899  0.2597 -0.0281
 5619W        W21088  15.042   9.976  10.320 -0.1549  0.0623 -0.1953
 5620W        W21089   6.826   9.546  16.474  0.0858  0.2001  0.1069
 5621W        W21090   8.397  12.396  16.200  0.1343 -0.1845  0.1344
 5622W        W21091   0.026   7.983  14.177 -0.1345  0.1181  0.4853
 5623W        W21092   5.182  11.564  16.479 -0.2040 -0.1497 -0.1337
 5624W        W21093   8.435   9.405  12.819  0.1228  0.1369  0.1040
 5625W        W21094   6.840   7.758   4.150 -0.1415 -0.4216 -0.0677
 5626W        W21095   8.868  16.705   4.703 -0.0405 -0.1752  0.0984
 5627W        W21096  16.381   8.548  11.985  0.0012  0.0526  0.0048
 5628W        W21097   1.703   1.585  16.238 -0.0229  0.4746  0.0938
 5629W        W21098  11.614   1.265   3.154  0.1306  0.0857 -0.1979
 5630W        W21099   8.029  14.604   5.671 -0.0680 -0.0995  0.1366
 5631W        W21100   2.568  10.607   3.606  0.0978 -0.0071  0.0140
 5632W        W21101   4.808   3.823  11.851 -0.0812 -0.0910  0.2561
 5633W        W21102   0.166   6.416   2.910 -0.2543 -0.0964 -0.2822
 5634W        W21103   2.537   8.677  15.465  0.0602  0.3550  0.2659
 5635W        W21104  15.233   8.704   1.454 -0.0260 -0.0175  0.2917
 5636W        W21105   0.425  16.356   1.328 -0.1398  0.0807 -0.2003
 5637W        W21106   1.926  14.505   2.174 -0.0063 -0.2900 -0.2851
 5638W        W21107   8.669  12.917   3.773 -0.0274 -0.2970  0.1360
 5639W        W21108   4.558  12.619  13.443  0.1278  0.1030 -0.1731
 5640W        W21109   9.549   8.294   5.525 -0.2478 -0.2138  0.0075
 5641W        W21110   0.068   2.013   3.630  0.0594  0.0069  0.1078
 5642W        W21111   5.129   9.223  12.867  0.2157  0.2246 -0.1492
 5643W        W21112   1.479  14.295   4.613 -0.0960 -0.2866 -0.0366
 5644W        W21113  17.655   0.148  12.698 -0.0902  0.0297 -0.1014
 5645W        W21114   8.674  10.612   5.482  0.4162 -0.1105 -0.0856
 5646W        W21115  12.708   9.016   2.204 -0.0681  0.2371 -0.1480
 5647W        W21116  14.332  15.963  16.454  0.0316 -0.3416  0.0595
 5648W        W21117  15.986   0.177   5.130 -0.1358  0.0244  0.0044
 5649W        W21118   0.155  11.449  10.999  0.0876  0.1822 -0.1349
 5650W        W21119   0.095  10.142  14.142 -0.0745 -0.2001 -0.1353
 5651W        W21120   7.586  12.352  12.707  0.3574 -0.0348 -0.1591
 5652W        W21121   3.352  13.838   1.903 -0.0724  0.2681 -0.0222
 5653W        W21122  12.605   0.295  14.545  0.0668  0.2867 -0.1912
 5654W        W21123   3.295  14.937   2.086  0.0184 -0.0369 -0.2438
 5655W        W21124  14.626  15.126  11.023  0.0517  0.3151  0.0594
 5656W        W21125   2.329  12.325  11.100 -0.0920  0.0020 -0.0825
 5657W        W21126   9.675  11.609  15.749 -0.0831 -0.2275  0.2604
 5658W        W21127  16.548  12.837  12.394 -0.2385  0.0947  0.0264
 5659W        W21128   4.977   6.618   4.189  0.3648  0.1535 -0.1715
 5660W        W21129   9.431  13.498  16.401  0.0634  0.1807  0.1956
 5661W        W21130  13.030   7.970   1.462  0.2595  0.1673  0.1052
 5662W        W21131  14.082   1.319  10.606 -0.1869  0.3859 -0.1051
 5663W        W21132   2.318   1.260  13.391 -0.3428  0.1263 -0.2018
 5664W        W21133   3.968   9.402  16.367  0.1415  0.3257  0.1222
 5665W        W21134   4.065   4.201   3.576  0.1525  0.5047 -0.0925
 5666W        W21135   8.660   8.329  13.986  0.3078  0.2585  0.0610
 5667W        W21136   4.080   3.398  14.321 -0.0426 -0.0021  0.0016
 5668W        W21137   2.309   1.409   4.348 -0.0052  0.1195 -0.0147
 5669W        W21138   6.151  15.566  14.701 -0.0712 -0.0034  0.1675
 5670W        W21139  14.930   9.792  12.077 -0.0986  0.1175  0.0781
 5671W        W21140   2.606  16.214   5.141  0.0221 -0.0124  0.1354
 5672W        W21141  17.195   0.608  15.474  0.1310 -0.1997  0.2693
 5673W        W21142  13.795   5.808  15.399 -0.1482  0.4229 -0.0485
 5674W        W21143   9.139   9.058   5.603 -0.1059  0.1731  0.1112
 5675W        W21144   8.911   4.260  13.460  0.0370  0.0008 -0.1533
 5676W        W21145   1.368  13.443  14.741 -0.1816 -0.1946 -0.2004
 5677W        W21146   5.902   0.149   1.226 -0.2002  0.0174  0.0495
 5678W        W21147   9.716  16.891  14.023  0.0673  0.2677 -0.2805
 5679W        W21148  16.730   9.619   4.309 -0.0735 -0.1630  0.0249
 5680W        W21149  11.502   5.465   0.753  0.1202 -0.3438 -0.0141
 5681W        W21150   5.266  16.486   1.157 -0.1005 -0.0323 -0.0596
 5682W        W21151   3.741   6.429   1.481  0.3060 -0.1317 -0.2856
 5683W        W21152  14.344  16.948  11.423  0.0352 -0.0519  0.3815
 5684W        W21153   6.706   4.802  16.462 -0.1294 -0.1192  0.1214
 5685W        W21154   6.424   5.063  15.593  0.1176  0.2432  0.1164
 5686W        W21155  16.360  11.409  10.956  0.0541  0.0242 -0.1018
 5687W        W21156  16.176  16.214  13.237 -0.0396  0.1133 -0.0421
 5688W        W21157   5.537   2.264  13.838 -0.0959 -0.2663 -0.0940
 5689W        W21158   2.272  12.703   0.188 -0.0748  0.2385 -0.0036
 5690W        W21159  13.688   5.496   2.636 -0.0274 -0.2891 -0.1345
 5691W        W21160  13.610   6.222  16.763 -0.2502 -0.0198 -0.2585
 5692W        W21161   2.113   3.646  13.329  0.0942  0.0529 -0.0283
 5693W        W21162   7.418   2.491  14.885  0.0771  0.0971  0.0471
 5694W        W21163   2.813   7.855  16.116  0.0467  0.4650  0.0754
 5695W        W21164   1.675  14.300   1.727  0.0511 -0.0804  0.1391
 5696W        W21165   6.620  10.635   4.404 -0.0774 -0.0658  0.3767
 5697W        W21166   9.539  14.410  16.196  0.2180 -0.0868 -0.3594
 5698W        W21167   3.321   5.578   2.535  0.0137 -0.0462  0.0721
 5699W        W21168  14.985  15.678   4.365  0.1282 -0.2173  0.2094
 5700W        W21169   8.932   8.228   0.369  0.2185  0.1224  0.0470
 5701W        W21170   4.433   4.276   5.504 -0.2997  0.2224  0.3440
 5702W        W21171   2.815  15.013   2.852 -0.3667 -0.0036 -0.1147
 5703W        W21172   7.658   7.772  12.376 -0.0056  0.0287  0.1686
 5704W        W21173   2.288   1.617   1.517  0.1104 -0.0020  0.1649
 5705W        W21174  16.777   5.833  16.701  0.2594 -0.2717 -0.1798
 5706W        W21175   8.385  17.320   3.874  0.0992  0.0473  0.0292
 5707W        W21176   8.387  11.111   1.356 -0.2838 -0.0991  0.2685
 5708W        W21177  13.532  10.800  14.849  0.1745 -0.0404 -0.0624
 5709W        W21178   9.578  14.214   6.009  0.3962  0.0663  0.0981
 5710W        W21179   6.585  14.762  13.393  0.1033  0.1368 -0.3339
 5711W        W21180  11.687   1.362   5.549 -0.0440 -0.0946 -0.0779
 5712W        W21181   3.688   2.981  11.939 -0.0401 -0.3594 -0.0071
 5713W        W21182   2.625  10.564  10.166  0.1852 -0.5505 -0.1804
 5714W        W21183  16.954   9.757  15.755  0.0629  0.1561 -0.2496
 5715W        W21184  13.501   7.824  15.361 -0.0446 -0.0473  0.0741
 5716W        W21185  17.551  16.575  13.495  0.0952  0.1726 -0.1745
 5717W        W21186   4.617  12.261   3.897 -0.1430  0.1040 -0.0021
 5718W        W21187  10.425   0.181  12.806 -0.2405  0.0201 -0.0766
 5719W        W21188   1.061   9.201  11.516 -0.3006  0.0029 -0.4396
 5720W        W21189  12.822  15.242   4.463 -0.0848 -0.1222  0.1036
 5721W        W21190   7.681  14.153   3.639  0.0807 -0.3133  0.0975
 5722W        W21191   2.100   4.308   4.264 -0.2175 -0.1058 -0.1664
 5723W        W21192  14.156  17.332  10.592  0.2740  0.0253  0.1742
 5724W        W21193  12.519   7.145   1.652  0.0618  0.0490  0.1358
 5725W        W21194  15.799  10.608   4.479 -0.1963  0.1072 -0.1386
 5726W        W21195  14.750   0.626   6.023  0.3517  0.0674 -0.0189
 5727W        W21196   2.318   2.605  12.736 -0.5016 -0.0078 -0.1910
 5728W        W21197  12.843   4.729   4.920  0.1789  0.1296  0.2743
 5729W        W21198   2.419  13.157   1.281 -0.2200  0.1587 -0.1293
 5730W        W21199   5.923  10.662  14.704  0.1530  0.1548 -0.0146
 5731W        W21200  13.985  16.420  12.232  0.2179 -0.0106 -0.0201
 5732W        W21201  16.055  11.966  16.106  0.2680  0.1091 -0.0159
 5733W        W21202   7.705  14.419   4.088  0.1218  0.1110 -0.1912
 5734W        W21203   9.388  14.485   0.366 -0.6586  0.2156  0.0073
 5735W        W21204   8.213   2.454   5.743 -0.2057  0.0415  0.3227
 5736W        W21205  16.041  16.924   2.383  0.0182  0.3576 -0.0423
 5737W        W21206   9.466  15.249  15.219  0.2809  0.0373 -0.1281
 5738W        W21207   4.605  12.887   4.995  0.0401 -0.0401  0.0864
 5739W        W21208   8.511  15.985  13.234 -0.0944 -0.0232 -0.0846
 5740W        W21209   4.904  12.284  11.446 -0.1572 -0.0347 -0.0577
 5741W        W21210   1.253   4.411   3.105  0.0166  0.1573  0.0891
 5742W        W21211   8.424   2.626  11.603 -0.2060 -0.2243  0.1231
 5743W        W21212   9.617   7.096  13.284  0.0765 -0.4332 -0.1677
 5744W        W21213  14.926   6.195  16.301  0.0074  0.0480  0.1275
 5745W        W21214  14.525   3.961   3.487  0.0478  0.0140  0.0094
 5746W        W21215   8.886   8.979   5.142  0.2295 -0.0698  0.0857
 5747W        W21216  12.568  16.613  12.314  0.3796 -0.0195  0.0229
 5748W        W21217  17.492  14.757  15.955  0.1639 -0.1834  0.2132
 5749W        W21218  12.213  16.376   1.073 -0.1841 -0.0684 -0.0279
 5750W        W21219  17.675  13.894  13.740  0.1393  0.1673  0.0124
 5751W        W21220  17.115   5.041  13.467 -0.0429  0.2047  0.3087
 5752W        W21221  14.657   8.019   1.928 -0.0932  0.1926 -0.0081
 5753W        W21222   3.941   6.931   0.454 -0.2311  0.0097  0.0420
 5754W        W21223   9.386   3.612  11.581  0.0588 -0.0423  0.1248
 5755W        W21224  13.629  12.091  15.288  0.0513  0.3966 -0.1038
 5756W        W21225  17.451   0.454   1.637  0.1779 -0.0446 -0.0809
 5757W        W21226  14.682   5.347  14.489  0.2199  0.2058 -0.0921
 5758W        W21227   5.743   7.465  12.719 -0.4006  0.0906 -0.0533
 5759W        W21228  15.753   6.513  10.828  0.0736  0.5343  0.0045
 5760W        W21229   7.759  14.062  16.424  0.1130 -0.1715  0.1457
 5761W        W21230  13.356   1.769   2.426 -0.1635  0.0479 -0.2389
 5762W        W21231  17.307   5.109  16.474  0.0813  0.4067 -0.0321
 5763W        W21232   0.099  10.748   2.551  0.2977 -0.1365  0.1183
 5764W        W21233  14.122  11.600  16.417  0.1757 -0.0459 -0.1587
 5765W        W21234   6.676  17.295   2.363  0.1816 -0.0885 -0.2017
 5766W        W21235   4.264   3.705   3.623 -0.0566 -0.1371 -0.0919
 5767W        W21236   9.305  13.180  13.919 -0.1375 -0.1288  0.1118
 5768W        W21237  10.019   2.451   2.930  0.2018 -0.1387  0.0239
 5769W        W21238   5.528  14.158  16.091 -0.1586  0.0964  0.0677
 5770W        W21239   2.872   8.844   0.644 -0.3600  0.0186  0.1757
 5771W        W21240   4.293  13.212  14.747  0.3206 -0.0351 -0.1195
 5772W        W21241  11.808  12.792  13.364 -0.0215 -0.0478 -0.0232
 5773W        W21242  16.868   1.772   2.698 -0.0358  0.3202  0.2154
 5774W        W21243  13.408  17.083   1.694 -0.1584 -0.3670  0.0772
 5775W        W21244   2.105   1.941  16.191 -0.0013 -0.0595  0.3423
 5776W        W21245   5.594   5.700   5.923  0.2001  0.1380  0.0261
 5777W        W21246   3.054   5.511  10.930  0.0074 -0.0573  0.0968
 5778W        W21247  16.249   4.435  12.752  0.4398 -0.0537 -0.0050
 5779W        W21248   7.799   8.873   5.954  0.1584 -0.1282  0.1557
 5780W        W21249   5.751  13.029   3.931 -0.0846 -0.1520  0.1486
 5781W        W21250   1.981  13.757  10.655  0.2490  0.1370  0.2337
 5782W        W21251   8.100  14.761  15.228 -0.0237 -0.0248 -0.0072
 5783W        W21252  11.412  13.190   0.666 -0.0799 -0.3848 -0.2474
 5784W        W21253  11.800   1.540   4.014  0.3987  0.2536 -0.3561
 5785W        W21254   6.224  11.585  14.881  0.0784 -0.0808  0.2948
 5786W        W21255   6.223  13.366  12.038 -0.0351 -0.0688 -0.0034
 5787W        W21256   7.197   4.153   1.385  0.3611  0.4366  0.0326
 5788W        W21257   4.831   5.026   2.690  0.1673 -0.4382 -0.0114
 5789W        W21258   4.195   5.219   3.400  0.1574  0.2397  0.1670
 5790W        W21259   0.924  16.081   1.521 -0.2214  0.1577  0.1133
 5791W        W21260   6.672  16.787   4.014  0.0220 -0.1363  0.1867
 5792W        W21261  16.056  14.722  15.398  0.0042  0.0474  0.0022
 5793W        W21262  14.035  16.765  12.903 -0.1090 -0.1492 -0.0224
 5794W        W21263  13.299  16.156  13.907  0.0883  0.0647 -0.1169
 5795W        W21264   3.532  12.184  15.785  0.2230  0.0738 -0.1660
 5796W        W21265   5.001  17.200  15.857  0.0094  0.4493  0.0247
 5797W        W21266  15.482   5.273   5.379  0.1475 -0.2886 -0.1555
 5798W        W21267   5.227  17.245   3.938  0.1690 -0.0969 -0.1462
 5799W        W21268   4.484   8.744  13.371 -0.1175 -0.0348 -0.0657
 5800W        W21269  13.511   3.088  13.860  0.0201  0.0636 -0.1240
 5801W        W21270  14.396   3.746  14.652 -0.3758  0.1551 -0.5012
 5802W        W21271   3.821  14.086   3.744  0.1605  0.0114  0.0289
 5803W        W21272   3.620  15.910   2.074 -0.1847 -0.1140 -0.0339
 5804W        W21273   9.300  16.630   0.202 -0.3069  0.0092  0.0384
 5805W        W21274  17.741  10.252   2.964 -0.1443  0.0879 -0.0772
 5806W        W21275  11.989  13.494  13.804 -0.0792 -0.2227  0.2610
 5807W        W21276   7.247  11.228   1.898  0.1443  0.1322 -0.0337
 5808W        W21277   1.374   6.345   4.081 -0.4719 -0.1178 -0.0792
 5809W        W21278  12.498  12.057   0.561 -0.2939  0.2505 -0.0674
 5810W        W21279  13.934  17.655   0.132 -0.0567 -0.0968  0.1311
 5811W        W21280  14.198   3.729  12.729 -0.3617 -0.2149 -0.0393
 5812W        W21281   0.838  10.354   4.875 -0.0232 -0.1508  0.0599
 5813W        W21282   2.655   3.038   2.323  0.0729  0.2713 -0.1070
 5814W        W21283  17.052  16.114   4.383  0.0739 -0.0417 -0.4906
 5815W        W21284   9.185   4.981   1.742  0.3223 -0.2742  0.1573
 5816W        W21285  16.346  11.431   3.767 -0.1748  0.3675  0.2407
 5817W        W21286  12.636   3.815  13.510  0.1582 -0.0706  0.0883
 5818W        W21287   5.726  13.494  15.232  0.1789 -0.0902  0.0445
 5819W        W21288   2.219   6.660  13.793 -0.0100  0.0209 -0.0518
 5820W        W21289  15.346  10.283  14.771  0.2700 -0.1835 -0.2725
 5821W        W21290   9.754   0.555   1.492 -0.0377  0.1713 -0.0807
 5822W        W21291   7.123   3.150  14.788 -0.1619 -0.0346 -0.0788
 5823W        W21292   7.065   0.468  12.634  0.2566 -0.1004  0.1408
 5824W        W21293   8.861   5.578   2.472  0.1281  0.0592 -0.1253
 5825W        W21294  16.113   2.917   2.691  0.2489  0.1635  0.0648
 5826W        W21295  12.659   2.785   2.243 -0.0399 -0.1444 -0.1543
 5827W        W21296  11.545   8.023  14.339  0.0774 -0.1305 -0.2037
 5828W        W21297  12.720   3.156   4.128  0.0254 -0.2804  0.0965
 5829W        W21298   2.698  11.736   5.402  0.0044  0.0379 -0.2377
 5830W        W21299   8.825   7.816   0.105  0.4987  0.2249  0.3156
 5831W        W21300  15.983   2.674  11.869 -0.2131 -0.0967 -0.1806
 5832W        W21301  11.370  16.126  12.866  0.1971  0.0552 -0.3301
 5833W        W21302  10.044   2.612   3.785  0.0132  0.2316 -0.0455
 5834W        W21303  17.162   8.006  12.419  0.1156 -0.0121 -0.0961
 5835W        W21304  17.307  16.819   0.654 -0.2106 -0.0099 -0.2407
 5836W        W21305   5.322   3.296   3.948  0.0702  0.0342  0.1177
 5837W        W21306   3.303   6.096  13.116  0.1430 -0.2800  0.2728
 5838W        W21307  17.549  11.280   6.093 -0.1303 -0.0779 -0.1478
 5839W        W21308   1.525   0.190  12.260 -0.1818  0.1010 -0.1786
 5840W        W21309   6.663  12.081   3.004  0.0528 -0.0731  0.2124
 5841W        W21310   6.416   7.505   4.363  0.0066  0.0237 -0.2344
 5842W        W21311   9.874   5.806   4.507  0.0286 -0.0163 -0.2033
 5843W        W21312  16.553   9.816   5.493 -0.0281  0.1046 -0.0874
 5844W        W21313  13.851  10.906   0.283 -0.0244 -0.1855 -0.3580
 5845W        W21314   8.520  13.808  12.528  0.0428 -0.0147 -0.0316
 5846W        W21315  13.185   7.621  15.001 -0.1868  0.0393 -0.0967
 5847W        W21316  15.095   2.619  13.877  0.2390  0.2502 -0.1007
 5848W        W21317  13.383   3.066   6.059  0.0692 -0.2282 -0.2534
 5849W        W21318  15.092   1.594  12.204  0.3005 -0.1097 -0.0880
 5850W        W21319  17.019  14.151  16.139  0.1898 -0.0009  0.1524
 5851W        W21320   5.251  10.815  12.480  0.1487  0.1259  0.1893
 5852W        W21321   7.037   9.905   1.520  0.0514  0.0335 -0.3602
 5853W        W21322  13.971   7.202   5.308  0.4177  0.0071  0.1363
 5854W        W21323  12.866  10.456   2.424 -0.1954  0.0854 -0.2078
 5855W        W21324  16.512   4.455   1.411 -0.2443 -0.0770 -0.0054
 5856W        W21325   9.622  15.263   2.619  0.1471  0.2212 -0.0776
 5857W        W21326   7.828  12.426  16.623  0.0032 -0.2823  0.0516
 5858W        W21327   3.005   1.039   3.514  0.0015  0.3561 -0.0233
 5859W        W21328  16.995  13.897   2.412 -0.0371 -0.0776 -0.0125
 5860W        W21329   2.181   6.899   2.124  0.1049  0.3321 -0.0363
 5861W        W21330   5.046  15.763  12.654  0.1323  0.0182  0.1477
 5862W        W21331   8.066  10.256   4.318 -0.1302 -0.3393  0.0772
 5863W        W21332   8.783   2.122   1.835 -0.4275  0.0243 -0.2498
 5864W        W21333  14.116  11.818  12.067 -0.0942 -0.1602 -0.2381
 5865W        W21334  17.737  13.197  16.690  0.1959 -0.2859  0.2096
 5866W        W21335  12.551  10.833   2.749  0.0808  0.1344  0.1575
 5867W        W21336  11.452   0.237   0.178 -0.0418  0.0525 -0.1179
 5868W        W21337   2.902   7.641   5.028  0.0829  0.0887  0.0793
 5869W        W21338  15.548  13.489  16.079  0.0044 -0.2675 -0.0066
 5870W        W21339   9.544   1.268  12.088 -0.1625 -0.0634  0.2785
 5871W        W21340   7.146  11.430  15.818 -0.1382 -0.0864  0.1661
 5872W        W21341  11.790  10.117  14.771 -0.0981 -0.0602  0.1572
 5873W        W21342   2.984   4.150   1.497 -0.1037  0.1375  0.2468
 5874W        W21343   0.121  17.713  16.774  0.0953  0.0286 -0.2157
 5875W        W21344   4.376   8.886  16.735  0.0354  0.2192  0.1817
 5876W        W21345  10.115   1.004  16.356  0.0867  0.2330 -0.1622
 5877W        W21346   2.070  10.129   4.225 -0.1238 -0.0475 -0.6194
 5878W        W21347   8.528   0.359   3.850  0.0356 -0.2041 -0.0350
 5879W        W21348   7.664  11.001   4.693  0.0005 -0.1223  0.0046
 5880W        W21349  16.830   2.237  12.955 -0.1922  0.0492  0.3087
 5881W        W21350  14.867  11.402  12.322 -0.4839  0.1494  0.2437
 5882W        W21351   0.385  10.373  10.898  0.1229  0.2933  0.0782
 5883W        W21352  11.016   5.517   5.774  0.0663 -0.1271 -0.0804
 5884W        W21353   4.561  17.554  13.171 -0.0886 -0.1448  0.0887
 5885W        W21354   3.567  14.381  14.906 -0.2793  0.1325  0.1423
 5886W        W21355  16.021  17.697  15.804 -0.1717 -0.1339 -0.2546
 5887W        W21356  12.633   5.591  15.889 -0.1176  0.2572  0.1187
 5888W        W21357  14.832  12.694   0.291  0.0578  0.2125 -0.0740
 5889W        W21358  12.667   8.065   1.093 -0.1009  0.0135  0.1766
 5890W        W21359  13.216  16.354   5.576  0.0103  0.2092 -0.2074
 5891W        W21360   7.433  16.323   3.151 -0.1704  0.0455 -0.0108
 5892W        W21361   9.984   5.378   3.964 -0.0047 -0.1744  0.0307
 5893W        W21362  14.321  16.829   5.153  0.0203 -0.1391 -0.0446
 5894W        W21363  15.452   2.177  13.123  0.1151  0.2182  0.1188
 5895W        W21364   2.984   5.568  11.728 -0.0959  0.1894  0.1577
 5896W        W21365   0.042   1.684  11.790  0.0687  0.0653 -0.1861
 5897W        W21366   5.594   6.300   6.454 -0.0768 -0.2690 -0.3608
 5898W        W21367  17.277   2.628  14.415 -0.0424  0.0453  0.0033
 5899W        W21368   2.574   4.484   2.711 -0.1428 -0.1411 -0.0501
 5900W        W21369   6.791   8.172  16.749  0.1408 -0.0751  0.1326
 5901W        W21370  11.268   0.442  14.144  0.0247 -0.0032  0.0399
 5902W        W21371   6.641   4.305  16.557  0.1782 -0.1529  0.2579
 5903W        W21372   8.459   5.471  15.653  0.2645 -0.0194 -0.2126
 5904W        W21373  13.650  17.277  12.287 -0.0627 -0.2113 -0.0991
 5905W        W21374   6.360   1.933  14.015 -0.1212  0.0313  0.0501
 5906W        W21375  17.225  10.767  11.430 -0.0308 -0.1866  0.0822
 5907W        W21376  10.248   0.493   2.342 -0.0486  0.0330 -0.0290
 5908W        W21377  13.593   0.262   5.412  0.0290  0.0103  0.1834
 5909W        W21378  10.045  12.063  14.874  0.0043 -0.2397 -0.1296
 5910W        W21379  12.510   5.282   3.440 -0.0148 -0.0765  0.0828
 5911W        W21380  13.260   3.958   4.031  0.1241  0.2209 -0.0857
 5912W        W21381   8.222  11.843   0.807  0.2582  0.0522 -0.1017
 5913W        W21382   2.425   4.033   2.607 -0.1110  0.1166 -0.3139
 5914W        W21383   2.987   3.405  11.687 -0.2708 -0.0559 -0.0876
 5915W        W21384   3.171  15.872  13.270  0.2059 -0.2566 -0.2703
 5916W        W21385  17.705  16.265   1.412  0.2180  0.1860  0.0267
 5917W        W21386  10.044   6.491  12.213 -0.0282 -0.0011 -0.2307
 5918W        W21387   9.244  15.882  14.579 -0.2960 -0.0503 -0.2220
 5919W        W21388   7.782   6.747  15.881 -0.0466  0.2322  0.0110
 5920W        W21389  15.785   3.804   1.248  0.0068  0.0141  0.2469
 5921W        W21390  17.284   3.644  15.038 -0.1064 -0.1212  0.1705
 5922W        W21391   8.317   7.992   5.756 -0.0722  0.1058  0.1784
 5923W        W21392  13.877  12.076   5.785 -0.1962  0.1274  0.1438
 5924W        W21393   0.992  10.788   4.805 -0.0750 -0.2503  0.3427
 5925W        W21394   9.956  14.124   4.624 -0.2059  0.1246  0.0626
 5926W        W21395  14.491  10.988   3.937 -0.1708  0.0067 -0.2121
 5927W        W21396  15.616  16.047   0.171 -0.0920  0.3461 -0.1053
 5928W        W21397  14.764   6.495  11.391 -0.2369 -0.0987 -0.2205
 5929W        W21398   8.938  10.783   2.101 -0.0068 -0.0019 -0.0340
 5930W        W21399  16.864   6.813   3.512 -0.2643 -0.0950  0.0343
 5931W        W21400  14.509   1.525  14.235 -0.0472  0.0400  0.1687
 5932W        W21401   6.979   0.545  13.486  0.0574  0.5117 -0.0498
 5933W        W21402   5.409  13.251  15.797 -0.1579  0.1065 -0.0480
 5934W        W21403  11.668   0.143   1.065 -0.1363 -0.0432 -0.0020
 5935W        W21404   2.148   8.000  16.824 -0.2492 -0.1745 -0.0205
 5936W        W21405  13.842  13.187   2.154 -0.0600 -0.0229  0.1950
 5937W        W21406  12.571   3.136   0.596 -0.3020  0.2513  0.0520
 5938W        W21407   6.331   3.520  15.099 -0.1027 -0.1903  0.2815
 5939W        W21408  16.237  11.243   0.073 -0.0143  0.0522 -0.0043
 5940W        W21409   8.030  15.340  14.023 -0.1800  0.1487 -0.2485
 5941W        W21410   4.727   2.075  13.719 -0.0420 -0.1530  0.0075
 5942W        W21411   4.095  11.163   1.865  0.2205 -0.1495  0.1351
 5943W        W21412   7.748  16.759   6.444  0.1606  0.0974  0.1431
 5944W        W21413  12.927  13.567  14.457 -0.1207  0.0701 -0.0036
 5945W        W21414   7.782  16.561   5.968  0.0278  0.0395 -0.0230
 5946W        W21415  14.994   6.270  13.188  0.0001 -0.1081  0.0890
 5947W        W21416   0.389   6.790   0.997  0.3624 -0.2440 -0.5274
 5948W        W21417   2.695  15.743   0.546 -0.0754  0.0375 -0.2891
 5949W        W21418  13.162  13.808   1.610  0.0250 -0.1310 -0.0593
 5950W        W21419   0.721  15.446  12.284  0.1555 -0.2318 -0.1544
 5951W        W21420   5.767   3.350  12.991 -0.2519 -0.1761 -0.0660
 5952W        W21421   1.730  14.225  11.419  0.2681 -0.0467 -0.0607
 5953W        W21422  11.230   8.160  12.490 -0.3159 -0.3006 -0.1482
 5954W        W21423   8.550  15.891  11.952  0.1755  0.1342  0.0981
 5955W        W21424  16.816   7.106  11.249 -0.0514 -0.2176  0.1847
 5956W        W21425  14.231  13.043  14.168  0.0057  0.0264 -0.0659
 5957W        W21426  14.376   5.915  15.109 -0.0755  0.0167  0.1028
 5958W        W21427   1.147  17.362   3.067 -0.1813 -0.2692 -0.0525
 5959W        W21428   2.606   3.435  15.569  0.0546  0.3860 -0.0997
 5960W        W21429  12.491  17.283  13.455 -0.0022  0.2134 -0.2111
 5961W        W21430   4.420  11.521  14.501 -0.2375  0.2993  0.1357
 5962W        W21431   5.529   0.262   1.532  0.1074  0.4611 -0.0399
 5963W        W21432   7.563   0.460   1.811  0.1285 -0.2390  0.0397
 5964W        W21433  14.435   2.428   4.982  0.0392 -0.0803  0.2900
 5965W        W21434  13.303   0.405   2.784  0.1318  0.3125 -0.1594
 5966W        W21435  15.501  14.157  11.798  0.0646 -0.2179  0.0131
 5967W        W21436   9.885   1.064  16.815 -0.3854  0.0198  0.1114
 5968W        W21437  14.789   0.322  12.501  0.2448 -0.0031 -0.3386
 5969W        W21438   2.885   7.453  16.782 -0.2694  0.0226 -0.0046
 5970W        W21439   3.855   5.430   2.581  0.1140  0.1707  0.1223
 5971W        W21440  15.107  12.271   0.179 -0.0260  0.0684  0.5555
 5972W        W21441  15.116   6.963  15.641 -0.0349  0.0071 -0.1016
 5973W        W21442   8.199   4.106   2.436  0.1099 -0.1342  0.2420
 5974W        W21443   3.268   8.997   1.449 -0.1898  0.2218  0.3619
 5975W        W21444   3.983   1.803   5.808  0.3101  0.0894  0.1369
 5976W        W21445   3.131   6.234  11.676  0.0427  0.1154 -0.0117
 5977W        W21446   8.299   6.669   4.486 -0.2599 -0.1323 -0.0956
 5978W        W21447  17.748  13.005  14.618 -0.0349 -0.2022 -0.1128
 5979W        W21448  12.066   7.741   5.463  0.2747 -0.1499  0.0553
 5980W        W21449  10.644  13.828   6.872  0.2881  0.4140  0.1902
 5981W        W21450   5.689  16.907   0.211 -0.0464  0.0525  0.0103
 5982W        W21451   3.931  14.838  14.842 -0.1886  0.0009  0.4326
 5983W        W21452  12.070   6.907   1.912 -0.2919  0.2270  0.1592
 5984W        W21453  14.150   5.538   2.773 -0.1402  0.2452 -0.0993
 5985W        W21454  13.230   7.568   1.137 -0.0447 -0.0066 -0.4664
 5986W        W21455   9.203   8.920  12.029  0.0448 -0.0479 -0.2067
 5987W        W21456   1.332   1.217   4.086  0.0982 -0.3067  0.2061
 5988W        W21457  15.549  11.281   0.108  0.0798  0.0165  0.0147
 5989W        W21458   9.240   3.187   2.365 -0.0391 -0.2170 -0.2477
 5990W        W21459  12.125   3.127  12.091  0.1089 -0.3670 -0.2276
 5991W        W21460   0.218  14.907   5.111  0.3238 -0.1097 -0.0130
 5992W        W21461   5.303  15.509  16.253  0.1551  0.0649  0.0857
 5993W        W21462   9.305   0.369   4.605  0.1234  0.1133  0.0309
 5994W        W21463   3.098  10.205   2.464 -0.0118 -0.2590 -0.0426
 5995W        W21464  14.384   9.499   2.140  0.0411  0.0681  0.2700
 5996W        W21465   0.779  17.556  15.748 -0.0163 -0.0160 -0.2475
 5997W        W21466   9.218   6.787  15.200  0.1152 -0.0838 -0.1982
 5998W        W21467  16.302   3.854  16.529  0.1921 -0.2121 -0.0569
 5999W        W21468  12.308  17.404  12.525 -0.1242 -0.0798 -0.0826
 6000W        W21469   9.706   0.380   3.270 -0.1001  0.1068  0.0895
 6001W        W21470  15.019   2.346  11.735  0.0718  0.0598 -0.1018
 6002W        W21471  10.576  12.040  12.118  0.1660 -0.3938 -0.0188
 6003W        W21472  10.854   6.838   0.205  0.0466  0.0379 -0.0111
 6004W        W21473   9.695  17.230  13.548  0.0927  0.2035  0.0275
 6005W        W21474   6.328   5.691   6.580  0.1225  0.6679  0.1482
 6006W        W21475   0.441  11.121   3.275 -0.0216 -0.1440 -0.2024
 6007W        W21476  16.609   8.820   1.066  0.2699 -0.0507  0.1350
 6008W        W21477   7.836   0.201  14.415  0.1591 -0.1445 -0.0386
 6009W        W21478  14.512  15.356   4.212 -0.2356 -0.0212  0.1709
 6010W        W21479   1.651   4.865  16.835 -0.4058 -0.3910  0.0183
 6011W        W21480   5.260   9.621  12.598 -0.1314  0.1708 -0.1047
 6012W        W21481   6.431  17.396  12.714  0.1159  0.0364 -0.0781
 6013W        W21482   3.298   1.194   0.009 -0.0672  0.0488 -0.1058
 6014W        W21483  10.657   3.219  15.040 -0.1686  0.1223  0.0323
 6015W        W21484   8.872  15.108  13.074  0.1112 -0.2506  0.0722
 6016W        W21485   3.812   9.351  12.656  0.0664 -0.4370  0.0085
 6017W        W21486  12.596  12.770   4.946  0.2408  0.2260  0.0201
 6018W        W21487   9.118   8.419   1.588  0.0193 -0.0164 -0.0218
 6019W        W21488   2.043  12.373   2.390  0.2239  0.0522 -0.2166
 6020W        W21489  17.051  10.227   0.724 -0.0670  0.3665  0.1673
 6021W        W21490  10.881   7.187  15.139  0.0379 -0.2335  0.1668
 6022W        W21491   8.617  16.574  12.320  0.0877  0.0988 -0.0276
 6023W        W21492  15.947   6.453  12.078 -0.0372  0.1718  0.2227
 6024W        W21493  17.734   7.420   1.417  0.4078  0.1529 -0.3975
 6025W        W21494  14.500  11.585   2.479 -0.2860  0.2183  0.0645
 6026W        W21495  12.809  14.101   4.960 -0.3404 -0.2007  0.1375
 6027W        W21496   7.479   1.557   4.952 -0.1015 -0.3343  0.1080
 6028W        W21497   5.896   0.217   5.695  0.0916  0.1663  0.4450
 6029W        W21498  17.121   1.087   0.055  0.4465 -0.1453 -0.1540
 6030W        W21499  10.347   6.324   4.955  0.0812  0.1914 -0.3876
 6031W        W21500  15.198  13.873  16.782  0.1632 -0.0965  0.0838
 6032W        W21501  11.497   0.234  16.346  0.2232 -0.0356 -0.0118
 6033W        W21502  12.644   4.108   4.749 -0.1004  0.2308 -0.0540
 6034W        W21503   3.810   0.709   6.014 -0.0184 -0.1209  0.1252
 6035W        W21504   2.918  12.789  13.863 -0.0559  0.1097 -0.0041
 6036W        W21505  11.971   2.097  11.033 -0.1571 -0.0749 -0.4111
 6037W        W21506   3.519  17.239  11.430 -0.0271  0.0217  0.1769
 6038W        W21507  10.768   3.028  16.579 -0.0709 -0.1005 -0.0706
 6039W        W21508  11.572   0.904   4.728 -0.2731  0.3060 -0.0836
 6040W        W21509   4.440  13.115   5.481  0.1151 -0.1490 -0.0171
 6041W        W21510   5.015   7.061  14.470  0.2123  0.1326  0.3020
 6042W        W21511   6.214  13.699   4.412 -0.2192 -0.2636 -0.0349
 6043W        W21512   4.961  15.068  16.280  0.0167 -0.1293  0.2927
 6044W        W21513  11.123   7.319   5.497  0.3000  0.0120 -0.0593
 6045W        W21514  14.671   5.527  12.531  0.1403 -0.0443  0.0330
 6046W        W21515   2.277  11.069   4.931  0.1415 -0.0503 -0.1609
 6047W        W21516   0.642   9.169   1.714 -0.1751 -0.1176  0.2075
 6048W        W21517   7.526   9.143  16.369  0.1779  0.1392 -0.0491
 6049W        W21518   8.299  11.039  14.622 -0.1432  0.0849 -0.0817
 6050W        W21519   3.825  14.338   4.772 -0.0056  0.0785  0.0880
 6051W        W21520  11.325  13.067  13.394 -0.1295  0.0001  0.1393
 6052W        W21521  17.013  15.265  13.394 -0.1157 -0.1347  0.0112
 6053W        W21522   5.282   9.490   1.566 -0.0433 -0.2803  0.2672
 6054W        W21523   6.173  13.314   2.624  0.0454 -0.1066 -0.2628
 6055W        W21524   0.017   8.979  13.214 -0.1626 -0.2960 -0.0233
 6056W        W21525   2.534  10.689  14.226 -0.1147 -0.2551 -0.0019
 6057W        W21526   2.653   6.974   3.432  0.1496  0.1410  0.1631
 6058W        W21527  14.562   5.663   3.023  0.1319  0.1229 -0.1219
 6059W        W21528  10.767   8.483  13.696  0.1641  0.2715 -0.2523
 6060W        W21529   1.642  11.386  11.804 -0.0524 -0.2874 -0.1680
 6061W        W21530   9.604   7.802   5.468  0.2880 -0.1352 -0.1972
 6062W        W21531   0.921   1.399  14.273  0.0621  0.1147  0.2191
 6063W        W21532  14.407   5.275   5.502  0.0001  0.2018 -0.0239
 6064W        W21533  15.746  14.307  11.357 -0.4200  0.1712 -0.3426
 6065W        W21534   7.675  10.084  12.417 -0.0392  0.0446  0.1195
 6066W        W21535   9.300   4.571   4.668 -0.0273 -0.1073 -0.0358
 6067W        W21536   7.301   0.032   4.255  0.3788 -0.1388 -0.0509
 6068W        W21537  12.417   0.127   2.064  0.2520  0.4414 -0.0765
 6069W        W21538   2.753   4.783   2.339  0.2674 -0.1158 -0.1609
 6070W        W21539  11.798   1.489  15.665  0.0050  0.0484 -0.1413
 6071W        W21540   7.827  16.560   3.471 -0.1714  0.0973  0.3788
 6072W        W21541   8.081   8.002   3.439 -0.0111  0.0702  0.0523
 6073W        W21542   7.229  13.274  15.475 -0.1221 -0.2680 -0.1938
 6074W        W21543   5.470  11.801  12.940  0.1659 -0.0885 -0.0493
 6075W        W21544   0.052  10.256   2.403 -0.0798 -0.0911  0.0471
 6076W        W21545  12.199   9.264  12.104  0.1070  0.0645  0.1300
 6077W        W21546   4.570  10.219  15.915 -0.2856 -0.2081 -0.1123
 6078W        W21547  16.870  15.564  14.199  0.1257 -0.1809 -0.1432
 6079W        W21548   8.050  16.217  12.746  0.0859  0.0023  0.3061
 6080W        W21549   7.259   1.384   0.903  0.1344  0.0772 -0.2852
 6081W        W21550   8.606   0.835   3.879 -0.1018 -0.1434 -0.0256
 6082W        W21551  14.720   9.804   4.122 -0.0854 -0.1188 -0.1590
 6083W        W21552   0.957  10.179  14.015  0.1354  0.0268 -0.0203
 6084W        W21553   7.411   4.684   0.990  0.0952 -0.0030 -0.0854
 6085W        W21554  10.875  15.528   2.642  0.0253  0.0177  0.0014
 6086W        W21555   2.697  11.021  12.030 -0.1663  0.2396 -0.0395
 6087W        W21556  15.599  11.653   2.665  0.2359 -0.3545  0.1253
 6088W        W21557  14.053  14.521   2.034  0.2835  0.1901  0.2514
 6089W        W21558  15.457   3.568   2.318  0.0088  0.3116  0.4006
 6090W        W21559   1.473   8.438   4.037  0.0781  0.0989 -0.0211
 6091W        W21560  14.274   6.527  15.128  0.0983 -0.1565 -0.2515
 6092W        W21561  11.144   3.155   1.734  0.1857 -0.2101 -0.1006
 6093W        W21562   6.435   3.166   1.201  0.1251  0.1893 -0.3455
 6094W        W21563   9.138   7.796  14.502 -0.0173  0.1408 -0.1424
 6095W        W21564  10.247   9.970   5.380 -0.0455  0.0982  0.2929
 6096W        W21565   2.771  11.088   5.050  0.0722 -0.0210  0.0766
 6097W        W21566  12.245   6.782  12.749 -0.4457  0.0886  0.1024
 6098W        W21567   9.523   4.757   3.545  0.2654 -0.0957  0.2077
 6099W        W21568  10.029   8.093  16.371 -0.1423  0.1043  0.2666
 6100W        W21569   9.193   2.514  14.909  0.0895 -0.2696  0.0112
 6101W        W21570  11.026   8.345   3.674 -0.0374  0.1299  0.1233
 6102W        W21571   7.715   9.907   3.255  0.2011  0.0710  0.2123
 6103W        W21572  13.002   7.121  15.011 -0.0609  0.1704 -0.0903
 6104W        W21573  17.587  17.393  13.496  0.0454  0.2690  0.1402
 6105W        W21574  16.599   8.629  10.776 -0.3425  0.1376 -0.1032
 6106W        W21575   7.384   6.504   4.148  0.1687  0.0174 -0.3206
 6107W        W21576   3.910   2.580  14.768 -0.1389 -0.0924 -0.0710
 6108W        W21577   1.175  11.378   0.457 -0.0031  0.1510 -0.2270
 6109W        W21578   1.597   1.667  13.768 -0.2245 -0.0928  0.0386
 6110W        W21579  16.314   4.020   2.802 -0.0783 -0.0130 -0.1976
 6111W        W21580  15.691  14.792   3.545  0.3325  0.0033  0.2493
 6112W        W21581  16.512  16.656   2.351 -0.0659  0.1590 -0.1418
 6113W        W21582   5.187  16.873  12.748  0.0923 -0.0115  0.0769
 6114W        W21583   7.862   8.632   2.679 -0.2213  0.2996 -0.3831
 6115W        W21584  14.000   0.349  12.848  0.1364  0.2090  0.1541
 6116W        W21585  15.175   5.339   4.212  0.1592 -0.3483  0.1637
 6117W        W21586  16.407   8.903   5.829  0.3531 -0.1470 -0.3324
 6118W        W21587  14.969   4.064  13.877 -0.0509  0.0310  0.2414
 6119W        W21588  13.599  12.174   0.935 -0.1196 -0.1323  0.3066
 6120W        W21589   2.655   3.799  11.867 -0.2873  0.0132 -0.2872
 6121W        W21590  12.699   7.592   1.753  0.2926 -0.2780 -0.0464
 6122W        W21591  10.939   9.237  16.332 -0.2903 -0.0013  0.2920
 6123W        W21592   2.183  16.317  13.560  0.2388 -0.0790  0.0333
 6124W        W21593   1.613  13.031  16.580 -0.3188  0.1037 -0.2554
 6125W        W21594  11.025  13.289  14.678  0.0581 -0.2172  0.1184
 6126W        W21595   2.112   5.402   4.622  0.0968  0.0810  0.0913
 6127W        W21596   2.590   6.854   2.399 -0.1686  0.3582  0.0937
 6128W        W21597  12.088   0.514   0.649 -0.0191 -0.2240  0.0024
 6129W        W21598  16.570   1.823   0.149 -0.0217 -0.0159  0.2338
 6130W        W21599   9.861   3.707   0.280 -0.0276 -0.1273  0.1303
 6131W        W21600   3.314   8.102   1.072  0.2273  0.0271  0.2305
 6132W        W21601   8.359   3.334   1.957 -0.1132 -0.0707 -0.0945
 6133W        W21602  14.583   9.049   5.642  0.4294 -0.0157  0.0353
 6134W        W21603   0.307  12.282  15.008 -0.0220  0.2170  0.0315
 6135W        W21604  10.167   4.670  12.093 -0.0083  0.1594 -0.0263
 6136W        W21605  16.802   5.127  11.335 -0.1150 -0.2100  0.3392
 6137W        W21606  12.348  11.192  13.882 -0.1426  0.1116 -0.3407
 6138W        W21607  14.203   9.575  13.763 -0.3274 -0.0299 -0.0312
 6139W        W21608  16.812  15.186  11.555  0.2375 -0.2311  0.0906
 6140W        W21609   0.451  13.042   0.520 -0.1721 -0.0868 -0.0892
 6141W        W21610   0.027  11.937   1.087  0.0346  0.0687 -0.0596
 6142W        W21611   8.040   5.629   5.758  0.2551 -0.1437 -0.1234
 6143W        W21612  14.106   2.759   5.721  0.2471  0.0640  0.0800
 6144W        W21613  12.814  14.441   6.641  0.0152 -0.1615  0.1534
 6145W        W21614  15.640   3.583   3.683 -0.1565 -0.0523 -0.1196
 6146W        W21615   9.186   1.758  14.890 -0.2533  0.1037 -0.1531
 6147W        W21616   4.017  17.723  13.283 -0.3383 -0.6560 -0.2016
 6148W        W21617   2.696   7.839   3.477 -0.1168  0.1854 -0.1737
 6149W        W21618   0.472   9.597   4.429  0.0090  0.0249 -0.0140
 6150W        W21619   2.586  17.456  12.832  0.0185 -0.0025 -0.0037
 6151W        W21620   6.749   6.592   3.997  0.1779 -0.2116 -0.0115
 6152W        W21621  17.495  15.285   4.392  0.1721 -0.0461  0.2644
 6153W        W21622  15.344   6.277   2.903 -0.3503  0.3773  0.0749
 6154W        W21623   2.700   3.800   3.981 -0.0621  0.0007  0.2554
 6155W        W21624  13.115  15.097  12.643 -0.2412 -0.0639  0.0452
 6156W        W21625  17.493  13.971  16.382 -0.1191 -0.0403  0.1423
 6157W        W21626   8.645  14.352  12.629  0.0003  0.5829 -0.1282
 6158W        W21627  14.453   7.233  13.865 -0.0095  0.2991  0.0629
 6159W        W21628   3.048   6.393  13.466  0.0576  0.0474 -0.0805
 6160W        W21629  11.910   7.997  14.751  0.0919  0.0751  0.0866
 6161W        W21630   1.884   2.442  11.230 -0.3355 -0.0449 -0.0983
 6162W        W21631   4.895   4.196   3.010 -0.1445  0.3763 -0.1074
 6163W        W21632   0.680   0.217  16.069  0.2446  0.1060 -0.2407
 6164W        W21633  17.212  17.250   4.000  0.3261  0.1880  0.1971
 6165W        W21634  13.982  15.036  13.454 -0.3090  0.1478 -0.0822
 6166W        W21635   0.064   4.386   4.649 -0.2534 -0.0556 -0.0140
 6167W        W21636   7.911   5.537  12.468 -0.2106  0.0125  0.0064
 6168W        W21637   5.396  14.672  12.749  0.0835  0.0526 -0.1430
 6169W        W21638  11.472   6.907  12.424 -0.2689  0.2254  0.1521
 6170W        W21639   7.564   9.804   5.052  0.1612  0.2573 -0.3283
 6171W        W21640  10.515   2.994   1.262  0.0517 -0.0745  0.1878
 6172W        W21641   0.711   9.609  10.594  0.2486  0.0717 -0.1707
 6173W        W21642  16.594  16.680  13.402  0.0302 -0.1060 -0.3192
 6174W        W21643  13.249   9.396   1.128  0.2952 -0.1608 -0.1647
 6175W        W21644  12.047  10.468   5.220  0.2396 -0.0297 -0.2284
 6176W        W21645  15.979   5.428   5.338  0.0346 -0.1381 -0.1503
 6177W        W21646   7.292  16.014   0.840  0.0017  0.3682 -0.1227
 6178W        W21647  15.003   1.642   6.023 -0.1972 -0.1705  0.0626
 6179W        W21648   0.274  12.137  13.511 -0.1733  0.3313 -0.3464
 6180W        W21649   1.761  11.358  11.230  0.1348  0.1628 -0.2384
 6181W        W21650  15.522   9.713   0.854 -0.3732 -0.3196 -0.0179
 6182W        W21651   6.553  12.405  12.334 -0.0445 -0.0102 -0.1065
 6183W        W21652   4.822   8.932  15.723 -0.0162 -0.0539 -0.1255
 6184W        W21653  10.744  17.193  12.165 -0.1281  0.2880 -0.1141
 6185W        W21654  14.806   6.909  12.492 -0.0603  0.3491 -0.0542
 6186W        W21655   7.029  11.475   1.525  0.2080  0.0591  0.3125
 6187W        W21656  12.354   6.371   2.824  0.0485  0.1736 -0.2530
 6188W        W21657  13.079  14.714   2.352 -0.1041  0.1801  0.2864
 6189W        W21658   3.196  16.667   5.241  0.1169  0.1741 -0.1481
 6190W        W21659   5.395  15.059  16.065 -0.3123 -0.0250 -0.0720
 6191W        W21660   6.207  12.392  13.096  0.0896  0.0782  0.2287
 6192W        W21661  14.505  17.468  13.210  0.1517  0.0676 -0.0432
 6193W        W21662  11.919  17.051   5.381  0.1021  0.1350 -0.2839
 6194W        W21663   3.398  10.456  12.122  0.3214 -0.0580 -0.0515
 6195W        W21664   4.293   7.770   2.840 -0.1083  0.0841  0.2062
 6196W        W21665  11.074   0.002  13.982  0.1078 -0.0593  0.0635
 6197W        W21666   1.508   2.926   5.840 -0.1000  0.0902  0.1456
 6198W        W21667   3.669   5.820  13.896  0.1674 -0.0494  0.1121
 6199W        W21668  13.681  13.060  14.847 -0.2015 -0.2676  0.5066
 6200W        W21669  12.299   8.886  12.904  0.3185  0.0458 -0.1460
 6201W        W21670   1.404   2.094   1.014 -0.2975 -0.0552  0.0341
 6202W        W21671   2.473   2.998  16.489 -0.2903  0.2622  0.0191
 6203W        W21672   5.645   8.245  14.002  0.1154  0.1593  0.0125
 6204W        W21673   0.178   8.763  14.444  0.0966  0.4607 -0.0783
 6205W        W21674  16.784  17.470  14.007  0.1075 -0.1498  0.0484
 6206W        W21675   2.091  11.337   0.154 -0.0149 -0.0598 -0.1630
 6207W        W21676  13.372  13.613  15.254  0.2344 -0.1078  0.1003
 6208W        W21677  15.255   4.312  15.346 -0.0369 -0.0003  0.1305
 6209W        W21678  17.608   0.031  13.797  0.0550 -0.1489  0.1337
 6210W        W21679   2.343   9.338  12.962 -0.0078 -0.0642 -0.1677
 6211W        W21680   9.582   6.635   4.845 -0.0221  0.0082 -0.3050
 6212W        W21681  16.704   4.787   0.961 -0.2557 -0.3805  0.2755
 6213W        W21682  12.899   4.807   2.889  0.0333 -0.0500 -0.1231
 6214W        W21683  12.200   8.016   0.277 -0.1208 -0.0373 -0.1757
 6215W        W21684  10.512   4.450  16.479  0.2259  0.1715 -0.0965
 6216W        W21685  16.041  12.494   1.057 -0.1572 -0.1173 -0.0729
 6217W        W21686  16.262   5.853   3.300 -0.0585 -0.2882 -0.1232
 6218W        W21687  11.561   2.860   2.966 -0.0355 -0.0564 -0.0704
 6219W        W21688  11.632  15.099   3.946 -0.0587  0.0831 -0.0425
 6220W        W21689   5.969  15.807  15.701 -0.2762 -0.1122 -0.0001
 6221W        W21690  15.503  16.726   2.381 -0.2299 -0.0800  0.1773
 6222W        W21691  17.328   1.736  16.496 -0.0177 -0.2035  0.0679
 6223W        W21692   0.849   9.561  12.217  0.2700 -0.0464 -0.0616
 6224W        W21693  16.975  17.224   0.800 -0.1208  0.0042 -0.0664
 6225W        W21694  17.003  10.603  10.586 -0.1737  0.1141  0.0530
 6226W        W21695   4.407  15.643   0.615 -0.3627 -0.3261  0.0751
 6227W        W21696  13.350  10.827  10.764  0.1111  0.0818  0.1143
 6228W        W21697   3.977   3.637   0.708 -0.2498  0.1098 -0.0607
 6229W        W21698   9.876   8.963  15.199 -0.2496  0.5305  0.0641
 6230W        W21699  17.593  13.980  11.706 -0.0441  0.0955 -0.0220
 6231W        W21700  12.295   6.389   5.056 -0.1948  0.0049 -0.1498
 6232W        W21701  15.025  17.223  16.617  0.0429 -0.1130  0.2706
 6233W        W21702  14.996  10.627   4.717  0.1413  0.0302 -0.2009
 6234W        W21703   1.580   1.702   2.935  0.2085 -0.1919  0.0737
 6235W        W21704  17.752   6.629  12.324  0.1664  0.2738  0.1614
 6236W        W21705  11.929  13.523   2.084 -0.1190  0.0563  0.2176
 6237W        W21706  15.545  14.739   1.713  0.2454 -0.1710  0.0642
 6238W        W21707   7.727   2.168   5.515 -0.3793  0.3309  0.1697
 6239W        W21708   0.652   1.862  13.712  0.2012 -0.2152 -0.2642
 6240W        W21709  11.447   3.570   0.845 -0.0571  0.1778  0.0366
 6241W        W21710   8.451  15.021  11.768  0.0432 -0.0088  0.3573
 6242W        W21711  15.648   0.997  11.689  0.2064  0.0654 -0.2487
 6243W        W21712   9.663  15.626   2.206  0.0110  0.3847  0.0932
 6244W        W21713  12.133   0.298  14.455  0.0642 -0.0671  0.2925
 6245W        W21714   4.118  13.469  14.264 -0.1075 -0.0299 -0.1291
 6246W        W21715   0.898  16.826   3.130 -0.3568  0.2360  0.2999
 6247W        W21716  11.561   3.692  16.779 -0.0677  0.1905 -0.0634
 6248W        W21717   3.882   9.890  16.398  0.1905 -0.3420  0.3127
 6249W        W21718   4.018   1.152   0.990 -0.2609 -0.0470 -0.2256
 6250W        W21719   1.091   3.942  13.186  0.2682 -0.3668  0.1035
 6251W        W21720  16.939  16.260  14.850 -0.1260  0.0086 -0.2732
 6252W        W21721   8.688  16.275  13.712 -0.2976 -0.1344 -0.2125
 6253W        W21722  15.920   2.053   4.474  0.2396  0.2299 -0.2752
 6254W        W21723   8.217  12.704   0.082 -0.1186  0.0661  0.0007
 6255W        W21724   6.853   7.692  16.529 -0.0210 -0.4131  0.1169
 6256W        W21725  15.470   7.413   4.286 -0.0371  0.1083 -0.0685
 6257W        W21726   9.682  15.013  15.583  0.0609  0.0339 -0.0034
 6258W        W21727   1.133   4.902  15.998 -0.1421 -0.0630 -0.1166
 6259W        W21728   0.317  16.067  16.764 -0.2211 -0.0444 -0.0455
 6260W        W21729   7.498   2.865  16.811  0.0214  0.0967  0.0604
 6261W        W21730   5.490  17.688  16.711  0.2329 -0.0251  0.0478
 6262W        W21731  16.006  16.198   4.478  0.1217  0.2316  0.0502
 6263W        W21732   4.658  15.685   5.030  0.4777 -0.0090 -0.1590
 6264W        W21733   3.931  14.705   0.542  0.0222 -0.0266 -0.0712
 6265W        W21734  17.337   2.876  12.444 -0.0206  0.1374 -0.0122
 6266W        W21735   2.017   9.523  11.182 -0.0782 -0.0436  0.1819
 6267W        W21736  13.456  12.838   5.384 -0.0654  0.1714 -0.1874
 6268W        W21737  14.685   3.733  16.284 -0.0059 -0.3268  0.0315
 6269W        W21738  11.309   4.957  14.883 -0.1393  0.0040  0.0825
 6270W        W21739   8.045   1.210   0.840 -0.3419 -0.1111  0.1018
 6271W        W21740   4.595  11.688  14.057 -0.2252 -0.2157 -0.1570
 6272W        W21741   1.977   7.904  15.627  0.1857 -0.0590 -0.0705
 6273W        W21742   1.915   6.399   2.034  0.0190 -0.0833 -0.1012
 6274W        W21743  15.158  11.788   3.536  0.1258 -0.0554 -0.3227
 6275W        W21744  12.069   1.051   2.183  0.2957 -0.2458 -0.0245
 6276W        W21745   3.179   0.424   1.761  0.0613 -0.0757  0.1546
 6277W        W21746   3.771  12.056   2.268  0.0324 -0.0025  0.1775
 6278W        W21747  15.964   7.241  16.776  0.1128  0.2083 -0.1639
 6279W        W21748   9.578  12.948   2.439  0.1004 -0.0319  0.0678
 6280W        W21749  13.151   3.923   2.054  0.1486  0.2390 -0.0572
 6281W        W21750  10.000   9.267   3.691  0.1280 -0.1966  0.0579
 6282W        W21751   1.894  10.971  15.376 -0.1714  0.0597  0.0453
 6283W        W21752  13.012  10.456  11.797 -0.1855 -0.1970  0.0717
 6284W        W21753  12.764   8.524   0.975 -0.0606  0.1340 -0.2652
 6285W        W21754   7.871   7.300  12.464  0.0111  0.0718  0.1353
 6286W        W21755   1.776   5.161  12.774  0.2899  0.2804  0.2954
 6287W        W21756  13.494  13.265  16.711  0.2416  0.0054 -0.2016
 6288W        W21757   9.201   1.748  16.753 -0.2205  0.1591 -0.5448
 6289W        W21758  14.035   6.058   2.989  0.1862  0.2560 -0.2954
 6290W        W21759   6.082  15.919   5.379  0.1642 -0.0324  0.0807
 6291W        W21760   3.359   4.362  12.789 -0.3451  0.1790 -0.1484
 6292W        W21761  10.341   9.651   6.187  0.0794  0.0170 -0.1232
 6293W        W21762  10.551   4.143   2.131  0.3353 -0.0080 -0.1443
 6294W        W21763   5.252  10.616   0.431 -0.2729  0.0096 -0.0855
 6295W        W21764   3.430   8.489  14.121  0.0818  0.1038 -0.0472
 6296W        W21765  10.228   4.744   6.199 -0.1256 -0.1211 -0.1620
 6297W        W21766   1.298  12.092  11.626  0.0547 -0.0456  0.1978
 6298W        W21767   8.066  10.949   2.540  0.0005 -0.1496 -0.2357
 6299W        W21768   2.564  10.706   0.830  0.1591 -0.0953 -0.1518
 6300W        W21769  16.698  10.070  14.710  0.1537  0.0610  0.2411
 6301W        W21770   4.319   8.713   0.822  0.2091  0.0183 -0.2461
 6302W        W21771   7.143   8.581   4.618  0.1772 -0.2246  0.3898
 6303W        W21772  14.077  12.408   2.657  0.0002 -0.1425 -0.0456
 6304W        W21773   2.424   2.807   3.250  0.2482  0.0418 -0.0707
 6305W        W21774   8.010   3.056   0.032  0.2494 -0.1930 -0.3297
 6306W        W21775   6.607   2.473  12.037  0.1885  0.1021  0.1807
 6307W        W21776   5.387   6.421  16.087  0.0084  0.2528 -0.0722
 6308W        W21777   4.738   1.696   3.407  0.1193  0.3508 -0.0931
 6309W        W21778   5.082   8.299  15.179 -0.0205  0.3635 -0.3159
 6310W        W21779  15.894   7.004   3.982  0.2259  0.2035 -0.0243
 6311W        W21780  17.745  17.158   5.130  0.2037  0.0509  0.1950
 6312W        W21781   8.569   6.493   4.074  0.1288  0.2956 -0.3649
 6313W        W21782   8.324  10.241   2.443 -0.1729 -0.2550  0.0405
 6314W        W21783   4.220  17.543   1.432 -0.2581 -0.1865  0.2922
 6315W        W21784   2.590   6.570  10.654  0.1200 -0.0107  0.3621
 6316W        W21785  13.594   1.307   2.239 -0.1231 -0.1596  0.3323
 6317W        W21786  17.235  14.253   1.235 -0.2725  0.2160 -0.0320
 6318W        W21787  13.718  15.967  16.420 -0.0601  0.1038 -0.0354
 6319W        W21788   3.493  11.682   1.186  0.1110  0.0597  0.1157
 6320W        W21789  14.407  14.930   1.995  0.2270 -0.0291  0.1494
 6321W        W21790   4.986   5.296  14.875 -0.3620  0.1776 -0.0366
 6322W        W21791  13.213   4.806  16.082  0.0557 -0.0744  0.1685
 6323W        W21792   8.855  13.852  14.507  0.1700  0.4957  0.0435
 6324W        W21793   2.051   3.186  12.494 -0.1553 -0.1110  0.4916
 6325W        W21794   5.773  13.452   4.272  0.0569  0.2516  0.4209
 6326W        W21795   9.935   7.553  14.155 -0.0689  0.0899 -0.0165
 6327W        W21796  13.442  17.472   3.628  0.0234  0.1264 -0.0499
 6328W        W21797   2.152   0.113  14.181  0.2312  0.0322 -0.1325
 6329W        W21798  11.244  10.774  14.163 -0.0299 -0.1509 -0.3174
 6330W        W21799   4.392  15.372  16.736  0.0813  0.2541 -0.0006
 6331W        W21800   1.983   9.942   1.731 -0.0000  0.1053 -0.0867
 6332W        W21801   2.158  16.476  14.339 -0.0076 -0.1688 -0.2080
 6333W        W21802  14.893   4.710   0.633 -0.0286 -0.0282  0.1323
 6334W        W21803  16.353  16.836   2.766 -0.0169  0.0999  0.1160
 6335W        W21804  17.282   1.588  13.119 -0.3687  0.0014 -0.0865
 6336W        W21805  15.394   3.694   5.300 -0.2234 -0.1335 -0.2120
 6337W        W21806  10.116  15.918  12.035  0.0110  0.0119 -0.2397
 6338W        W21807  15.876   1.395  11.482 -0.0827  0.1563 -0.2497
 6339W        W21808   0.666  12.790   5.738 -0.2173  0.3151  0.2110
 6340W        W21809  17.610  12.346  12.782  0.2274  0.0342 -0.1866
 6341W        W21810  11.346   5.120  14.114  0.2019  0.0680 -0.1435
 6342W        W21811   1.412  14.368   5.743 -0.1675  0.2060 -0.1786
 6343W        W21812  14.853   7.930  14.018 -0.0748  0.0525  0.0474
 6344W        W21813  14.368   7.203   1.940  0.1372  0.0013  0.0726
 6345W        W21814  15.735  16.384  16.101  0.4052  0.1577 -0.0541
 6346W        W21815   0.458   0.694   1.169  0.2272  0.1960 -0.0226
 6347W        W21816  11.162   8.747  13.874  0.1182  0.1087 -0.1636
 6348W        W21817  16.050   7.562   3.155 -0.1186  0.2120  0.0044
 6349W        W21818  10.424   7.510   5.783 -0.1276 -0.2016 -0.2330
 6350W        W21819  14.793  16.312  15.599 -0.1221 -0.1038 -0.0931
 6351W        W21820   7.789  14.147   4.965  0.0946 -0.1366 -0.0707
 6352W        W21821  16.756   9.369  16.044  0.0428  0.0587 -0.1803
 6353W        W21822  17.743   0.770   3.828  0.3225  0.0285  0.0315
 6354W        W21823   9.482  17.098  15.755 -0.1685  0.3018 -0.0325
 6355W        W21824   9.281   7.681   2.934  0.1360  0.1242 -0.2489
 6356W        W21825   6.816  13.429   3.320 -0.0738 -0.0910  0.4125
 6357W        W21826   3.202  16.518   1.024 -0.0105  0.3106  0.2700
 6358W        W21827  11.229   3.308   4.206  0.3194 -0.0374 -0.2610
 6359W        W21828  12.879  12.908  16.088 -0.0786 -0.2250  0.2875
 6360W        W21829   3.795   6.896   2.476  0.2331  0.0146  0.0495
 6361W        W21830  12.125   4.571   1.388  0.0652  0.2115  0.4493
 6362W        W21831   1.022   4.316  16.376 -0.0804  0.0010  0.2657
 6363W        W21832  10.423   2.100   5.848 -0.1443  0.1906  0.0486
 6364W        W21833  14.280  15.745   2.290  0.0861 -0.2058  0.1165
 6365W        W21834   2.201  11.078  11.281 -0.0175 -0.0401  0.0966
 6366W        W21835   2.033   4.234  15.461  0.0021 -0.1636 -0.0468
 6367W        W21836   7.144   5.532  15.750  0.0336  0.2110  0.1187
 6368W        W21837  12.552  16.785  13.591 -0.1912 -0.1205 -0.1200
 6369W        W21838   1.199   2.415   0.439  0.0219 -0.0414  0.0803
 6370W        W21839   9.312   5.672   2.103  0.2298  0.0440  0.0291
 6371W        W21840   2.874   1.433  15.962 -0.2614  0.2160 -0.0650
 6372W        W21841  10.456   9.940   3.749 -0.0146  0.0012  0.1953
 6373W        W21842  12.297   4.542  11.882  0.1669 -0.1376  0.1963
 6374W        W21843  16.849   5.346  16.469 -0.0142 -0.1915  0.0906
 6375W        W21844  16.715   6.999   4.534  0.2186 -0.2551  0.0361
 6376W        W21845   6.527  11.750   5.258 -0.0863  0.0779  0.2652
 6377W        W21846  13.817  12.110  12.410  0.0145 -0.0362 -0.1884
 6378W        W21847   1.469  12.881   0.713  0.1850 -0.1033  0.1184
 6379W        W21848   7.009   0.250  11.928 -0.3763 -0.1034  0.1489
 6380W        W21849  12.916  13.900  12.686  0.1423  0.2604  0.1695
 6381W        W21850   0.777  14.167  14.685  0.1925  0.0174  0.1960
 6382W        W21851  15.858  17.699   1.429 -0.0441  0.0271  0.0119
 6383W        W21852  11.478  10.397   6.663  0.1903 -0.1639 -0.1350
 6384W        W21853  10.319  15.437  12.114  0.0459 -0.1770  0.2018
 6385W        W21854   6.781   5.886   5.279  0.0702 -0.1648 -0.2258
 6386W        W21855   0.145  13.085   3.031  0.0445  0.0887  0.0097
 6387W        W21856   7.261   2.890   1.127  0.2006 -0.1677 -0.1772
 6388W        W21857   8.842   4.907  12.421  0.0678  0.1215 -0.0539
 6389W        W21858   6.938   5.080  15.629  0.0226  0.4974 -0.1237
 6390W        W21859   7.017   1.055  14.919 -0.0683 -0.2207  0.2959
 6391W        W21860  11.769   1.333  11.260  0.0189 -0.1892 -0.0713
 6392W        W21861   1.520   2.585   0.826  0.1530 -0.0330 -0.2339
 6393W        W21862   6.831  13.352  13.171  0.0110  0.1697  0.0561
 6394W        W21863  16.637   2.542  13.668  0.0586  0.0235  0.1908
 6395W        W21864  11.549   7.855   0.805 -0.1013 -0.1172 -0.2863
 6396W        W21865   3.997   4.479   2.976  0.0583  0.0576 -0.0786
 6397W        W21866   0.400   8.698  12.717 -0.1600  0.1546  0.1364
 6398W        W21867   0.490   7.397  16.281  0.0193  0.4078 -0.1498
 6399W        W21868  16.850   3.414  13.402 -0.2304 -0.0239  0.1121
 6400W        W21869  17.226   9.381   4.555 -0.0866  0.0901 -0.1191
 6401W        W21870   0.560  11.663   3.243  0.4491  0.3317 -0.0289
 6402W        W21871   5.022   9.209   0.628 -0.1079  0.2830  0.0313
 6403W        W21872  11.290   3.440   2.869  0.0290 -0.4060  0.0468
 6404W        W21873   5.592   8.081   0.864  0.3588 -0.0096  0.2175
 6405W        W21874   4.645  16.183   5.523  0.1585 -0.1474 -0.0146
 6406W        W21875  14.092  11.377  11.752  0.0720 -0.0590 -0.2896
 6407W        W21876   3.754  14.434  15.711  0.0988 -0.0677  0.3674
 6408W        W21877  15.516   1.694   5.952  0.0921  0.2235 -0.0686
 6409W        W21878  17.279  14.394  13.092 -0.0331  0.0226  0.1763
 6410W        W21879   2.355  16.683   4.894  0.0640  0.2205 -0.0806
 6411W        W21880   6.569   1.682  13.134 -0.3464  0.0963  0.1778
 6412W        W21881  14.192   7.132   3.595  0.0361 -0.1247  0.0475
 6413W        W21882  12.413   2.048   1.911  0.3023 -0.0086 -0.0321
 6414W        W21883  12.507  16.774   3.403  0.0945  0.0456  0.2273
 6415W        W21884   4.882   5.626  15.823  0.1063 -0.2319  0.0140
 6416W        W21885   1.867   1.684   0.388  0.2351  0.0458 -0.0656
 6417W        W21886  13.579   9.497   4.980  0.1047 -0.1438  0.1314
 6418W        W21887  12.705   1.299  12.931  0.1467 -0.2210  0.1245
 6419W        W21888  12.942   9.409  15.122  0.2057  0.0446  0.0997
 6420W        W21889   2.992   8.997  15.413  0.1190  0.0284 -0.0510
 6421W        W21890  15.364   6.400  12.132 -0.1028 -0.4813  0.1975
 6422W        W21891  13.638  16.921   6.386  0.3972  0.2066 -0.0348
 6423W        W21892   9.510  13.062   0.651 -0.2091 -0.0069  0.1973
 6424W        W21893  12.983   0.090   1.315 -0.0550  0.2610  0.3109
 6425W        W21894   2.889  11.428  12.269 -0.0549  0.2591  0.0767
 6426W        W21895  17.492   9.835  11.614  0.0023 -0.3185 -0.2443
 6427W        W21896  10.405  14.472   1.909  0.0074 -0.0133 -0.2786
 6428W        W21897  15.518   9.413   3.528  0.2850 -0.1290 -0.0201
 6429W        W21898   0.183  17.540  11.300  0.1361 -0.0093 -0.0718
 6430W        W21899  11.265   9.139   2.562 -0.2506  0.1063 -0.0859
 6431W        W21900  12.645   8.399  11.411 -0.0571 -0.0380 -0.0328
 6432W        W21901  17.000  13.096   3.865 -0.1996 -0.0016  0.1502
 6433W        W21902   1.950   8.784   1.715 -0.0538  0.0429 -0.3362
 6434W        W21903   6.673   7.190  12.387 -0.0173 -0.1122  0.1968
 6435W        W21904   6.830   1.737  14.808  0.1892 -0.0595 -0.0411
 6436W        W21905   9.055   5.868  12.776 -0.0669  0.3025  0.1185
 6437W        W21906  11.411   1.217  13.541 -0.1021 -0.0339  0.0940
 6438W        W21907  17.726  13.622  13.240 -0.0352  0.0683  0.0441
 6439W        W21908  12.517   5.446  12.889  0.3039 -0.0511  0.1951
 6440W        W21909  11.814   5.465  12.308 -0.2874 -0.3146  0.1860
 6441W        W21910   7.572   2.693   3.534  0.1233  0.3247 -0.1939
 6442W        W21911  10.815   8.820   0.091  0.2573 -0.2540  0.1211
 6443W        W21912  15.054  14.575   1.523  0.1914  0.1499  0.1556
 6444W        W21913   7.016   4.344   0.915 -0.0686  0.0650 -0.4731
 6445W        W21914  16.465   8.709   2.046 -0.1973 -0.0538  0.3227
 6446W        W21915   7.135   8.716   0.653  0.1349  0.1899  0.0514
 6447W        W21916   8.006   7.663  12.868  0.1203  0.0158  0.2711
 6448W        W21917   6.035  17.331   1.884  0.2589 -0.1822  0.2655
 6449W        W21918  17.311   2.688  14.911  0.0003 -0.0750 -0.0338
 6450W        W21919   6.769   8.517  15.375  0.0335  0.1749 -0.1623
 6451W        W21920  15.098  15.472  11.308 -0.0154  0.1924  0.1716
 6452W        W21921   9.901  13.471  16.582  0.0114  0.2382  0.0456
 6453W        W21922   3.348   1.350   2.796 -0.3750 -0.0456  0.0821
 6454W        W21923   9.811   0.177  13.462  0.4146 -0.2044  0.4664
 6455W        W21924   7.165  12.615   2.145 -0.0391 -0.0278 -0.0797
 6456W        W21925  15.546   9.914  13.451  0.3345  0.0621 -0.0846
 6457W        W21926  13.759  12.113  15.931 -0.1259  0.0993 -0.1207
 6458W        W21927  11.437  17.761  11.775 -0.0129 -0.4393  0.1450
 6459W        W21928  14.914  11.222   3.858  0.0963 -0.0285  0.2972
 6460W        W21929  17.689   1.936   4.808 -0.2564  0.3364 -0.0176
 6461W        W21930  16.272   9.368  15.984 -0.0199  0.0849 -0.2806
 6462W        W21931  17.249   9.365  16.019 -0.1086 -0.2412  0.1593
 6463W        W21932  12.878  12.918  11.632  0.3514 -0.0138 -0.1724
 6464W        W21933  16.006   9.666  11.348  0.2817  0.0439 -0.2562
 6465W        W21934   9.591  11.444   3.990  0.0258  0.3607  0.2239
 6466W        W21935   9.405  11.157  12.082 -0.3177  0.0090 -0.0222
 6467W        W21936   6.066  10.278  15.578  0.2324 -0.2990 -0.0039
 6468W        W21937   9.176  15.064  14.058 -0.0762 -0.1856 -0.0531
 6469W        W21938  10.500  13.775  13.449 -0.1560 -0.3071 -0.0407
 6470W        W21939  14.055  14.099  11.896 -0.0289 -0.1662  0.2594
 6471W        W21940   7.821   9.289   0.829  0.1257 -0.1276 -0.0658
 6472W        W21941  13.166   9.415  13.566 -0.0527 -0.0983 -0.1454
 6473W        W21942   1.501  16.799  11.510 -0.1052  0.1470  0.0670
 6474W        W21943  14.544  17.038   0.645  0.5244 -0.0258  0.0505
 6475W        W21944  12.936  16.748   0.807 -0.1035  0.1884  0.0863
 6476W        W21945   9.456   2.801   4.316  0.0991  0.0090  0.4127
 6477W        W21946   5.740  11.731  15.740 -0.3203 -0.1022 -0.0305
 6478W        W21947   4.450  11.568   1.788  0.0005  0.0541 -0.0609
 6479W        W21948  11.187  10.107  11.968 -0.0075  0.0939  0.1382
 6480W        W21949   0.176  14.731   1.251  0.4056 -0.3682 -0.2513
 6481W        W21950  16.565   8.292   2.512  0.3229  0.1135 -0.0487
 6482W        W21951   4.613   9.482  14.024  0.1082  0.0359 -0.0017
 6483W        W21952  10.565  13.089   1.967  0.2305  0.1830 -0.1068
 6484W        W21953  16.301   8.176  11.667  0.2455  0.0433 -0.0944
 6485W        W21954   6.721   5.457  15.433 -0.0150 -0.1578  0.2064
 6486W        W21955  16.125  15.155   4.636  0.0076 -0.1669 -0.0013
 6487W        W21956  13.852  13.843  15.613 -0.1064  0.0474 -0.1680
 6488W        W21957   3.735   4.917  12.880  0.1738  0.0512  0.1871
 6489W        W21958   9.418   9.272   0.412 -0.1506  0.1900 -0.0984
 6490W        W21959  15.686   0.605  13.011  0.0378  0.0398 -0.0642
 6491W        W21960  17.325   5.823   3.357  0.0291  0.0350  0.1512
 6492W        W21961   8.585  11.217   4.757  0.2159  0.0216  0.2014
 6493W        W21962   4.205  10.965   4.993  0.0791 -0.3019  0.2995
 6494W        W21963  11.412  15.245  11.997  0.0849 -0.0394 -0.0052
 6495W        W21964   1.300   7.821   1.542 -0.4289 -0.0921 -0.0152
 6496W        W21965  10.403   1.340  15.900 -0.1189  0.2784  0.0919
 6497W        W21966  10.290   7.932  14.271 -0.0270  0.1443  0.0429
 6498W        W21967   0.538   2.345  14.596 -0.0779 -0.1465 -0.0142
 6499W        W21968  16.159  10.442   2.379  0.1531 -0.0100  0.1729
 6500W        W21969  16.678   7.425   1.192  0.3034  0.0600  0.0509
 6501W        W21970   2.074  10.488   3.678  0.0453 -0.0859  0.2985
 6502W        W21971   3.886   8.267  11.796 -0.0496  0.2377 -0.2293
 6503W        W21972   8.995   3.267  15.807 -0.1494 -0.1396 -0.0692
 6504W        W21973   0.906  14.771   3.937 -0.1780 -0.1861  0.0618
 6505W        W21974   8.724  14.837  14.010 -0.2702  0.2021 -0.1197
 6506W        W21975   3.763   2.240   4.524  0.3342  0.1120 -0.1028
 6507W        W21976   6.388   9.760   4.044 -0.0048 -0.0929  0.2908
 6508W        W21977   6.519   2.226   0.780 -0.3064 -0.1435 -0.0979
 6509W        W21978   3.289   3.005   4.423  0.3525  0.2550 -0.0667
 6510W        W21979  16.656   6.717  14.502 -0.0005 -0.0730  0.0522
 6511W        W21980  11.550  11.675   2.159 -0.0659  0.1537 -0.0922
 6512W        W21981  12.321  14.458  11.923  0.2680 -0.2406  0.0674
 6513W        W21982  16.720  12.117  16.726  0.2634 -0.0632 -0.2016
 6514W        W21983   8.660   8.657   3.538 -0.0347  0.1891  0.1930
 6515W        W21984  14.181   0.321   3.578  0.1527 -0.3340  0.4138
 6516W        W21985   5.736  12.225  15.549  0.0341  0.0488 -0.1881
 6517W        W21986  10.793   4.729   0.938  0.1196  0.4856 -0.0348
 6518W        W21987   2.953   9.458   1.835  0.0688 -0.0637 -0.1470
 6519W        W21988   2.783  13.825  15.958  0.0324 -0.2492  0.0421
 6520W        W21989  15.736  15.167  15.227  0.0404  0.0270 -0.0626
 6521W        W21990  17.259  14.928   4.630 -0.0995  0.0865  0.0475
 6522W        W21991  14.677   4.548   2.289 -0.0069  0.0203  0.3894
 6523W        W21992   5.431   0.155   2.849  0.1869  0.0191  0.1338
 6524W        W21993  13.326   9.378  12.309  0.0947 -0.0531  0.3736
 6525W        W21994  12.354   4.588   5.989  0.2356 -0.0733  0.3457
 6526W        W21995  14.000  12.564  12.495  0.0742 -0.1546 -0.0182
 6527W        W21996   6.008  13.134   3.056 -0.1058 -0.0728 -0.1347
 6528W        W21997   3.641  17.178   0.501  0.1173  0.1372 -0.2200
 6529W        W21998   6.083   8.257  15.486 -0.1558 -0.3349  0.1396
 6530W        W21999   2.166  11.790  15.474 -0.0891  0.1595  0.2917
 6531W        W22000   3.802   1.739  14.484 -0.0497 -0.0758 -0.1012
 6532W        W22001   0.870   0.167  14.247 -0.0992  0.0777  0.1095
 6533W        W22002   7.631   0.738   3.874  0.1939  0.1759 -0.0300
 6534W        W22003  17.496   5.715  15.342 -0.3508 -0.2388  0.0311
 6535W        W22004  16.423  16.014  16.785 -0.2193 -0.0707  0.1263
 6536W        W22005  15.932   6.171  16.149  0.1785  0.0851 -0.3066
 6537W        W22006   0.674   0.485  13.797 -0.0406  0.0982  0.1668
 6538W        W22007   2.457   1.962   2.438  0.1092 -0.0115 -0.0390
 6539W        W22008  13.921   3.005  12.748  0.0210 -0.2232  0.0467
 6540W        W22009  16.574   6.525   0.686  0.2522 -0.0059  0.1555
 6541W        W22010   9.845  13.858  15.069  0.2823  0.2501 -0.0304
 6542W        W22011   8.636  16.785  14.118 -0.1244  0.3454  0.1289
 6543W        W22012   0.066  10.278   1.085  0.0694 -0.0695 -0.0500
 6544W        W22013   4.474   0.314   2.044  0.0911 -0.0913 -0.0539
 6545W        W22014  15.217   1.549   0.530 -0.1108  0.0045 -0.0239
 6546W        W22015   4.937   2.387   5.852 -0.1523 -0.2335  0.0350
 6547W        W22016  11.009  17.345   2.932  0.1315 -0.3975  0.3000
 6548W        W22017  17.570   7.253  11.457  0.2168 -0.0869 -0.1663
 6549W        W22018   6.691   4.676  11.320 -0.1708 -0.1281 -0.1853
 6550W        W22019  15.581  11.889   3.239 -0.0630  0.0329  0.1129
 6551W        W22020  13.283  14.167   5.277 -0.0149 -0.0093  0.3088
 6552W        W22021  13.382   2.722  16.461  0.0186 -0.0373 -0.2141
 6553W        W22022   8.978   5.414   3.928 -0.2285 -0.1921 -0.1739
 6554W        W22023  12.566   7.313  15.239  0.0860  0.0532  0.1795
 6555W        W22024   9.924   7.137  14.552  0.0536 -0.2074  0.0576
 6556W        W22025  17.683   0.520   0.292 -0.1641 -0.2639 -0.0290
 6557W        W22026  10.620  11.253   4.434 -0.2903  0.0296 -0.1906
 6558W        W22027  17.620   1.426  15.182  0.0703  0.1105  0.0557
 6559W        W22028  14.972   0.953   2.228 -0.2755  0.0409  0.2837
 6560W        W22029   3.299   0.169   5.487  0.2119 -0.3351 -0.0287
 6561W        W22030   4.962   0.454   4.144  0.1793 -0.0922  0.0392
 6562W        W22031   4.848  10.735  16.276  0.2673  0.3500 -0.0809
 6563W        W22032  15.667   7.279  16.388 -0.3081  0.0158  0.2570
 6564W        W22033   0.092  13.613  16.367  0.1300 -0.1383 -0.0379
 6565W        W22034  12.971   1.566  15.308  0.3231  0.1906  0.0005
 6566W        W22035   2.925   8.884  15.913 -0.0150  0.1370  0.2454
 6567W        W22036   4.572  15.834   1.050  0.0495  0.0168  0.0636
 6568W        W22037   6.263   8.598   5.499  0.1546  0.2221  0.1946
 6569W        W22038   6.346  14.139   3.025  0.0878 -0.2471  0.0375
 6570W        W22039   7.404   6.871  16.828 -0.0451  0.1586  0.1320
 6571W        W22040   1.768   0.441   2.160  0.0847 -0.1066 -0.0185
 6572W        W22041   9.191   6.665   0.141 -0.1028 -0.0127 -0.4220
 6573W        W22042  12.067  12.501   4.482  0.0306 -0.1339 -0.1933
 6574W        W22043   0.016   9.643  14.135 -0.0053 -0.2632 -0.0594
 6575W        W22044  14.072   3.918   1.549  0.1238  0.0221  0.0385
 6576W        W22045  16.975   5.006  12.394  0.0768 -0.0900  0.2031
 6577W        W22046   4.020   0.210  11.374  0.2218  0.0537 -0.0936
 6578W        W22047   8.068   1.699   1.444  0.0281 -0.0203 -0.2877
 6579W        W22048   4.780   1.303   4.039 -0.0807 -0.0003  0.2112
 6580W        W22049   7.684   1.949  16.335  0.0234 -0.1180  0.0525
 6581W        W22050  13.790  15.444   3.005  0.2071 -0.0536  0.2843
 6582W        W22051   4.036  14.242  16.062  0.1259  0.2479 -0.3403
 6583W        W22052  10.605  17.297  15.695 -0.1735  0.3176 -0.0526
 6584W        W22053   0.999  11.940   4.620  0.1120 -0.1551  0.1221
 6585W        W22054   8.254  15.340   1.938  0.0561 -0.0495 -0.0037
 6586W        W22055  14.542  15.525  16.518  0.0824  0.1156 -0.0725
 6587W        W22056  17.393   3.687   0.304  0.2183 -0.0647 -0.1094
 6588W        W22057  13.728   7.310  12.025  0.0311  0.0070  0.1318
 6589W        W22058  16.129   4.642  14.308 -0.1045  0.2524  0.0012
 6590W        W22059   0.955   4.358   0.622 -0.1536  0.0526 -0.0524
 6591W        W22060  10.942   0.755   5.609 -0.0656  0.1053 -0.2011
 6592W        W22061   3.910   0.028  14.281 -0.0615 -0.0896 -0.0374
 6593W        W22062  11.154   9.326  14.765 -0.0534 -0.1442 -0.0536
 6594W        W22063   3.740   4.300  12.491 -0.1087 -0.0498  0.1088
 6595W        W22064   9.673   4.559  15.850 -0.1718  0.2268 -0.0136
 6596W        W22065  10.094   8.642  14.853 -0.0166  0.2638  0.1174
 6597W        W22066   8.205   2.396  14.924 -0.2792  0.2438 -0.2405
 6598W        W22067  14.332  14.142   4.036  0.2294 -0.4376 -0.1928
 6599W        W22068  12.279  10.368   3.594  0.1428  0.4238  0.1164
 6600W        W22069  12.438  10.896  12.724 -0.0158 -0.0210  0.1046
 6601W        W22070  11.904   1.525   2.444  0.0417 -0.1250  0.0465
 6602W        W22071   8.208   8.164   1.460  0.3764 -0.3953 -0.1834
 6603W        W22072   8.103   5.657   0.194 -0.0674 -0.3187 -0.1648
 6604W        W22073  12.008  11.152   1.509 -0.1144 -0.0107 -0.1761
 6605W        W22074   9.328   0.649   1.228 -0.1094 -0.0910  0.0490
 6606W        W22075   2.217   0.762   3.445  0.2246 -0.1714  0.2448
 6607W        W22076  12.050   6.545  15.169 -0.1290  0.0317 -0.2402
 6608W        W22077   7.212   9.880  15.645  0.2395 -0.1092 -0.0550
 6609W        W22078  12.381   9.362  11.623 -0.1589  0.3729  0.3265
 6610W        W22079   0.958   8.869   0.268 -0.3410  0.0575  0.1422
 6611W        W22080   1.059  14.651  13.741 -0.1520 -0.3817 -0.0653
 6612W        W22081  12.879   1.114   2.778  0.0261 -0.0245  0.2034
 6613W        W22082   1.367   9.430   4.944  0.1562 -0.0197  0.2258
 6614W        W22083   0.334   5.961  16.738  0.0149  0.1263  0.3002
 6615W        W22084  12.652   6.301  13.962  0.0253  0.2107  0.0466
 6616W        W22085   9.870   7.799   2.984 -0.2260 -0.2605 -0.2936
 6617W        W22086  11.035   7.767  16.803  0.1034  0.1537 -0.1065
 6618W        W22087   2.294   0.754  11.814  0.0618 -0.1274  0.1672
 6619W        W22088   0.105   8.277   4.486 -0.0696  0.2206 -0.0484
 6620W        W22089   8.803  12.887   3.042 -0.1064 -0.3300  0.0923
 6621W        W22090  15.047   5.420  15.504  0.1313  0.2414  0.0121
 6622W        W22091   0.853   0.529   4.728  0.1630  0.1361 -0.1428
 6623W        W22092   8.644  14.115  15.058  0.0696 -0.0483  0.1920
 6624W        W22093   9.335   5.990  16.173 -0.2692  0.0527 -0.0798
 6625W        W22094   0.161  11.539  16.602  0.0913 -0.0521  0.0203
 6626W        W22095   2.053  16.479  14.868 -0.2581 -0.0572  0.0754
 6627W        W22096   4.416  10.052   3.726  0.4551 -0.3595  0.0634
 6628W        W22097   4.541  16.074  13.822  0.2597 -0.1120  0.1434
 6629W        W22098   0.162   4.527   2.875  0.1822  0.1601 -0.0079
 6630W        W22099  10.187   5.642  15.339  0.1619 -0.2993  0.1215
 6631W        W22100   0.420  14.956   4.132 -0.3583  0.0765  0.2293
 6632W        W22101   4.168   0.780   4.568  0.3426  0.2387 -0.1619
 6633W        W22102   8.853  13.288   1.331 -0.1389  0.0366  0.1116
 6634W        W22103   1.193   7.135  14.545  0.2424  0.3258  0.3451
 6635W        W22104   2.566   8.940  11.216 -0.0718 -0.0644  0.1749
 6636W        W22105   4.858   5.563   2.736 -0.2377 -0.1728  0.0779
 6637W        W22106  17.609   9.281  12.335 -0.0299  0.2234 -0.0336
 6638W        W22107  16.459   5.564  16.136 -0.0073  0.3284  0.2732
 6639W        W22108  14.089   7.959  16.585 -0.2265  0.0044 -0.2214
 6640W        W22109  10.358   1.403   1.653  0.0065  0.0362 -0.0626
 6641W        W22110   3.628   4.503   3.374  0.4007  0.1409  0.1850
 6642W        W22111   1.950  11.943   4.821  0.2507  0.0164 -0.2041
 6643W        W22112  16.870  12.586   2.111 -0.1583  0.0712  0.0967
 6644W        W22113   0.313   7.507  15.054  0.0491  0.3206 -0.1484
 6645W        W22114   5.898  13.152   0.824  0.1667  0.1787  0.3091
 6646W        W22115   6.547   3.575   3.233  0.0957  0.3086 -0.2805
 6647W        W22116   7.681   6.564   6.149 -0.2841  0.1016  0.0703
 6648W        W22117  15.523   9.768   1.634  0.0488  0.0307 -0.2911
 6649W        W22118  11.235  14.500   1.345  0.4344  0.0398  0.2237
 6650W        W22119   1.972  16.737  13.369  0.0550  0.1649 -0.1551
 6651W        W22120  11.321   2.187   1.953 -0.2725  0.0396 -0.2902
 6652W        W22121  15.625  13.324   3.952  0.3143 -0.0727 -0.1109
 6653W        W22122   1.493   4.012  12.876  0.1426  0.0279 -0.0751
 6654W        W22123   6.512   3.490  12.514 -0.3704  0.3493 -0.0147
 6655W        W22124  16.999  16.983   1.487  0.2233  0.0666  0.2209
 6656W        W22125   0.679   7.732  15.937 -0.1938 -0.0181 -0.2014
 6657W        W22126   4.102   1.711  11.699 -0.0565 -0.0503  0.0281
 6658W        W22127   6.944  14.193   3.666 -0.1326 -0.3158 -0.0326
 6659W        W22128   6.009  17.299   2.350 -0.0042 -0.1973  0.1565
 6660W        W22129  14.496   7.187   0.097  0.0800  0.1863  0.2058
 6661W        W22130   2.733   2.969   5.340  0.0484 -0.0372  0.2057
 6662W        W22131   6.257   0.998  16.686 -0.1976  0.3750  0.1075
 6663W        W22132   0.778  12.413  12.325 -0.3490 -0.0261  0.0541
 6664W        W22133   2.083   7.602   4.873 -0.3828  0.1851 -0.1311
 6665W        W22134   1.621  12.693  12.190  0.1019  0.2706 -0.0792
 6666W        W22135   4.232   5.318   4.735  0.1569 -0.1185  0.1652
 6667W        W22136   9.963   2.892  15.613  0.2348  0.1476  0.0288
 6668W        W22137   6.043  12.801   2.665 -0.1705  0.0222 -0.0031
 6669W        W22138  10.346   6.293  13.839 -0.3595  0.0862 -0.3409
 6670W        W22139   8.594   8.924   2.620  0.0022 -0.1548  0.0138
 6671W        W22140   7.221   3.143   2.844  0.2433  0.1642 -0.1522
 6672W        W22141   4.063  12.741   1.745  0.3784  0.2038 -0.0560
 6673W        W22142   7.236   7.495   4.122  0.1681 -0.0075  0.2495
 6674W        W22143   6.680  10.515  13.123 -0.1668  0.1209 -0.0561
 6675W        W22144   8.690   3.337   4.355 -0.2934 -0.1058  0.1305
 6676W        W22145   6.031  11.030   4.748  0.0090 -0.1258  0.0723
 6677W        W22146  17.558   1.393   4.881 -0.0372 -0.0179 -0.0360
 6678W        W22147   8.227  16.748   2.244 -0.0759  0.1112  0.1677
 6679W        W22148   7.096   8.332  14.981  0.0453 -0.1570  0.0391
 6680W        W22149   9.310   7.643   4.004  0.1212 -0.2369  0.0618
 6681W        W22150   0.836   8.806   3.473  0.1353  0.1026  0.1640
 6682W        W22151  13.092  11.705   4.257 -0.0506 -0.1103 -0.2437
 6683W        W22152   1.950   4.921   4.962 -0.1947  0.4112 -0.0584
 6684W        W22153  11.213   1.888  14.185 -0.0065 -0.2357 -0.1191
 6685W        W22154  12.021   9.683  14.953  0.3584  0.0150  0.1185
 6686W        W22155   2.258   7.768   2.338  0.2456  0.1627  0.1248
 6687W        W22156  12.155   1.878   4.147  0.1687  0.2952  0.0583
 6688W        W22157   9.103   9.000   2.821  0.0377  0.0478  0.0821
 6689W        W22158   0.266  14.234   3.331 -0.0888 -0.1302  0.0803
 6690W        W22159  16.396   9.790  12.199 -0.0043  0.1233 -0.0823
 6691W        W22160   0.361   4.102  15.951  0.1696 -0.0168 -0.0426
 6692W        W22161  15.862  16.773   1.470  0.1110  0.3780  0.2445
 6693W        W22162   9.194  16.069   5.525 -0.0091 -0.0444 -0.0207
 6694W        W22163   9.287   2.201  15.737 -0.1464  0.2132 -0.2079
 6695W        W22164   2.076   3.676  14.773 -0.3302  0.3326 -0.2146
 6696W        W22165   9.948  14.637   2.137 -0.2667 -0.0823  0.5308
 6697W        W22166   5.786  10.484  16.693 -0.0390  0.0812  0.1963
 6698W        W22167  17.126  14.698  13.880 -0.0948  0.0678 -0.3848
 6699W        W22168   1.043   6.368   2.495 -0.0236 -0.0032 -0.0308
 6700W        W22169   5.503   7.454  15.353  0.0985  0.1723  0.0517
 6701W        W22170   9.575  11.955   2.355  0.1312 -0.1944  0.2349
 6702W        W22171   8.186  10.887   5.550 -0.4928  0.0374  0.3094
 6703W        W22172  16.503   6.305   1.194  0.0349  0.1695 -0.2770
 6704W        W22173  13.425  11.841  13.321 -0.0589  0.0793  0.1095
 6705W        W22174   1.056   7.721  13.397  0.1093  0.1506 -0.2596
 6706W        W22175  13.760   2.180   0.666 -0.0732  0.0028  0.1225
 6707W        W22176   5.154   1.318  10.832  0.1556 -0.0186 -0.1161
 6708W        W22177   3.390   3.724  13.590  0.2404  0.0742  0.0359
 6709W        W22178   8.327  15.381   0.658 -0.2256 -0.2891  0.2274
 6710W        W22179  11.818   7.441   2.001  0.0268  0.0198 -0.1038
 6711W        W22180   4.972  17.319   2.122 -0.0265  0.2179  0.0490
 6712W        W22181   7.805  13.532   0.219 -0.0135  0.2446  0.0104
 6713W        W22182  16.455   7.168   5.322 -0.3189  0.0911 -0.2414
 6714W        W22183  12.898  15.131   1.434 -0.0268  0.1098  0.0007
 6715W        W22184   0.926  16.536  16.624  0.0156  0.0354  0.0740
 6716W        W22185   7.648   6.836   5.718  0.1795  0.2793  0.2124
 6717W        W22186   1.753   0.853   1.924 -0.4052  0.4180 -0.2490
 6718W        W22187   8.368  11.555   5.653  0.0195 -0.2218 -0.1039
 6719W        W22188  17.218  10.891  10.925 -0.1186  0.2973  0.0034
 6720W        W22189   4.492   5.208  15.729 -0.1902 -0.1640 -0.0598
 6721W        W22190  13.830  12.638   3.119  0.0067  0.1345 -0.3230
 6722W        W22191   6.186  12.324  14.665 -0.0025  0.0169  0.1100
 6723W        W22192   1.134   1.882   3.243 -0.0376  0.2967  0.1745
 6724W        W22193  16.125   8.835  12.350  0.1792 -0.1228 -0.0646
 6725W        W22194  16.651   6.128   4.490 -0.0254  0.1070  0.1597
 6726W        W22195   8.201  14.560  12.650  0.0805  0.0786 -0.1489
 6727W        W22196   1.397  10.908  13.321 -0.0254 -0.0613 -0.2802
 6728W        W22197  11.684   5.265  16.322  0.0415 -0.1097 -0.1210
 6729W        W22198   2.948  12.771  15.200  0.2859 -0.0639 -0.1945
 6730W        W22199   4.430   3.926  16.077 -0.1968  0.1858  0.3810
 6731W        W22200  12.754   5.956   1.073 -0.0139  0.0281  0.1650
 6732W        W22201   8.464   0.834  16.346 -0.0072 -0.3453 -0.1005
 6733W        W22202  10.862  16.241   3.275  0.0272  0.0423  0.0006
 6734W        W22203  14.347  17.525  16.695 -0.2166 -0.3714 -0.1762
 6735W        W22204  14.315  10.804  16.773  0.1253  0.0675 -0.1906
 6736W        W22205   7.079  14.987  13.555 -0.1775  0.0099  0.1769
 6737W        W22206   6.163  13.266  13.918 -0.4868 -0.1410 -0.2001
 6738W        W22207  13.957  11.864   4.512  0.0787 -0.0911 -0.1217
 6739W        W22208   0.323   7.246  11.436  0.3597 -0.3040 -0.1260
 6740W        W22209  12.060   5.859   3.906 -0.1491 -0.0496  0.1051
 6741W        W22210  13.310   6.573   4.698 -0.2524  0.0712 -0.0720
 6742W        W22211  17.050   4.599  11.540  0.2554  0.2510  0.0770
 6743W        W22212  12.966  16.745  15.108 -0.0957  0.2196  0.1105
 6744W        W22213   7.834  12.067   1.817  0.1439  0.2975  0.0268
 6745W        W22214   7.938   5.248  15.514 -0.0159 -0.0044 -0.0282
 6746W        W22215   5.201  17.382   5.293 -0.0139 -0.0976 -0.2027
 6747W        W22216  17.100  11.029  12.283  0.1048  0.1493  0.1831
 6748W        W22217  14.155   8.018  12.113  0.2995  0.0036 -0.1025
 6749W        W22218   3.431   6.652  13.224  0.0511  0.1458  0.2429
 6750W        W22219   2.290   3.100  14.649  0.0592 -0.3486 -0.2352
 6751W        W22220  12.550   9.051  12.522  0.0576  0.1789 -0.2477
 6752W        W22221  11.168  12.236  15.919  0.2506  0.0207  0.1777
 6753W        W22222  15.553   3.719  16.008  0.1951  0.2343  0.1457
 6754W        W22223   8.914   4.969   3.069  0.1378 -0.1680 -0.1621
 6755W        W22224  13.215   1.363  16.226  0.0774 -0.0340  0.2925
 6756W        W22225  10.470   2.554   2.120  0.1077  0.0676  0.1917
 6757W        W22226   7.141   3.453   4.404 -0.0808  0.0311  0.1605
 6758W        W22227  10.494   1.360  16.463  0.0334 -0.0203 -0.1299
 6759W        W22228   8.262   0.212   4.371 -0.0439  0.0908  0.1288
 6760W        W22229  17.013   1.229   1.391  0.0394  0.0874 -0.1151
 6761W        W22230   3.446  16.683  13.740  0.3497 -0.1702 -0.2509
 6762W        W22231  12.474  11.196   0.155  0.0220  0.1724 -0.0389
 6763W        W22232  11.429  13.677   0.706  0.0983 -0.0887 -0.0591
 6764W        W22233   8.511   0.435   5.451 -0.1097  0.0613 -0.2334
 6765W        W22234   4.293   0.258   2.615 -0.0530 -0.2668 -0.0128
 6766W        W22235   6.791   4.675  13.855  0.0741 -0.2292  0.0136
 6767W        W22236  17.274  12.718   5.373  0.1786 -0.0239  0.2624
 6768W        W22237  13.335   5.209  12.791 -0.2918 -0.2160 -0.2419
 6769W        W22238   3.621  11.191   2.141  0.1366  0.0360 -0.2100
 6770W        W22239  15.508   6.267  15.263 -0.1342 -0.0279  0.0940
 6771W        W22240  14.961  17.136   3.276  0.1344 -0.1981  0.1022
 6772W        W22241  16.022   1.347  12.496 -0.3467  0.2772 -0.1392
 6773W        W22242   0.167   0.167  16.208 -0.1627 -0.2766  0.0739
 6774W        W22243  12.071  10.339   6.501  0.0949 -0.2226  0.0264
 6775W        W22244  13.434  12.122  16.333  0.1071  0.4336  0.2918
 6776W        W22245  10.066  15.657  15.935 -0.0677 -0.0784  0.1251
 6777W        W22246   1.404   0.587   3.782  0.1228  0.3082 -0.1825
 6778W        W22247   9.951   1.498  16.406  0.0260  0.5371 -0.0639
 6779W        W22248   9.868  11.904  12.728  0.3648  0.2228 -0.0533
 6780W        W22249  14.843   3.370  14.297  0.1767 -0.2126  0.3553
 6781W        W22250   3.064  15.301  14.673 -0.2202 -0.2186  0.1193
 6782W        W22251  14.171   5.291   1.717  0.1272 -0.1493 -0.1442
 6783W        W22252   6.203  16.741   3.756  0.0072  0.3050 -0.1273
 6784W        W22253  12.489   7.082  13.571  0.2713  0.2409  0.2663
 6785W        W22254  16.238   3.121  12.014  0.1297  0.1373 -0.0921
 6786W        W22255  11.435  16.227  16.171  0.1085 -0.1817  0.0113
 6787W        W22256  16.718   1.046  15.532  0.1446  0.1297  0.2397
 6788W        W22257   1.778  11.013  14.717  0.0224  0.0689 -0.1054
 6789W        W22258   7.772   0.654  15.344  0.0237  0.0363 -0.3409
 6790W        W22259  16.695   9.837  10.451  0.0249  0.2874  0.4202
 6791W        W22260  13.353   9.870   1.333 -0.0708  0.2318 -0.3148
 6792W        W22261   0.459   1.196   3.259  0.0468 -0.0083 -0.0974
 6793W        W22262   6.358   7.224  15.996 -0.0311 -0.1966  0.0202
 6794W        W22263   8.842  16.392   1.227  0.1155  0.0771  0.1689
 6795W        W22264  14.340   3.873  13.567  0.0269  0.0952 -0.0408
 6796W        W22265  11.981   0.114   5.550 -0.0970  0.0602  0.0016
 6797W        W22266   2.799   2.049  15.477 -0.2994 -0.1889  0.1434
 6798W        W22267   9.857  17.183   2.815 -0.1966  0.0293 -0.0560
 6799W        W22268  12.306   0.772   2.540  0.0369  0.0883  0.0993
 6800W        W22269   6.737   4.226  11.703  0.2978 -0.0773  0.2829
 6801W        W22270  10.549   3.632   2.700  0.0915  0.1019 -0.0767
 6802W        W22271   0.898   1.500  12.376  0.0299 -0.2551 -0.1336
 6803W        W22272  10.686  17.046  11.629  0.0618  0.0480 -0.2380
 6804W        W22273  12.817  11.282   5.777  0.2021  0.1946  0.1758
 6805W        W22274  14.590  17.135  16.019 -0.0099 -0.0667  0.0443
 6806W        W22275   0.703   2.672   1.569  0.1676 -0.1172  0.0418
 6807W        W22276  13.636  11.312  16.531 -0.0467  0.2871  0.3714
 6808W        W22277   1.622  13.006   3.876 -0.2356  0.4846  0.2450
 6809W        W22278  10.685   7.902   4.252  0.1314 -0.0652  0.3099
 6810W        W22279   1.989  12.836   1.515 -0.1672 -0.0589 -0.2796
 6811W        W22280  11.342   2.905  15.530  0.1295  0.0863  0.1056
 6812W        W22281   5.113  10.678  15.335  0.0810  0.0228 -0.1405
 6813W        W22282   4.612  10.654   1.621 -0.0570 -0.0488  0.0967
 6814W        W22283  10.861   4.637  16.166 -0.1798 -0.0159  0.1817
 6815W        W22284  13.815   7.066   1.740 -0.0537 -0.1580 -0.1939
 6816W        W22285   9.889   6.212  13.016 -0.1493 -0.3567 -0.1422
 6817W        W22286   9.878  14.357   0.739 -0.0277  0.0476  0.0627
 6818W        W22287   3.053  15.649   4.949 -0.3047 -0.0429 -0.1191
 6819W        W22288   7.794  12.392  12.088  0.0807  0.2960  0.2953
 6820W        W22289  12.178  14.948  12.118 -0.1195  0.1314 -0.1014
 6821W        W22290  11.421   8.634  15.899  0.1857 -0.0233 -0.3395
 6822W        W22291  14.420  14.630  11.188 -0.1726 -0.3037  0.1644
 6823W        W22292  11.141  16.150   4.402  0.0883  0.0066  0.0899
 6824W        W22293   9.117  16.566  15.093 -0.4012 -0.2371  0.1377
 6825W        W22294   1.510   8.150   2.323  0.1070 -0.0952  0.0324
 6826W        W22295  15.371   5.619  11.896 -0.1074 -0.4271  0.2742
 6827W        W22296   9.504  15.083  11.895 -0.1580 -0.0597  0.1877
 6828W        W22297   2.601   0.704   0.547 -0.0375  0.1532 -0.1358
 6829W        W22298   5.188  17.716   1.384  0.2831  0.2122 -0.2119
 6830W        W22299   1.792   6.008   2.936 -0.2201 -0.0431  0.1738
 6831W        W22300  14.125  13.102  11.734 -0.1519 -0.2986 -0.0298
 6832W        W22301   3.699  11.136   5.216 -0.1171  0.4353  0.1837
 6833W        W22302   8.303   4.443   1.841 -0.0875  0.3707 -0.3535
 6834W        W22303  15.212  12.330  14.653  0.1247  0.2515  0.0698
 6835W        W22304  10.405   8.420  12.682 -0.0084  0.0856  0.1059
 6836W        W22305  13.090  13.030   3.243  0.0943 -0.1532  0.1849
 6837W        W22306  16.217   6.613   2.263  0.2285  0.1166 -0.5031
 6838W        W22307   3.757  10.174  15.530 -0.3074 -0.0912 -0.0547
 6839W        W22308  10.047  10.917   1.171  0.2567 -0.0773 -0.2999
 6840W        W22309  11.605   5.023   5.661 -0.3020 -0.0062  0.1204
 6841W        W22310   8.847   6.233  14.660 -0.1086  0.1005 -0.2186
 6842W        W22311   1.542   0.046  11.765  0.0414  0.0160  0.1608
 6843W        W22312  11.272   6.532   0.078 -0.0226  0.1452  0.0237
 6844W        W22313   0.455   1.963  16.753  0.0930  0.4403  0.0438
 6845W        W22314   8.198  11.589  13.594 -0.1507 -0.1505 -0.2694
 6846W        W22315  14.568  14.262   2.165 -0.1565 -0.3535  0.4431
 6847W        W22316   2.952   8.321  14.460  0.0328 -0.1114  0.1334
 6848W        W22317  11.293  15.936   3.010  0.4038  0.1956 -0.1820
 6849W        W22318   1.072  14.942   2.328  0.2419  0.0083  0.2002
 6850W        W22319   6.295   8.154  16.623 -0.1172 -0.0576 -0.3751
 6851W        W22320   2.263  15.421   1.753 -0.2411 -0.2414  0.1547
 6852W        W22321   6.177   9.788   1.638 -0.1322 -0.0127  0.0365
 6853W        W22322  15.505   8.718  14.935 -0.0270 -0.1000 -0.2793
 6854W        W22323   6.849   1.310   1.854 -0.0769  0.0137 -0.0305
 6855W        W22324  12.563   7.709  14.886  0.0459  0.2132  0.4293
 6856W        W22325   1.528   1.480  11.508 -0.1066  0.0113 -0.1308
 6857W        W22326   6.913   1.659  11.588 -0.0275  0.1152  0.3277
 6858W        W22327  12.458   4.542   0.964 -0.0210 -0.0388 -0.1152
 6859W        W22328  11.593   1.925   5.049  0.0779  0.1375  0.1235
 6860W        W22329  11.102   9.312   4.508  0.0840 -0.2574 -0.1491
 6861W        W22330  15.735  12.846  14.223  0.2872 -0.0255 -0.1046
 6862W        W22331   6.503   6.123  14.416  0.2128  0.1518  0.1773
 6863W        W22332   4.519  11.349   4.259 -0.0610  0.1795 -0.0482
 6864W        W22333  14.469   3.625   0.268 -0.2064 -0.0901  0.0300
 6865W        W22334  13.297  17.352   2.786  0.1243 -0.0219  0.0005
 6866W        W22335  11.341   7.372  11.850 -0.0709 -0.2110  0.0159
 6867W        W22336  14.852   2.965  15.596 -0.1582 -0.0210 -0.1947
 6868W        W22337   0.176   9.189   4.495  0.1430  0.2560  0.1766
 6869W        W22338   1.534  17.665   3.054  0.1086 -0.1049 -0.1205
 6870W        W22339   7.944   6.091   0.361  0.0161 -0.2242  0.0359
 6871W        W22340  13.294  12.959  11.985  0.0129  0.2086  0.1356
 6872W        W22341  13.889   2.727  16.592 -0.4008  0.1878 -0.2173
 6873W        W22342   1.531  12.839   3.431  0.3521  0.0048 -0.2404
 6874W        W22343   4.771  12.704   4.520 -0.0024 -0.2624 -0.2071
 6875W        W22344   8.514  14.527   4.535  0.1754 -0.2611 -0.3934
 6876W        W22345  16.118  13.866  15.260  0.0210  0.1934  0.0393
 6877W        W22346  16.731  16.885  13.980  0.0073  0.1547 -0.0751
 6878W        W22347   9.746   3.922  16.613  0.0576 -0.0836 -0.1958
 6879W        W22348  13.674  12.892  10.945  0.1154  0.0524 -0.0272
 6880W        W22349   3.664   8.649   4.746  0.3123  0.2563  0.0413
 6881W        W22350  14.327  15.754  14.584 -0.2393  0.0457  0.2621
 6882W        W22351  10.666   8.072   2.609  0.0520  0.2104 -0.1607
 6883W        W22352   3.654   1.339   5.569  0.1218  0.1480 -0.0435
 6884W        W22353   4.105   2.001  14.884  0.0002  0.3284  0.1366
 6885W        W22354   9.737  17.231   0.627 -0.1130 -0.5367 -0.2046
 6886W        W22355   8.722   6.469   0.877  0.0061  0.0447 -0.2980
 6887W        W22356  14.312  16.775   0.128  0.0041 -0.0231 -0.1054
 6888W        W22357  15.100  16.115  12.926 -0.0415  0.0105 -0.0807
 6889W        W22358   3.107   3.063   2.162  0.0051  0.1675 -0.4480
 6890W        W22359   6.538   4.592  10.778  0.0466 -0.1920  0.1351
 6891W        W22360   0.189   3.549  12.811 -0.0742 -0.0643  0.1877
 6892W        W22361   4.808  17.385   4.217 -0.0557 -0.0416 -0.0166
 6893W        W22362   4.277   7.965  16.476 -0.0040  0.0039 -0.1250
 6894W        W22363   2.556   9.195  16.264  0.0404 -0.0354 -0.1414
 6895W        W22364  16.565   9.360   1.013  0.0966  0.1049  0.1254
 6896W        W22365  13.095  16.495   5.049 -0.2488 -0.1847 -0.1550
 6897W        W22366   9.019   2.733  16.728 -0.0168 -0.0859 -0.3580
 6898W        W22367  10.681   6.627   5.717  0.1984  0.0350 -0.0195
 6899W        W22368   7.035  14.068   4.595  0.1686  0.2414  0.1180
 6900W        W22369   7.115   5.666  12.738 -0.2400 -0.1780  0.1547
 6901W        W22370   2.939   1.731  14.663  0.1507 -0.1123 -0.0716
 6902W        W22371  13.213  11.052   3.741 -0.0341  0.2552  0.0628
 6903W        W22372  13.687  17.043  16.230  0.0479  0.1864  0.1932
 6904W        W22373   6.200   5.862   1.830 -0.2645  0.0364 -0.1587
 6905W        W22374   9.959   6.295   4.136 -0.0750  0.1331 -0.0157
 6906W        W22375  11.256   5.811   2.564 -0.0453 -0.3628  0.0461
 6907W        W22376  14.814  10.186   4.581  0.0236 -0.2289 -0.1630
 6908W        W22377   2.951   3.094  12.973  0.2840 -0.0777 -0.2015
 6909W        W22378   1.119   0.758  12.853  0.2101  0.2771 -0.1500
 6910W        W22379   3.337  10.362   3.390 -0.0624 -0.0575 -0.1083
 6911W        W22380  12.032  15.480   5.278  0.1196  0.3709 -0.1870
 6912W        W22381   5.423   2.616  11.909 -0.1194  0.2362 -0.0396
 6913W        W22382  12.124  10.099  13.217 -0.0336  0.1801  0.0147
 6914W        W22383  11.315   9.680  13.551  0.0627  0.1265 -0.1438
 6915W        W22384  14.492   5.492  12.985 -0.2847  0.2766  0.1820
 6916W        W22385   6.226  13.059   5.218 -0.1044 -0.0065 -0.1115
 6917W        W22386  10.362  17.458   4.467 -0.2839 -0.0337  0.1096
 6918W        W22387  16.949  17.019  16.094 -0.0998 -0.0492  0.1776
 6919W        W22388   6.024  16.294   3.679 -0.3006 -0.1183  0.1286
 6920W        W22389  17.110   8.745  11.910 -0.1243 -0.1809 -0.0402
 6921W        W22390  12.817   0.784  15.851 -0.3114  0.0394  0.2053
 6922W        W22391   1.318  17.626  14.001 -0.0837  0.1554 -0.3999
 6923W        W22392  15.969   6.585   0.637  0.1957 -0.0800  0.3462
 6924W        W22393   2.526  16.249  14.792  0.0365  0.3903 -0.1371
 6925W        W22394   7.335   4.932   3.188 -0.0769  0.0256  0.0545
 6926W        W22395   3.729   9.420  13.171 -0.1657  0.1746  0.1119
 6927W        W22396  16.375  11.471   1.751 -0.1753  0.2133 -0.0647
 6928W        W22397   2.464  11.635   0.358  0.1114 -0.0563 -0.0411
 6929W        W22398  11.496  12.757  12.164 -0.1082 -0.1293  0.0015
 6930W        W22399   8.132   1.325   3.055 -0.0499  0.1416  0.0193
 6931W        W22400   5.726  13.282  11.769  0.1188  0.1226 -0.0230
 6932W        W22401  17.500  15.199  14.196  0.0526 -0.0978 -0.1756
 6933W        W22402   0.289   2.657   0.486  0.2094  0.0667  0.1183
 6934W        W22403   3.719   4.739  14.154  0.0148  0.0149 -0.2655
 6935W        W22404   8.972  16.198  13.165 -0.0166 -0.0373  0.0268
 6936W        W22405  13.457   4.809   3.217 -0.1922 -0.2211  0.0345
 6937W        W22406  10.150  11.008  16.237 -0.0704  0.0636  0.0147
 6938W        W22407  11.212   7.069   4.673 -0.0943 -0.1354  0.0584
 6939W        W22408   6.429  14.938   5.225  0.0478 -0.2264 -0.0043
 6940W        W22409   5.619   2.411  14.735 -0.1380  0.0886 -0.0312
 6941W        W22410   2.261   1.068  11.142 -0.3145 -0.1588 -0.2941
 6942W        W22411   0.432   8.555  15.555  0.2597 -0.2090  0.1055
 6943W        W22412   4.649   6.526   2.711 -0.1178 -0.0418 -0.2765
 6944W        W22413  12.184  15.806  12.070  0.3149  0.2251 -0.0340
 6945W        W22414  14.094   3.336  16.413 -0.1085 -0.0022 -0.0061
 6946W        W22415  10.137   2.541   5.680 -0.2800  0.0599 -0.0054
 6947W        W22416  10.986  10.028   4.609  0.0617  0.1068  0.0558
 6948W        W22417   8.097  14.164  12.229 -0.0388 -0.2506 -0.2304
 6949W        W22418  11.316  11.045   5.044 -0.0415 -0.1553  0.0345
 6950W        W22419  14.151  12.022   1.666  0.0022  0.0398 -0.0338
 6951W        W22420   9.134   1.648   4.017  0.1031  0.0387 -0.2292
 6952W        W22421   1.577  11.242  14.311 -0.1139  0.0375 -0.1111
 6953W        W22422  13.756  15.014   0.431 -0.0781  0.0266 -0.1083
 6954W        W22423  16.325  10.998   0.508 -0.0348  0.2440 -0.0027
 6955W        W22424   3.106  14.318   0.708 -0.2946  0.1296  0.0655
 6956W        W22425   6.520   9.433  15.529  0.1856  0.1344 -0.0277
 6957W        W22426   0.658   7.828  14.842  0.0228  0.1763 -0.0502
 6958W        W22427   1.161  13.555  16.331 -0.1549 -0.1129  0.1697
 6959W        W22428   4.030   9.240  12.152  0.4278  0.1147  0.1598
 6960W        W22429   1.752  12.609   1.146  0.1404  0.0501  0.2208
 6961W        W22430   7.119  12.218  11.166 -0.0212  0.1130  0.0152
 6962W        W22431  16.279   3.426   1.982  0.1552  0.3103  0.0015
 6963W        W22432  12.459   7.190  14.679  0.1814 -0.1135  0.0673
 6964W        W22433  15.131   0.071  13.964 -0.0932 -0.1442 -0.2715
 6965W        W22434   5.745   2.756  15.550  0.0890 -0.0354 -0.2503
 6966W        W22435   3.972   4.734  16.399 -0.0985  0.1076  0.1102
 6967W        W22436  14.491  12.203   5.126  0.0339 -0.0224 -0.1878
 6968W        W22437   2.046  15.373   2.306 -0.3120  0.0775 -0.1955
 6969W        W22438  14.295  17.711  11.930  0.0155  0.1645 -0.1043
 6970W        W22439   3.446   5.543   4.403 -0.1360  0.1970 -0.1243
 6971W        W22440  15.867   9.306   3.907 -0.0671 -0.0876  0.1052
 6972W        W22441   2.240   2.712  11.609  0.1036  0.2078  0.2366
 6973W        W22442  14.057   4.542  11.794 -0.2089  0.0969  0.1551
 6974W        W22443  14.649  17.126  13.698 -0.2303  0.1035 -0.0451
 6975W        W22444   1.767   6.071  15.340  0.1519 -0.0728  0.1638
 6976W        W22445  14.288  16.314   0.341 -0.2053 -0.0646  0.0247
 6977W        W22446   8.408   6.974  14.549  0.1201 -0.2762 -0.4253
 6978W        W22447  14.774  16.888   3.734 -0.0407 -0.2456  0.2644
 6979W        W22448   8.872  10.851  14.233  0.0122  0.1100  0.1454
 6980W        W22449  12.794  16.026  12.428 -0.2052 -0.0406  0.1925
 6981W        W22450  12.494  16.925   1.876  0.3578 -0.1240  0.1022
 6982W        W22451  12.827   6.168   5.316 -0.2239 -0.0195 -0.2574
 6983W        W22452   8.852   3.498  14.754 -0.0055 -0.0589  0.4693
 6984W        W22453   3.707   0.423   0.305  0.0867 -0.0353 -0.1739
 6985W        W22454   9.246  12.604   0.657 -0.0752  0.1218  0.2419
 6986W        W22455  16.345   6.901  16.664 -0.1355 -0.2492 -0.1422
 6987W        W22456  14.734  14.711   1.082 -0.1887  0.2171 -0.0684
 6988W        W22457   7.633   5.829   5.489 -0.0344 -0.3294 -0.5329
 6989W        W22458   1.979  15.919   1.953 -0.1798 -0.0225  0.0523
 6990W        W22459   9.137  11.265   4.914  0.1449 -0.2506  0.0638
 6991W        W22460  10.236   2.283   0.597  0.0143 -0.0722  0.0401
 6992W        W22461  12.886   9.765   4.805 -0.1556  0.0102  0.2660
 6993W        W22462  14.925   8.209  14.465  0.0338  0.1160 -0.0786
 6994W        W22463   2.726   7.448   0.907  0.0212  0.0483 -0.0330
 6995W        W22464  10.397   2.175   3.097 -0.1270  0.0571 -0.0781
 6996W        W22465   0.441   9.987  12.240 -0.0633 -0.1443  0.1003
 6997W        W22466   3.284  13.199   2.250  0.1211  0.0244 -0.0195
 6998W        W22467  14.864   4.173   0.867 -0.0703 -0.0647 -0.0449
 6999W        W22468   6.272  13.905   0.126  0.2862 -0.2463  0.1473
 7000W        W22469  12.071  14.393   0.498  0.0126 -0.2995 -0.0333
 7001W        W22470   1.032   2.158  11.257 -0.0362 -0.1168  0.2102
 7002W        W22471   9.188   9.880  11.946  0.0204  0.1136 -0.1528
 7003W        W22472  13.810   6.044   3.475 -0.0867 -0.0706 -0.0781
 7004W        W22473  13.350   9.718   4.418  0.2283  0.1269  0.3411
 7005W        W22474  15.407   2.228   5.729  0.1254  0.1958 -0.1924
 7006W        W22475   3.101   4.727   0.580 -0.1942  0.0491 -0.0956
 7007W        W22476  16.562   4.427   6.029 -0.3871  0.0551  0.0622
 7008W        W22477  16.545   4.796  11.680  0.2571 -0.0289  0.3292
 7009W        W22478  15.758  11.515   1.019  0.1394 -0.0384  0.0131
 7010W        W22479   9.195  11.477  15.763 -0.3021  0.0812  0.2809
 7011W        W22480  12.432  13.761  11.971  0.0606  0.2639  0.1051
 7012W        W22481  11.052   6.669  13.348 -0.0326  0.0375 -0.3525
 7013W        W22482  11.490  17.668  11.219 -0.1295 -0.2691 -0.0186
 7014W        W22483   7.543  14.223  13.136 -0.1448  0.0852  0.0783
 7015W        W22484  12.905   1.512  14.436  0.2154  0.2532 -0.0990
 7016W        W22485  13.595   1.757   1.410  0.0368 -0.3629 -0.1168
 7017W        W22486  13.747  12.860  14.279  0.2971 -0.0355  0.0231
 7018W        W22487  13.377   2.050   4.806  0.0542 -0.2019  0.0181
 7019W        W22488   6.159   6.565   1.861 -0.0832  0.3937 -0.0059
 7020W        W22489   3.030  14.665   5.600  0.0535 -0.2619  0.2012
 7021W        W22490  10.046  10.017   2.057 -0.2991 -0.0661 -0.0176
 7022W        W22491   5.659   6.057   1.125 -0.0763  0.0987 -0.0926
 7023W        W22492   4.610   0.122   3.530 -0.1132 -0.0601  0.1360
 7024W        W22493  11.843   5.333  15.442 -0.0564  0.0069  0.1572
 7025W        W22494  17.054  10.812   0.208 -0.1070  0.1648 -0.0903
 7026W        W22495  16.448  14.833  14.561  0.0408  0.0733 -0.1520
 7027W        W22496  14.337   7.969  13.016 -0.0366 -0.0114  0.3018
 7028W        W22497   0.318  14.730  12.188  0.0742 -0.1477  0.1934
 7029W        W22498   5.137  11.912   5.549  0.0731  0.0006 -0.0318
 7030W        W22499  12.616   3.912   5.508 -0.1976 -0.0447 -0.2599
 7031W        W22500   4.501   6.004  11.251  0.2165 -0.3223 -0.2937
 7032W        W22501   6.843  12.823   1.348 -0.1487  0.0732  0.0170
 7033W        W22502  16.618  14.709   5.193  0.0571 -0.1675 -0.3203
 7034W        W22503  12.767  17.387   5.410  0.0867 -0.0674 -0.2958
 7035W        W22504  17.696  14.107  14.651 -0.0081 -0.3288 -0.2114
 7036W        W22505  16.546   1.905  12.714  0.1243  0.0687  0.1647
 7037W        W22506  15.556   0.500  12.472  0.0354 -0.3764  0.2265
 7038W        W22507  16.145  11.267  14.796 -0.1815  0.0274  0.1286
 7039W        W22508   6.608  11.281   1.300  0.1057 -0.2906  0.0979
 7040W        W22509   2.354  17.607  12.041  0.3157 -0.0265  0.0545
 7041W        W22510   3.129  14.439   1.230  0.0894 -0.1451 -0.0810
 7042W        W22511   1.850  11.724  10.024 -0.0602 -0.1368  0.0269
 7043W        W22512  14.950   3.125  15.135 -0.2405  0.0194 -0.0168
 7044W        W22513  16.050   4.594   1.230 -0.0599  0.0129  0.2404
 7045W        W22514   8.236  12.948   6.124  0.1139 -0.2971  0.0972
 7046W        W22515  12.316  13.100  12.788 -0.2004  0.0678  0.3917
 7047W        W22516   8.074   0.289  11.887  0.1863 -0.0893 -0.2935
 7048W        W22517   3.969  16.178  15.785  0.0663  0.0196  0.1703
 7049W        W22518  13.415   1.734   0.635  0.1106  0.3574 -0.0553
 7050W        W22519   9.467   5.732  14.825  0.2080 -0.0053  0.0274
 7051W        W22520   8.232   0.956   2.700  0.1127 -0.4683 -0.0563
 7052W        W22521  15.923   0.694  13.919 -0.0305 -0.1245 -0.1506
 7053W        W22522   8.766   6.289   1.359 -0.0040 -0.0080  0.1231
 7054W        W22523  10.514  14.634  12.908 -0.0092 -0.1986  0.0659
 7055W        W22524   5.046  13.003   2.678  0.1544  0.3213  0.0129
 7056W        W22525  15.574   0.039  11.875 -0.0218  0.2027  0.1241
 7057W        W22526   9.873   1.220   4.982  0.1515 -0.1774  0.1450
 7058W        W22527   7.778   8.753   4.598 -0.0184  0.0312  0.1866
 7059W        W22528   4.237  13.924   2.274 -0.5430 -0.0857 -0.1797
 7060W        W22529   7.319  10.256   3.346  0.0380 -0.0925 -0.2815
 7061W        W22530   8.599  14.985  15.401 -0.0735  0.0010  0.0243
 7062W        W22531   2.117   3.022  14.200  0.0875 -0.2079  0.2304
 7063W        W22532   8.342  12.582   3.077  0.0339  0.2419 -0.2549
 7064W        W22533  12.668   5.516   4.756  0.0616 -0.2143 -0.2759
 7065W        W22534   6.248   7.991  11.329  0.1803 -0.0620 -0.0127
 7066W        W22535  10.961  13.899   0.493 -0.2269 -0.1828  0.1719
 7067W        W22536   8.212   6.740  11.990  0.2191 -0.0590  0.1180
 7068W        W22537   3.210   8.325  12.588  0.1390  0.0804 -0.0850
 7069W        W22538  14.775   2.890   4.334 -0.0652 -0.0906  0.2302
 7070W        W22539  11.828   8.586   2.182  0.0733 -0.0862  0.3162
 7071W        W22540   2.170   3.936   2.174  0.0025 -0.0332  0.0387
 7072W        W22541   0.343   3.966   1.052 -0.0651 -0.1537  0.1849
 7073W        W22542   4.719   0.866  11.662 -0.0540  0.1408  0.2397
 7074W        W22543   0.293   0.222  11.543  0.0718 -0.0602  0.1754
 7075W        W22544  15.092  11.803  12.544 -0.0928  0.2046 -0.0145
 7076W        W22545  11.636  11.133   5.951 -0.1716  0.2500  0.1729
 7077W        W22546   0.968   0.601  13.379  0.2097  0.0779  0.2163
 7078W        W22547  13.375   4.090  13.024 -0.1806 -0.0688 -0.1700
 7079W        W22548   2.515   2.303  11.774  0.0648 -0.2246  0.0117
 7080W        W22549   0.219  12.605   0.803  0.2307  0.3240 -0.1074
 7081W        W22550  11.658  15.372   0.410 -0.0741 -0.1986 -0.1414
 7082W        W22551   3.242   9.691  13.052  0.1170 -0.0046 -0.0489
 7083W        W22552  15.900  10.951  16.585  0.0696 -0.1372  0.3297
 7084W        W22553   0.590   8.718  16.741  0.1540 -0.0904 -0.1014
 7085W        W22554  12.317   5.183  11.899 -0.1918  0.0003  0.1631
 7086W        W22555  15.973  10.776   5.639 -0.3152  0.0826  0.0663
 7087W        W22556   9.885   9.550  16.742 -0.0935 -0.0750 -0.3378
 7088W        W22557   4.822   2.376   2.151  0.0826 -0.1527 -0.0361
 7089W        W22558   9.067  11.825   3.359 -0.0916 -0.1367 -0.1379
 7090W        W22559  15.404  14.545   4.646 -0.0512 -0.1756 -0.0248
 7091W        W22560  11.256  11.791  15.489 -0.2607  0.0683  0.1258
 7092W        W22561  10.894  13.429   2.036  0.1280 -0.4343  0.1337
 7093W        W22562   2.118   2.639  16.842 -0.0210 -0.1297  0.0470
 7094W        W22563  15.190   2.152   2.252 -0.1863 -0.1506 -0.0397
 7095W        W22564   2.464  16.067   1.244 -0.2202 -0.0751 -0.0905
 7096W        W22565   6.113   1.529   5.580 -0.0234 -0.0106  0.1125
 7097W        W22566  10.786   6.207   0.811 -0.2274  0.0288 -0.0773
 7098W        W22567  10.666  10.959  16.424 -0.0800  0.0024  0.2516
 7099W        W22568   2.353   7.722   2.854 -0.0495  0.2272  0.3015
 7100W        W22569  14.398  12.064   5.937 -0.0674 -0.0134 -0.2684
 7101W        W22570   6.766   4.283  14.354 -0.0017  0.0933  0.3743
 7102W        W22571   6.629  13.277   2.165 -0.1460 -0.4407 -0.2157
 7103W        W22572   0.462  15.907  13.355  0.3276 -0.0226 -0.0873
 7104W        W22573  15.725  16.386   3.707 -0.1916 -0.0727 -0.0801
 7105W        W22574   7.949   0.203   3.083  0.1122 -0.0834  0.2209
 7106W        W22575  16.924  11.386   4.945  0.0602 -0.0086  0.1366
 7107W        W22576  13.833   3.984  11.743 -0.1239  0.2596  0.0077
 7108W        W22577  14.032  13.390   3.018  0.0754 -0.3207 -0.2955
 7109W        W22578   1.375   0.532   1.066  0.2486 -0.1400 -0.1382
 7110W        W22579  17.418   5.893   2.138  0.0329  0.1056 -0.1552
 7111W        W22580  16.963  12.857   1.294  0.0404 -0.0270 -0.3034
 7112W        W22581   0.348   5.698  12.748  0.2592 -0.0169 -0.1716
 7113W        W22582   0.286   3.632  16.057  0.1360  0.0338 -0.2173
 7114W        W22583   9.251  12.646   2.688  0.1928  0.0254 -0.2180
 7115W        W22584  10.737  14.939  16.418 -0.2626  0.0225  0.1638
 7116W        W22585  16.791  11.703  15.828 -0.1424  0.0084  0.0870
 7117W        W22586   4.315  14.384   4.666  0.0414  0.1225 -0.1437
 7118W        W22587  14.071   8.139  10.766  0.2932 -0.1069 -0.0932
 7119W        W22588  12.147  13.973  12.767 -0.2187  0.0498 -0.0715
 7120W        W22589  11.259   4.392   1.345 -0.1188 -0.2087  0.3164
 7121W        W22590   1.443   2.435   3.867  0.4507  0.0598 -0.1204
 7122W        W22591  15.010  12.536   2.566 -0.1179 -0.1373  0.4054
 7123W        W22592  17.718   3.415  16.368 -0.0391  0.0473 -0.1859
 7124W        W22593  10.209   8.310   0.477  0.0757 -0.0647 -0.2510
 7125W        W22594  14.334   3.326  14.372  0.1028 -0.0836 -0.0195
 7126W        W22595   3.096   6.556  15.290 -0.0388  0.0549  0.3290
 7127W        W22596  15.937   4.786   4.712 -0.1127 -0.0070  0.0306
 7128W        W22597   5.791  16.519   0.584  0.1847  0.1392 -0.2314
 7129W        W22598   3.231   2.431   5.359  0.2071  0.0829  0.2596
 7130W        W22599   6.941   2.423   5.200  0.3200  0.0744 -0.0497
 7131W        W22600   4.578  12.001  11.736  0.1905 -0.1452  0.0490
 7132W        W22601  10.695  16.198   1.826  0.2940  0.0529 -0.5175
 7133W        W22602   5.610  13.801   1.716  0.0470 -0.3231  0.0299
 7134W        W22603   3.587  11.228  12.055 -0.0365 -0.0248  0.2240
 7135W        W22604  16.505   3.026  15.054 -0.1408 -0.3038 -0.0098
 7136W        W22605  11.427  11.866   1.320 -0.2714 -0.0444 -0.1532
 7137W        W22606   5.856   7.450   1.396 -0.0220 -0.1277 -0.1355
 7138W        W22607  11.598   8.186  15.685  0.1496  0.4162 -0.0625
 7139W        W22608   9.487  11.864   4.215  0.2361  0.0173 -0.0627
 7140W        W22609  14.663  15.282  12.055  0.2597  0.0945 -0.0339
 7141W        W22610   0.114  13.177  15.563 -0.2193 -0.1603  0.0547
 7142W        W22611   0.934   0.782   0.991  0.0190 -0.0492  0.1224
 7143W        W22612   0.886  11.635  12.793  0.0234 -0.0567  0.1088
 7144W        W22613  16.437   5.788  13.387 -0.1445 -0.1530 -0.1659
 7145W        W22614  14.569   7.841   5.703  0.1563 -0.1275 -0.3927
 7146W        W22615   6.606   7.438  13.386 -0.0756  0.0014  0.0022
 7147W        W22616   8.024  10.268  13.427 -0.1679  0.3398  0.1349
 7148W        W22617  11.037   8.761  16.463  0.0408  0.2112  0.0773
 7149W        W22618  15.293   0.970  15.327  0.1869 -0.0615  0.1054
 7150W        W22619   0.482   1.448   2.348 -0.3041  0.1040 -0.1626
 7151W        W22620  10.258  13.633  15.324 -0.2328 -0.0494  0.0296
 7152W        W22621   2.963  16.073  14.010  0.1676  0.3104 -0.1160
 7153W        W22622   5.599  16.833   4.449 -0.3990  0.1477  0.1081
 7154W        W22623  10.940  13.023  14.234 -0.1386 -0.2444  0.3575
 7155W        W22624   0.949   3.111   1.311 -0.2732  0.1086  0.2328
 7156W        W22625   0.261  13.552  15.263  0.0610  0.0342  0.0377
 7157W        W22626  15.968   9.465  16.436 -0.1679  0.0609  0.2344
 7158W        W22627   0.435  12.221   1.163  0.1681  0.1836 -0.0379
 7159W        W22628   9.610   1.631  11.192 -0.1730  0.1611  0.3628
 7160W        W22629   3.586   3.354   0.062  0.0678  0.2008  0.3474
 7161W        W22630  17.336   2.761   3.048  0.1217  0.4430  0.2559
 7162W        W22631   7.213  14.992   5.349 -0.0327 -0.1334  0.2360
 7163W        W22632   3.030  14.335  11.278 -0.1819  0.0239 -0.1343
 7164W        W22633   8.731   7.534  15.292 -0.0917 -0.2104 -0.1135
 7165W        W22634  11.830   2.241  16.170  0.3466 -0.0752 -0.5277
 7166W        W22635  10.137   1.188  14.510 -0.0816  0.0698 -0.1731
 7167W        W22636  15.486  11.526   3.816 -0.2565 -0.1313 -0.1483
 7168W        W22637   3.739  11.221   6.018 -0.0595 -0.1677  0.3954
 7169W        W22638   6.963  11.533  16.273 -0.2594  0.1271  0.0628
 7170W        W22639   8.381   2.878  13.321 -0.0136  0.0057  0.1602
 7171W        W22640  11.447  14.597   2.759 -0.0787 -0.2297  0.0781
 7172W        W22641  13.256   0.204   4.951  0.1156 -0.3734 -0.0595
 7173W        W22642   8.463  13.857   0.626  0.0123 -0.2623 -0.0728
 7174W        W22643   1.998  10.456  15.192 -0.0535 -0.1917  0.0328
 7175W        W22644  17.501  12.837  15.527 -0.1066 -0.0783 -0.3813
 7176W        W22645  13.302  13.613  14.071  0.0130  0.0618  0.0070
 7177W        W22646   0.824   4.244  14.869 -0.0019  0.0136 -0.0369
 7178W        W22647  14.848   9.409   3.441 -0.1724  0.0191 -0.1975
 7179W        W22648   0.467   7.238  14.589 -0.0691 -0.1223 -0.3363
 7180W        W22649   2.835  16.573  15.100  0.0102 -0.1042 -0.1175
 7181W        W22650   1.067   5.206   3.663  0.0739  0.3937 -0.1905
 7182W        W22651   7.383  12.149   2.053  0.2124 -0.0437  0.0810
 7183W        W22652   9.621   5.804  12.708 -0.3696  0.0451  0.0055
 7184W        W22653   1.657   1.444  14.755 -0.1411 -0.0713 -0.0434
 7185W        W22654  12.962   8.763   3.880  0.3167  0.1891 -0.1941
 7186W        W22655  13.360   8.151   1.770 -0.1267 -0.2394  0.1586
 7187W        W22656  14.435   1.534   5.966 -0.1965 -0.0902 -0.1208
 7188W        W22657  10.037   1.724  15.779  0.1719 -0.0503  0.0084
 7189W        W22658   2.121   7.800   9.894 -0.3378 -0.1157  0.1126
 7190W        W22659   0.566  12.483   2.742 -0.1265  0.3142  0.2174
 7191W        W22660  12.262  11.216  12.322  0.2573 -0.0627  0.0892
 7192W        W22661  13.993   7.764  15.327  0.0403 -0.1240  0.1136
 7193W        W22662  14.381   5.903  12.604  0.0225 -0.0412 -0.1569
 7194W        W22663   9.404   2.289  13.371  0.1495  0.1289  0.2693
 7195W        W22664  16.353   1.417  12.963 -0.1455  0.1259  0.2052
 7196W        W22665  16.684   1.813   0.670 -0.0913 -0.1023  0.2181
 7197W        W22666  11.406   4.270  12.714 -0.0561  0.0348 -0.1479
 7198W        W22667   6.067   4.708   1.583 -0.2627  0.0375  0.2147
 7199W        W22668   5.314  16.114  14.366  0.0936 -0.1648  0.1390
 7200W        W22669  14.465  15.524   0.652 -0.1411 -0.1178 -0.2617
 7201W        W22670   5.165   3.042   2.786  0.1606  0.0820 -0.0302
 7202W        W22671  11.298   4.693   0.061  0.0476 -0.2223 -0.3351
 7203W        W22672  17.541  10.537   3.398  0.0405  0.1109  0.1345
 7204W        W22673  12.453   7.682   1.347 -0.0747  0.2263  0.4024
 7205W        W22674   6.021   1.346  15.206 -0.0825  0.2998 -0.1918
 7206W        W22675  17.059  10.132   5.261  0.0624 -0.0381 -0.2942
 7207W        W22676   7.540   3.240  13.965  0.2661  0.2106  0.1924
 7208W        W22677   0.464   7.517   1.559  0.1845  0.1118 -0.0668
 7209W        W22678   9.533   9.841  12.293  0.0582 -0.1398 -0.3038
 7210W        W22679  11.804  16.105  16.480 -0.1285  0.1745  0.2924
 7211W        W22680   2.027   9.521  14.288  0.0451 -0.0777  0.1698
 7212W        W22681   9.777  15.945  12.427 -0.1667 -0.2516 -0.4903
 7213W        W22682  17.358   4.484   1.838  0.1501  0.5251  0.1033
 7214W        W22683  14.161   7.336   1.455  0.0172  0.0029  0.1263
 7215W        W22684   9.901   7.936   5.820  0.0729  0.0624  0.2557
 7216W        W22685   0.887   7.184  13.548 -0.3610  0.0233  0.0709
 7217W        W22686  12.791   5.098   0.296  0.0032 -0.0169 -0.0510
 7218W        W22687   1.349  11.345  10.928 -0.2648 -0.0775 -0.0681
 7219W        W22688   4.231   9.744  14.884  0.0603  0.1030 -0.1160
 7220W        W22689  11.933   0.717  14.612 -0.0960 -0.3406 -0.1245
 7221W        W22690   4.329  14.362  14.053  0.0323  0.1963  0.4538
 7222W        W22691  10.199   3.555  16.112  0.3113  0.0783 -0.2577
 7223W        W22692  16.189  11.754  13.787 -0.0983 -0.0850 -0.0594
 7224W        W22693   0.719  15.587   3.515 -0.0393 -0.1515 -0.1831
 7225W        W22694   5.820  14.319   5.764  0.0958  0.0682  0.1279
 7226W        W22695   4.599   7.776   0.015 -0.0353 -0.0006  0.1428
 7227W        W22696  12.984   2.397  16.259 -0.0712 -0.0620  0.0320
 7228W        W22697   1.223   5.892   3.797  0.2424 -0.2075  0.4441
 7229W        W22698   5.211   3.525   1.220  0.1003 -0.0293 -0.2773
 7230W        W22699   2.536  15.627   0.038  0.0669  0.0897 -0.0042
 7231W        W22700   6.391   4.549   2.178  0.0262  0.1642  0.0427
 7232W        W22701   1.016   8.856  13.839  0.1554  0.0428  0.1937
 7233W        W22702   4.370   5.288   4.278 -0.1002 -0.0868  0.0583
 7234W        W22703   4.310   8.550  12.906 -0.0393 -0.1373  0.3070
 7235W        W22704   1.916   5.559  12.993  0.1677  0.1342 -0.2650
 7236W        W22705  14.569  16.414  16.485 -0.0108 -0.3715  0.0714
 7237W        W22706  13.067  15.886  16.042  0.0909  0.0184 -0.1405
 7238W        W22707  13.818   0.376  16.106  0.1791 -0.2341  0.2421
 7239W        W22708  11.320   4.649   3.216 -0.0930  0.2299  0.2773
 7240W        W22709   2.218  10.032   2.875 -0.1200  0.3488  0.4286
 7241W        W22710   6.455  14.609  12.952 -0.2439  0.0009 -0.0401
 7242W        W22711  12.512  10.666   0.356  0.1677  0.0902  0.1270
 7243W        W22712  14.547   5.216   4.994  0.0618 -0.1156  0.0209
 7244W        W22713   8.505   4.848   2.856  0.3608 -0.2595  0.2345
 7245W        W22714   3.158   1.335   0.513 -0.0377 -0.0429 -0.4048
 7246W        W22715  11.552   2.987   2.031  0.0841 -0.0085  0.4474
 7247W        W22716  11.236   5.096  16.540  0.0637  0.2955  0.1718
 7248W        W22717  10.994  17.272   5.263 -0.0702 -0.1158  0.1036
 7249W        W22718   5.678   7.376   6.439  0.1672 -0.0856  0.1662
 7250W        W22719  17.326  12.643  13.558 -0.3287 -0.1134 -0.2348
 7251W        W22720   4.286   4.483  16.776  0.1014 -0.0549  0.0123
 7252W        W22721  11.790  13.224   3.981 -0.1759 -0.0044  0.0325
 7253W        W22722   0.053   4.369   4.128 -0.0166  0.2193 -0.2289
 7254W        W22723   7.648   4.635  15.420  0.3043 -0.1726 -0.0964
 7255W        W22724  12.040  14.375   4.750 -0.1157  0.1720  0.1273
 7256W        W22725   8.621  14.466  16.229 -0.1891 -0.3311 -0.0839
 7257W        W22726  10.983   3.012  14.702 -0.2879 -0.2914  0.0413
 7258W        W22727   5.007   7.357  15.405 -0.0759 -0.3480  0.0007
 7259W        W22728  11.857   5.961   3.431  0.1081 -0.1954  0.1640
 7260W        W22729  13.979  15.827   5.379 -0.1078  0.0551 -0.1506
 7261W        W22730   3.821  14.701   1.469 -0.0329 -0.0619 -0.0045
 7262W        W22731   1.507  11.764   2.982  0.1086  0.4232  0.0093
 7263W        W22732  17.201  15.829   0.047  0.1690  0.2411  0.1505
 7264W        W22733   6.430   6.459  13.996 -0.3445  0.0895 -0.0521
 7265W        W22734   8.445   0.598   1.666  0.0429 -0.0181 -0.3268
 7266W        W22735  16.247  10.166  12.687  0.2081 -0.0877 -0.0488
 7267W        W22736   1.397   4.093   0.392  0.0805  0.0071 -0.0236
 7268W        W22737   3.306  11.170   0.172 -0.1014  0.1180 -0.2904
 7269W        W22738  10.562  10.416   5.264 -0.0091 -0.0226 -0.4024
 7270W        W22739   0.153   8.141  11.146 -0.0017  0.0967  0.0633
 7271W        W22740   7.179   7.121  16.409  0.0938  0.0496  0.0185
 7272W        W22741  10.514  16.372   6.084 -0.2217  0.0460 -0.2977
 7273W        W22742  16.035   9.060  13.421  0.1570 -0.2633 -0.0976
 7274W        W22743  11.248   5.665   5.173  0.2212  0.0248  0.4197
 7275W        W22744  10.413  10.565   3.233 -0.0830 -0.3606  0.3178
 7276W        W22745  13.238   6.496   0.103 -0.2084 -0.2529  0.0727
 7277W        W22746   9.461   8.114  11.629  0.0339  0.2839  0.0164
 7278W        W22747  13.851   4.556  12.508  0.2589  0.1275  0.2245
 7279W        W22748   6.746   5.633  13.469  0.1539  0.2374  0.4924
 7280W        W22749  14.775  12.062  14.539  0.2836  0.1105  0.1798
 7281W        W22750   1.377  15.340   1.494  0.0323  0.1226  0.1727
 7282W        W22751   1.963   2.114  13.512 -0.1043  0.0797 -0.2024
 7283W        W22752  12.804   2.033  14.206 -0.1884 -0.0924 -0.1004
 7284W        W22753   3.287   2.442  15.135  0.0104  0.0161  0.0607
 7285W        W22754   0.021   1.943   4.222 -0.1649  0.1474  0.2170
 7286W        W22755  13.681  13.719   0.022 -0.2444 -0.1629 -0.1320
 7287W        W22756   9.534  16.233   2.850  0.0568 -0.0780  0.0313
 7288W        W22757  16.328   0.856  12.256  0.0499  0.1424 -0.1685
 7289W        W22758   1.886  15.764  15.867  0.4004  0.1202  0.0108
 7290W        W22759  13.620   7.041  12.436 -0.1655  0.0477 -0.0387
 7291W        W22760   0.675   0.776   4.189  0.0774  0.1888  0.0260
 7292W        W22761   5.534   1.684  11.370 -0.2489 -0.2163  0.1204
 7293W        W22762   4.081   7.095   4.453 -0.0545 -0.3660 -0.0562
 7294W        W22763   0.463   8.797  13.418  0.0695 -0.1145 -0.1479
 7295W        W22764  12.282   9.845  14.073 -0.0924  0.0073  0.0229
 7296W        W22765   5.284  13.311  14.526 -0.1431 -0.3194  0.2533
 7297W        W22766   6.195   3.892  13.115  0.2437  0.0064 -0.1587
 7298W        W22767   1.332  12.305   3.654 -0.1264  0.0085 -0.1507
 7299W        W22768   1.911  13.678  14.759 -0.2370  0.1655  0.0829
 7300W        W22769   3.111  14.232  10.439 -0.0025  0.2501  0.1898
 7301W        W22770   7.556  13.726   5.294  0.1971 -0.0201  0.2477
 7302W        W22771  10.048  11.810  16.750  0.1456  0.1672 -0.0839
 7303W        W22772  12.940  12.887   5.517 -0.0388 -0.1737  0.2437
 7304W        W22773  13.583  13.874   2.367 -0.0940 -0.1540 -0.2964
 7305W        W22774   7.370  16.825   3.263  0.2783 -0.1321 -0.0500
 7306W        W22775  13.963   6.925   3.980 -0.0250  0.1483 -0.0699
 7307W        W22776   1.929  15.075   4.201 -0.1356  0.0758 -0.1196
 7308W        W22777   3.236   0.324   4.090 -0.1202  0.0771 -0.3012
 7309W        W22778  15.681  15.427  13.630  0.1341 -0.0558 -0.2516
 7310W        W22779   0.049  15.830  13.718  0.0203 -0.0064  0.0044
 7311W        W22780   0.054  10.956   1.979 -0.1590 -0.1928  0.1796
 7312W        W22781   5.260   3.683  12.129  0.1529  0.0509  0.1424
 7313W        W22782   8.746   0.161   4.605 -0.1340 -0.2389  0.0097
 7314W        W22783  12.349  14.183  13.373  0.0745  0.3471  0.0694
 7315W        W22784  14.170  13.827  14.542  0.1800 -0.2633 -0.2489
 7316W        W22785   9.137  14.149  11.973  0.2212  0.2376 -0.1883
 7317W        W22786  10.414  13.042  14.136  0.2205  0.1021 -0.0026
 7318W        W22787  12.770  11.887   4.833 -0.1346 -0.2262 -0.3226
 7319W        W22788  16.453  10.410  16.404  0.2452 -0.0605  0.1183
 7320W        W22789   7.568  16.267  16.473 -0.0390  0.2370 -0.2029
 7321W        W22790  17.720  13.450   6.020  0.1180 -0.0680  0.2674
 7322W        W22791  15.231  14.005  11.377 -0.1129  0.1417  0.1041
 7323W        W22792  17.745   5.581  11.375  0.1768  0.1803  0.0533
 7324W        W22793  16.466   1.007  11.780 -0.0007  0.1130  0.0298
 7325W        W22794   1.589   7.684   3.376  0.2481 -0.1778  0.0409
 7326W        W22795   5.628   9.088   1.496  0.0445  0.0181  0.3388
 7327W        W22796  10.960   3.072   3.824 -0.1754  0.1636  0.1330
 7328W        W22797   9.695   5.435  15.176  0.0817 -0.0041 -0.2983
 7329W        W22798  11.721   2.272  12.523  0.1135  0.0437 -0.0522
 7330W        W22799  13.654  10.344   0.471 -0.2386  0.0848 -0.0869
 7331W        W22800   4.419   8.407   2.193 -0.1276  0.4169 -0.0965
 7332W        W22801   9.273   0.005   5.842 -0.1752  0.2250 -0.1872
 7333W        W22802  13.102   1.380   2.336 -0.3332 -0.1610  0.0060
 7334W        W22803  12.267  11.643  15.186  0.1288  0.0710  0.3160
 7335W        W22804   0.130   4.021   2.625 -0.1546 -0.3031  0.0927
 7336W        W22805   2.345   0.519   4.104 -0.2441 -0.1531  0.2406
 7337W        W22806  16.360  13.433  16.457  0.0785  0.1562 -0.0034
 7338W        W22807   6.850   9.886  12.434 -0.1515 -0.0980 -0.0711
 7339W        W22808  12.421  13.101   0.652 -0.2444  0.0115  0.0584
 7340W        W22809   1.663   6.878  11.582  0.0472 -0.0130 -0.2987
 7341W        W22810   2.497  17.144   5.389  0.1144 -0.1574 -0.5467
 7342W        W22811   8.863  13.313  13.158  0.0825 -0.1571  0.2180
 7343W        W22812  12.436  11.889   1.238 -0.3181  0.2053 -0.0471
 7344W        W22813   3.508   6.202  12.638  0.1177 -0.0290  0.3390
 7345W        W22814   9.406   7.982  12.119 -0.0380 -0.0647 -0.2504
 7346W        W22815   7.075   0.549   1.841  0.1452 -0.0012 -0.1673
 7347W        W22816  17.107  17.765   4.931  0.2089 -0.0926 -0.0466
 7348W        W22817   8.097   5.290   3.600  0.3377  0.0712  0.2801
 7349W        W22818  14.488   7.965  16.089 -0.1406 -0.1218 -0.1678
 7350W        W22819  11.004  15.750  12.604 -0.1227 -0.2522 -0.2108
 7351W        W22820  10.559  10.925  13.230 -0.0083 -0.0630  0.2422
 7352W        W22821   2.137   5.454  12.310  0.4103  0.0878  0.1843
 7353W        W22822   6.216  11.462   1.943  0.0021 -0.0601  0.1260
 7354W        W22823   4.358   6.651   1.764 -0.0531  0.0318 -0.0470
 7355W        W22824  14.838  12.855  12.839 -0.1088 -0.2516  0.1330
 7356W        W22825  14.625  10.813  13.926  0.0237  0.3513 -0.4101
 7357W        W22826  12.827  17.684   4.390  0.1903  0.1850 -0.0539
 7358W        W22827  12.658  13.357   3.470 -0.0505 -0.0110 -0.0424
 7359W        W22828   1.558  16.009   5.025  0.0823  0.0313 -0.0055
 7360W        W22829   1.379   4.415  10.974  0.1444  0.1566  0.0427
 7361W        W22830   2.359   1.629  12.972  0.1266 -0.1479 -0.0743
 7362W        W22831  16.200  15.622  13.324  0.0479  0.1816 -0.1311
 7363W        W22832   4.813  12.633   0.897 -0.1946 -0.1524  0.4170
 7364W        W22833   7.139  10.235  14.518 -0.2112  0.1043  0.0298
 7365W        W22834   3.883  15.030   2.395 -0.0757  0.1397 -0.0205
 7366W        W22835  16.621  15.397   2.847  0.1859 -0.2451 -0.0552
 7367W        W22836   4.884   8.567  14.297  0.0345  0.0751  0.1542
 7368W        W22837  17.298  13.904  13.219 -0.0799 -0.1376 -0.1476
 7369W        W22838  17.237   2.196   5.020  0.0428 -0.0406  0.2382
 7370W        W22839  17.777  11.896  15.055  0.0271  0.2339 -0.1583
 7371W        W22840  10.272  10.809  11.920 -0.1044  0.3510  0.0919
 7372W        W22841   8.649   0.719  13.351 -0.3491  0.0098  0.0306
 7373W        W22842   6.407   6.506  12.244 -0.1036  0.0723  0.0948
 7374W        W22843   8.387  11.537  14.623 -0.0361 -0.2552  0.0366
 7375W        W22844   0.756   5.039   1.332  0.2672 -0.1180 -0.0602
 7376W        W22845   7.171  12.271   1.133  0.2906 -0.1493 -0.1056
 7377W        W22846  11.253   7.610  13.104 -0.0112 -0.1735 -0.2035
 7378W        W22847  12.978  15.379   0.954 -0.0895 -0.1413  0.2290
 7379W        W22848   5.995   3.608  12.573  0.0381  0.0405  0.1051
 7380W        W22849   0.030   6.113   2.469 -0.1086  0.1753  0.1379
 7381W        W22850  16.574   1.242   1.867 -0.1931 -0.0808  0.0798
 7382W        W22851   4.369   6.842  11.675 -0.1139 -0.0966  0.3244
 7383W        W22852   1.440  17.692   0.892 -0.0858  0.1233  0.0324
 7384W        W22853   9.388  11.595   2.654  0.0129  0.0846 -0.2961
 7385W        W22854   0.021  10.566  13.386 -0.0718 -0.0929  0.3557
 7386W        W22855  10.836   1.920   4.689  0.2392  0.1105  0.2604
 7387W        W22856   9.798   3.334  11.815  0.1344 -0.0655  0.2819
 7388W        W22857  16.870  13.868   1.357 -0.2828 -0.0279  0.3263
 7389W        W22858  16.167  17.376   1.997 -0.0411 -0.0877 -0.1054
 7390W        W22859  11.204   0.030   4.461 -0.1515  0.0924  0.0310
 7391W        W22860   7.658   0.199   6.512  0.0246  0.3298  0.1791
 7392W        W22861  16.751   7.957   2.826 -0.1993 -0.1549  0.0139
 7393W        W22862  13.025  15.740  12.839  0.0636  0.0803  0.0237
 7394W        W22863  10.040   3.658   6.452  0.0238 -0.2386  0.2599
 7395W        W22864  10.589  11.138   2.490  0.2235 -0.0351 -0.3504
 7396W        W22865  17.228   6.542   3.646 -0.3706  0.2613  0.1370
 7397W        W22866  10.654   5.658   2.757  0.0079  0.0511 -0.2262
 7398W        W22867   7.067  15.591  16.695 -0.0144  0.1653 -0.0588
 7399W        W22868  12.298   2.226  14.244  0.1686  0.2143  0.1225
 7400W        W22869   1.667  11.849  14.390  0.1018 -0.3050  0.1365
 7401W        W22870   6.583   8.111  15.649 -0.0396  0.1666  0.0537
 7402W        W22871   1.169   5.319  14.494  0.3092  0.0658  0.3465
 7403W        W22872   9.077   5.059   4.719  0.0427  0.0640 -0.1518
 7404W        W22873  11.484  13.123   5.860  0.2886  0.3749  0.0397
 7405W        W22874   2.479   6.961   3.895  0.0565 -0.0083  0.0403
 7406W        W22875  11.667  12.177   0.320 -0.5534 -0.0585  0.0480
 7407W        W22876  16.719   0.142   4.172  0.2637 -0.1140 -0.0510
 7408W        W22877  16.481   3.025   3.641  0.1047 -0.0069 -0.0990
 7409W        W22878   8.146  16.145   5.777 -0.0249  0.0347  0.2509
 7410W        W22879   3.522   8.371  13.545 -0.2869  0.0862 -0.0995
 7411W        W22880  15.032  13.217  12.463 -0.0094  0.0165  0.0562
 7412W        W22881  15.594   4.057  12.582  0.1045  0.0742  0.0648
 7413W        W22882   6.522   6.346   0.526  0.0685  0.1279 -0.0786
 7414W        W22883   7.143  11.012  13.046  0.0007  0.1220  0.1235
 7415W        W22884   7.152   1.658   3.612  0.0352  0.0326 -0.0060
 7416W        W22885  14.797   2.806   0.645 -0.0153 -0.1604  0.4380
 7417W        W22886   3.216   0.944  12.016 -0.1828  0.1417 -0.4602
 7418W        W22887   8.322   9.112  16.121  0.2779  0.1297  0.3030
 7419W        W22888   2.595   9.145  13.338  0.0671  0.1149 -0.2244
 7420W        W22889   6.559  12.153  16.837  0.0168  0.0664  0.0813
 7421W        W22890  16.154   4.022  11.927 -0.2215 -0.0103  0.0635
 7422W        W22891   0.198   1.435   0.391 -0.1517 -0.1115  0.0537
 7423W        W22892   4.442   0.431   0.721 -0.1847  0.0190  0.4484
 7424W        W22893  12.823   5.446   2.032 -0.3244 -0.2424  0.1333
 7425W        W22894   5.864   0.139  10.551 -0.0322 -0.0457 -0.1156
 7426W        W22895  12.412  12.170  12.227 -0.1076  0.2218  0.0767
 7427W        W22896   4.341  17.402   2.718 -0.1687  0.0076 -0.0687
 7428W        W22897   9.121   2.617   5.582 -0.2907  0.0038 -0.2636
 7429W        W22898   1.626   1.097  13.779  0.2460 -0.1377 -0.1881
 7430W        W22899   8.716  15.914  14.271 -0.0867 -0.3880  0.1891
 7431W        W22900   1.960   6.864  14.180 -0.0994  0.1417  0.2336
 7432W        W22901   8.163   9.151   5.734  0.1363  0.0479  0.0673
 7433W        W22902   9.388   7.582   1.723  0.0443 -0.0698  0.1075
 7434W        W22903   6.558  10.007  14.860 -0.0131 -0.1038 -0.2776
 7435W        W22904   2.634  14.671   3.933  0.0462  0.1989 -0.1498
 7436W        W22905  16.173   1.779  11.263  0.0838  0.1016  0.2440
 7437W        W22906   1.126   9.562  13.832  0.3146 -0.1450  0.1868
 7438W        W22907   8.982   9.588  16.449 -0.2261  0.0929 -0.2369
 7439W        W22908  17.161   2.804  11.503 -0.1479 -0.0050  0.1133
 7440W        W22909   0.958  14.646  11.525 -0.1290 -0.3507  0.1684
 7441W        W22910   3.738   6.586  12.314  0.1886 -0.0725  0.2967
 7442W        W22911  14.570   5.608  13.787 -0.0588 -0.1101  0.1387
 7443W        W22912   4.306   1.443   3.737 -0.1780 -0.1054  0.0058
 7444W        W22913  11.419   3.245  13.668 -0.3711  0.2395 -0.2185
 7445W        W22914  11.526  17.276  14.526  0.2756 -0.0762 -0.1077
 7446W        W22915  16.726   8.959   0.573  0.1314  0.2155  0.2735
 7447W        W22916   1.521  12.257   3.135 -0.0973  0.2449 -0.2475
 7448W        W22917  10.568   2.982  14.374 -0.0495 -0.0741 -0.1515
 7449W        W22918  15.666  11.612  13.512 -0.0377 -0.0809 -0.3511
 7450W        W22919  17.376  11.182   1.649  0.0745 -0.2311  0.1199
 7451W        W22920  14.483  11.869  13.811  0.1193 -0.3229 -0.0034
 7452W        W22921   2.984  14.064   1.688 -0.1191  0.1136  0.0997
 7453W        W22922   2.946   8.423  16.082 -0.0563  0.0938  0.2737
 7454W        W22923   7.930   2.686  13.423  0.0782  0.0017 -0.4090
 7455W        W22924   1.358   6.280   4.805 -0.0298  0.2202  0.4116
 7456W        W22925  10.753   1.346   5.428 -0.1149  0.0304  0.1632
 7457W        W22926  17.007  17.618  15.289  0.2751  0.1914  0.1666
 7458W        W22927  11.157  10.437   1.408  0.0160 -0.0885 -0.0308
 7459W        W22928   8.835   2.123   4.051 -0.2791 -0.0180  0.0393
 7460W        W22929   9.790  11.457   2.379 -0.0719 -0.2058  0.1148
 7461W        W22930   6.407   5.562   5.510  0.0238  0.2260 -0.0979
 7462W        W22931   6.327   7.893   3.454 -0.0785 -0.0604 -0.1414
 7463W        W22932   3.033  10.503   4.864  0.2121  0.1434 -0.1206
 7464W        W22933   3.210   8.031   5.826 -0.3004  0.0779  0.0331
 7465W        W22934  13.601  11.213   0.745  0.1423  0.0706  0.0911
 7466W        W22935  15.223  12.432  12.938  0.3492 -0.1318 -0.2575
 7467W        W22936   4.227  10.543  13.229  0.0238  0.0527  0.2020
 7468W        W22937   7.013   3.575   3.041 -0.0555 -0.0872  0.3936
 7469W        W22938   6.539   9.884   3.011 -0.0117  0.2782  0.2811
 7470W        W22939   7.057  16.842  14.432  0.2216  0.0498  0.5022
 7471W        W22940   2.336   1.811  15.557 -0.2403  0.0162  0.2450
 7472W        W22941  14.511   6.014  13.126  0.1705 -0.3030 -0.2416
 7473W        W22942   8.430   2.734  12.813 -0.0948 -0.0673  0.2667
 7474W        W22943  11.752   5.245  14.445 -0.0204 -0.4149 -0.1951
 7475W        W22944  12.980   1.470  11.342 -0.2138  0.0488  0.3195
 7476W        W22945   4.043   6.955  12.073  0.1374  0.4481 -0.0035
 7477W        W22946   5.745   1.202   2.061 -0.0194 -0.0187  0.2492
 7478W        W22947  11.958  11.273   2.046 -0.0461  0.1965 -0.2267
 7479W        W22948   2.907  15.686  14.337 -0.1978 -0.3143 -0.1186
 7480W        W22949   7.487   6.846  15.508  0.1470  0.1257  0.0829
 7481W        W22950  16.828  14.343  14.726 -0.2570 -0.1143 -0.1298
 7482W        W22951   8.893  16.226  14.636 -0.1205  0.1223  0.0570
 7483W        W22952   7.884   9.051  15.605  0.1039 -0.2320  0.1583
 7484W        W22953   4.732   8.075   0.988 -0.0671  0.1570 -0.2301
 7485W        W22954   0.926   1.957   1.775  0.1605  0.0490  0.1066
 7486W        W22955  12.726  10.880  16.655  0.1966 -0.0528  0.1886
 7487W        W22956   6.520   3.341  12.042 -0.0760 -0.1704  0.2018
 7488W        W22957   7.984   5.387  13.300  0.1243  0.1679 -0.5346
 7489W        W22958   4.222   4.786   1.986 -0.1014 -0.0268 -0.0158
 7490W        W22959  17.695   9.219  14.547 -0.1640 -0.1072 -0.0759
 7491W        W22960   5.262   6.821  11.450 -0.0378 -0.0533  0.1396
 7492W        W22961   8.158   3.208   3.689  0.0948  0.1687 -0.1211
 7493W        W22962  17.086   6.813  14.777 -0.0695 -0.1412 -0.2297
 7494W        W22963   0.781   6.933   4.683 -0.0946  0.0653  0.1913
 7495W        W22964   7.499   0.375  16.598  0.1358 -0.0997 -0.0558
 7496W        W22965  13.777   7.960   2.048 -0.1155  0.1256  0.0084
 7497W        W22966  13.432   1.917  12.965  0.0821  0.2845  0.0444
 7498W        W22967  15.384  15.299   5.155 -0.1751  0.1891 -0.0477
 7499W        W22968   7.175   7.779  12.115  0.3914  0.3790  0.0097
 7500W        W22969  11.790   4.923  13.092  0.1240  0.3643 -0.5228
 7501W        W22970   2.144  14.161  13.008 -0.1723  0.0360 -0.1328
 7502W        W22971   2.324  13.147  11.202 -0.0945  0.1738  0.0284
 7503W        W22972  13.112   0.386  13.170  0.0319  0.1379  0.1472
 7504W        W22973   7.427  17.181  14.560  0.1995  0.3329  0.2338
 7505W        W22974   3.090   7.069  16.191  0.1820  0.1994 -0.0538
 7506W        W22975   4.835   8.981  14.693 -0.0715  0.1025 -0.0203
 7507W        W22976   2.319  12.326  14.961  0.1273  0.0078  0.0762
 7508W        W22977  14.657   0.966   4.812  0.1198  0.2388 -0.0603
 7509W        W22978  14.431  13.556   1.589  0.1054 -0.1012  0.1965
 7510W        W22979   3.998   5.042  14.956  0.1701  0.2526 -0.1086
 7511W        W22980   2.037   5.289  10.468  0.2260 -0.4022  0.0938
 7512W        W22981   0.879   4.355   3.433  0.2298 -0.1717 -0.0700
 7513W        W22982   2.634  10.431   0.377  0.0425 -0.1195 -0.1960
 7514W        W22983   8.793  11.474   1.044  0.0362  0.1787 -0.0059
 7515W        W22984   9.514   1.916   5.535 -0.0651  0.1782  0.0381
 7516W        W22985   1.187  11.593   5.860 -0.1611  0.1802 -0.0395
 7517W        W22986   5.696  16.900  15.715 -0.1131 -0.0282 -0.1146
 7518W        W22987   4.327   8.739  10.328 -0.2529 -0.0714  0.0665
 7519W        W22988   7.731  12.257  14.199  0.1003  0.0038 -0.1128
 7520W        W22989   8.851  14.620  15.006 -0.3485  0.1707 -0.0717
 7521W        W22990   6.765  13.397   2.613 -0.1098  0.1968 -0.2720
 7522W        W22991   5.536   2.081   3.111  0.1060  0.2837  0.2376
 7523W        W22992   2.687  15.649  13.387 -0.3003  0.1126  0.1506
 7524W        W22993   2.681  11.960   0.665  0.1284 -0.3925 -0.2301
 7525W        W22994  10.970  12.459   1.807 -0.0775 -0.0268  0.2771
 7526W        W22995   6.378  14.295  15.491  0.1272 -0.0094  0.0593
 7527W        W22996  13.530  17.333   6.087  0.0798 -0.1818 -0.0573
 7528W        W22997   4.529   9.006  14.169  0.0019 -0.0670  0.2014
 7529W        W22998   4.529   3.865  15.076  0.0694 -0.0607  0.1295
 7530W        W22999  13.112   2.007   1.562 -0.1207 -0.1670  0.2535
 7531W        W23000  13.807   5.842  14.413  0.1067  0.0376 -0.0451
 7532W        W23001   2.698  17.240   3.259 -0.1315 -0.0068  0.1415
 7533W        W23002   0.177  16.502   1.788 -0.0062 -0.0620  0.1322
 7534W        W23003   6.077  15.039   6.500  0.1677  0.2781  0.2460
 7535W        W23004  11.339  15.373   2.734 -0.0026  0.0577 -0.3668
 7536W        W23005  12.416   1.496   3.942 -0.0617 -0.0790  0.2081
 7537W        W23006  15.110   8.309   3.940  0.0506  0.0527 -0.0446
 7538W        W23007   2.157  14.375  11.997 -0.0085  0.1529  0.2780
 7539W        W23008  10.113   3.776  12.157  0.0484 -0.0486 -0.0500
 7540W        W23009   3.907  10.992   1.406 -0.0246  0.2376 -0.3692
 7541W        W23010   5.402  17.304   0.189 -0.2800  0.0166  0.0374
 7542W        W23011  11.205  12.951   4.696 -0.4520 -0.2424 -0.2720
 7543W        W23012   3.065   0.268  14.566  0.0872 -0.1374  0.1245
 7544W        W23013   3.186  10.148  12.461  0.0438 -0.1512  0.0833
 7545W        W23014   9.857  12.057  13.225 -0.0449 -0.1186  0.0450
 7546W        W23015   9.537   0.460  11.679  0.2453  0.1517 -0.0833
 7547W        W23016  13.697   2.242   1.549 -0.0562  0.1897  0.3736
 7548W        W23017  13.285   1.465   4.290 -0.0084  0.0229 -0.0359
 7549W        W23018   5.950  14.178  13.656 -0.1703  0.2168  0.1953
 7550W        W23019  17.057   0.129   1.735  0.2687 -0.0159 -0.0355
 7551W        W23020  15.687   5.232   4.900 -0.2867 -0.1603  0.0904
 7552W        W23021   3.003  14.009  12.534 -0.1183  0.0003  0.2856
 7553W        W23022   4.902  14.044  10.337 -0.0297 -0.2986  0.1682
 7554W        W23023  13.193   0.599  14.571 -0.0356  0.1619  0.2458
 7555W        W23024   8.572  17.716   3.619 -0.0395 -0.1241 -0.3316
 7556W        W23025   2.662   7.968   1.579  0.0347  0.1150  0.1441
 7557W        W23026  12.998   3.687   0.013 -0.0820 -0.1736 -0.4460
 7558W        W23027  16.521  16.559  16.670 -0.0671 -0.2755  0.0915
 7559W        W23028   9.877  12.594  12.927 -0.1700 -0.2388  0.0590
 7560W        W23029   8.890   4.957   4.262 -0.0570  0.1677 -0.0896
 7561W        W23030  17.207   6.883  12.705  0.2391 -0.2375  0.0128
 7562W        W23031   5.713   6.456   4.683 -0.2164  0.1276  0.2404
 7563W        W23032   6.525  11.274  14.531 -0.1709  0.3057  0.2192
 7564W        W23033  13.416   7.929   4.832 -0.2779 -0.0490 -0.1877
 7565W        W23034  13.832   6.565   4.586 -0.4278  0.2863  0.2597
 7566W        W23035   7.277   1.559   1.865 -0.0539  0.2361 -0.0271
 7567W        W23036  16.422   6.468   4.206  0.0355  0.1377 -0.0788
 7568W        W23037  13.840   8.336  16.540  0.0146 -0.2579  0.1954
 7569W        W23038   3.648   0.637   1.971 -0.1150  0.1871  0.0498
 7570W        W23039   5.633   0.333  15.428 -0.0074 -0.2088  0.0244
 7571W        W23040  14.210   8.135  13.509  0.1077  0.0087  0.0157
 7572W        W23041  14.572   1.029   5.281 -0.2561 -0.1636 -0.1037
 7573W        W23042  13.575   8.960  12.775  0.1330 -0.2758  0.0187
 7574W        W23043   9.386   1.873  13.759 -0.0740 -0.2233 -0.0600
 7575W        W23044   0.483   5.809  14.930 -0.0923 -0.0519  0.1695
 7576W        W23045  17.120   5.489  15.090  0.1815  0.0716 -0.0770
 7577W        W23046  12.106  14.450  13.749 -0.2523  0.1066 -0.1291
 7578W        W23047  10.370  10.313  16.697 -0.0530  0.2638  0.1092
 7579W        W23048   5.908  16.019  14.508  0.0273  0.1252  0.0184
 7580W        W23049   9.414   6.323  12.998 -0.0358  0.1204  0.1424
 7581W        W23050  10.877  17.008   0.688 -0.0458 -0.0913  0.1150
 7582W        W23051  13.360   3.963  14.939  0.0296 -0.1086 -0.0499
 7583W        W23052  14.581  11.309  14.741 -0.3225  0.0157  0.0690
 7584W        W23053  17.112   3.244   4.833  0.1597 -0.1938  0.0254
 7585W        W23054  11.601   0.750  14.975  0.0823  0.0347 -0.3378
 7586W        W23055   6.010   4.772  14.406 -0.3058 -0.1156 -0.1211
 7587W        W23056   4.878   3.518   5.447  0.1437 -0.2133  0.1643
 7588W        W23057  11.027   1.226  14.500  0.1257 -0.0213 -0.0440
 7589W        W23058   0.975   8.606  10.710 -0.2196  0.0620  0.3296
 7590W        W23059  17.335  17.531  12.670  0.0102 -0.0205  0.0937
 7591W        W23060  14.737   0.432  14.040 -0.3062  0.0050  0.1483
 7592W        W23061  15.856   0.945  15.619 -0.3393  0.0597  0.0999
 7593W        W23062  10.214  16.178  15.014  0.0442  0.1385  0.1699
 7594W        W23063  11.690   1.977  15.355  0.0552  0.2276  0.1157
 7595W        W23064   6.552   8.518  13.837  0.0237  0.0336  0.0378
 7596W        W23065   4.586  10.326  11.281 -0.2207 -0.1437 -0.0900
 7597W        W23066  13.774  14.117   5.407 -0.1050 -0.0818  0.2631
 7598W        W23067  16.263  15.679  16.445  0.3744 -0.0265  0.0441
 7599W        W23068   6.515   8.031   1.694  0.1500 -0.2336 -0.0044
 7600W        W23069   8.864  15.741   3.980 -0.1024  0.0046  0.1189
 7601W        W23070   2.562   4.048  11.444 -0.1862 -0.2701 -0.0154
 7602W        W23071   3.982  10.925  13.489  0.2373  0.1195 -0.1856
 7603W        W23072  13.062  10.040   3.685  0.0058 -0.0383  0.1661
 7604W        W23073   0.512   6.271  13.484  0.0201 -0.2423  0.0764
 7605W        W23074   5.499  12.152  15.975 -0.0253 -0.1232  0.2684
 7606W        W23075  16.462   2.689   0.398 -0.0974  0.1139  0.4592
 7607W        W23076  15.230   1.322   4.676  0.0763  0.0558  0.1181
 7608W        W23077  17.620   0.051  13.233  0.0095  0.1957  0.2214
 7609W        W23078   4.707  12.433  12.982 -0.1202 -0.1289  0.0655
 7610W        W23079  17.304   7.535   4.455  0.2824  0.0207 -0.0283
 7611W        W23080  14.480   9.378  12.915  0.1311  0.1774 -0.3064
 7612W        W23081   8.585   5.636   0.321  0.2958 -0.0420  0.0542
 7613W        W23082  15.122  16.328   2.008  0.1699  0.1662  0.0761
 7614W        W23083   1.477   5.007   1.944 -0.0492 -0.0081  0.1170
 7615W        W23084  13.727   4.238   1.699  0.0054  0.3381 -0.0408
 7616W        W23085   0.715  14.916  14.069  0.1232  0.0035 -0.0240
 7617W        W23086   6.990  12.743  13.957  0.2498 -0.1837 -0.0202
 7618W        W23087   7.356  13.833  15.747 -0.1324 -0.1935  0.0931
 7619W        W23088  13.313   6.769  15.388 -0.0827  0.1157  0.0658
 7620W        W23089   1.122  10.255   5.364  0.2554 -0.0104  0.1200
 7621W        W23090  10.001   9.457  15.294  0.1257 -0.0102  0.0640
 7622W        W23091   5.947   9.786   5.303  0.1713  0.1840 -0.1882
 7623W        W23092   8.316   3.795   4.239 -0.1083  0.0416 -0.2220
 7624W        W23093   8.223  11.746  16.491  0.0277 -0.0019  0.0807
 7625W        W23094   6.008   8.075   4.981 -0.0033  0.0836  0.0849
 7626W        W23095   3.406   6.580  16.624 -0.0295  0.0641  0.1442
 7627W        W23096   1.312   2.457  13.033  0.0966  0.0177  0.1821
 7628W        W23097  12.236   7.722   2.254 -0.1661 -0.1326 -0.0706
 7629W        W23098  16.770   0.614   4.404  0.1146  0.1227 -0.2781
 7630W        W23099   1.994  17.349  14.002  0.1349  0.1743 -0.0660
 7631W        W23100  16.822   7.873   0.978  0.0657  0.2447 -0.5548
 7632W        W23101   7.332  14.811   1.079 -0.0893  0.0421 -0.0525
 7633W        W23102  13.606   1.300   0.176  0.2036 -0.1694 -0.2947
 7634W        W23103  17.485  12.174   0.140 -0.1774 -0.1108  0.1211
 7635W        W23104   3.074   8.828  16.405 -0.2280  0.1284  0.1511
 7636W        W23105   0.751   2.940  12.401  0.1616  0.2919 -0.0892
 7637W        W23106  10.603   0.969   0.740  0.0519  0.0550  0.1356
 7638W        W23107   2.473   0.372   3.307  0.1085 -0.2086  0.1167
 7639W        W23108   4.937   1.521   4.700 -0.2058 -0.0476  0.2276
 7640W        W23109  14.999  10.306  12.129 -0.0991  0.1898 -0.0246
 7641W        W23110  14.179   0.446  12.015  0.1268  0.1122  0.2261
 7642W        W23111  12.456  11.838   1.814  0.1978  0.1440  0.0698
 7643W        W23112   6.088  12.490  12.611  0.0892  0.0727 -0.0759
 7644W        W23113   4.054   9.256   2.056  0.0337 -0.2188  0.0256
 7645W        W23114  15.371  15.240   0.662 -0.0921 -0.1047  0.1064
 7646W        W23115  11.664  11.007  14.280 -0.3217 -0.1089  0.2888
 7647W        W23116  13.133   0.784   3.751 -0.1356  0.3133  0.0171
 7648W        W23117  13.510   9.242   2.589  0.0441 -0.0487 -0.1412
 7649W        W23118  14.867   9.946   3.619 -0.0958 -0.2962 -0.0349
 7650W        W23119   1.358  12.264  13.457  0.0448 -0.1110  0.1786
 7651W        W23120   4.820   8.877   1.372  0.1554  0.0784  0.0843
 7652W        W23121  16.240  12.976   2.731 -0.0733  0.0536 -0.1333
 7653W        W23122  15.911  14.919  13.316  0.0904  0.1807 -0.1263
 7654W        W23123  17.464   6.030  14.744  0.0075  0.0461  0.0704
 7655W        W23124   0.697  12.452  15.397 -0.2819 -0.2883 -0.2319
 7656W        W23125   3.481   0.303  15.683  0.2851 -0.1680 -0.0391
 7657W        W23126   9.517   1.108   2.866  0.0508 -0.0447  0.0901
 7658W        W23127  17.582   7.612  12.476 -0.0288  0.1295  0.2580
 7659W        W23128  13.643   8.315   5.506 -0.1156 -0.4056 -0.0024
 7660W        W23129   8.636   9.095   5.550  0.0170 -0.1208 -0.2653
 7661W        W23130   2.721  10.843   4.065 -0.2253 -0.0153 -0.0234
 7662W        W23131   1.406  14.998  11.667  0.0906  0.1278 -0.1391
 7663W        W23132   5.426   1.551   5.004  0.0875 -0.0295 -0.0338
 7664W        W23133   7.638   2.578  14.407  0.2059  0.0943  0.2199
 7665W        W23134   1.368  15.019   2.747  0.2103  0.0115 -0.1025
 7666W        W23135  11.190   0.470   4.113  0.0834  0.0459 -0.0260
 7667W        W23136   3.438   4.819   2.998 -0.0057  0.0059  0.0946
 7668W        W23137  14.366   7.563  12.741 -0.0564 -0.2505 -0.0492
 7669W        W23138   2.762   1.038   2.222 -0.1940  0.1564 -0.1602
 7670W        W23139  15.225  14.850  11.939 -0.2020  0.0408 -0.4565
 7671W        W23140  15.060   3.395  13.180  0.0782  0.1120  0.1971
 7672W        W23141   9.634   1.820   6.663  0.1210 -0.2166 -0.0077
 7673W        W23142  14.028   8.376   0.654 -0.0030  0.4485  0.1160
 7674W        W23143   4.037   0.186   0.642 -0.2216  0.1028 -0.2007
 7675W        W23144   9.964  17.626   5.258  0.0347 -0.1471 -0.0942
 7676W        W23145   5.182  12.520   4.653 -0.0402  0.1148 -0.2735
 7677W        W23146   8.868   7.406   3.075  0.1503  0.2728 -0.3504
 7678W        W23147  10.309   8.021   3.150  0.0139 -0.1293 -0.0979
 7679W        W23148   2.537   7.379  13.548  0.2204  0.0229 -0.0344
 7680W        W23149  12.143   7.119   3.868  0.0209  0.0672 -0.0222
 7681W        W23150  17.549  13.504  12.460 -0.4991 -0.3457 -0.0021
 7682W        W23151   2.234   4.601   1.038  0.0297  0.0701  0.0335
 7683W        W23152   8.497  14.583  13.115 -0.1214 -0.2312 -0.3500
 7684W        W23153   9.546   5.277  14.491  0.0299 -0.0650  0.0614
 7685W        W23154   6.882  13.803  16.010 -0.0806  0.3041  0.0790
 7686W        W23155  12.238  12.752   0.960 -0.0534  0.0850 -0.2063
 7687W        W23156  16.347  14.500  14.091 -0.0004 -0.0025 -0.1919
 7688W        W23157  13.666   6.906   2.365  0.2053 -0.1256  0.2529
 7689W        W23158  13.400  12.071   2.313  0.0685 -0.1472 -0.2444
 7690W        W23159   1.936   6.403  15.884 -0.0835  0.0080 -0.1478
 7691W        W23160   4.488  11.628  12.753 -0.3713 -0.1348  0.0508
 7692W        W23161   6.693   2.861  11.326  0.0194 -0.1591  0.0157
 7693W        W23162  10.728   2.104  14.265 -0.0100  0.2655  0.0270
 7694W        W23163  12.572   7.105   0.672 -0.0701 -0.0546 -0.0967
 7695W        W23164  17.658   7.952   4.143  0.1523  0.0047  0.1296
 7696W        W23165   4.499  16.349  15.913  0.3911 -0.0022 -0.0103
 7697W        W23166   7.517   6.206  11.544  0.1095 -0.1230 -0.0188
 7698W        W23167   4.481   2.598  12.028 -0.1257  0.0093 -0.4381
 7699W        W23168   3.080   3.649  12.257  0.0888  0.0203  0.1363
 7700W        W23169   2.108   9.354  15.971 -0.0138 -0.1712 -0.0865
 7701W        W23170   9.204   0.978   2.517 -0.1536  0.0947  0.0805
 7702W        W23171   0.143   3.011  11.236  0.0197  0.0328 -0.0158
 7703W        W23172   1.520  11.696  16.273 -0.3772  0.1047  0.1673
 7704W        W23173  16.699   5.322  13.368 -0.0147 -0.1447  0.0650
 7705W        W23174  17.729   5.869  14.353 -0.0392 -0.1802  0.1977
 7706W        W23175   5.089   7.230   2.927  0.3508  0.2166  0.2547
 7707W        W23176  11.352  16.245  12.348  0.0859 -0.1891  0.0959
 7708W        W23177  17.215   6.737   2.489 -0.0968 -0.1525 -0.1044
 7709W        W23178  16.247  12.330   4.767 -0.0058  0.0598  0.0107
 7710W        W23179  14.720  10.444  12.605  0.1453  0.0539 -0.4071
 7711W        W23180  17.384   9.433   5.197 -0.0322  0.2328  0.3846
 7712W        W23181   4.342  17.274   5.754 -0.3989  0.1644  0.0321
 7713W        W23182   3.677  14.582   1.969 -0.0067  0.0451 -0.1484
 7714W        W23183   6.003  15.584   1.589  0.1449 -0.3165  0.1425
 7715W        W23184   2.392   5.357  15.689  0.1774 -0.0877  0.0294
 7716W        W23185   7.777  13.421   1.120 -0.3464  0.0680  0.1925
 7717W        W23186   9.400  12.457   2.278  0.0127  0.4518 -0.4135
 7718W        W23187  10.592  10.075  15.313  0.0336  0.2937 -0.2680
 7719W        W23188   9.488  15.348  15.960 -0.0883 -0.2247 -0.0240
 7720W        W23189   6.395   5.472   1.459 -0.1247 -0.1298 -0.1348
 7721W        W23190  11.754  10.564  14.447  0.4346 -0.0510 -0.2625
 7722W        W23191   5.021   2.083   1.246  0.0162  0.1485 -0.0075
 7723W        W23192   7.093  13.373   1.850 -0.0622 -0.0294 -0.0837
 7724W        W23193  10.132   4.413   0.461  0.3742  0.0701  0.0734
 7725W        W23194  14.100  10.646   1.353  0.2774 -0.1353 -0.0689
 7726W        W23195  10.316  10.691   2.474  0.0605  0.2214 -0.2910
 7727W        W23196   5.415   1.006   5.845 -0.1632 -0.2074 -0.0422
 7728W        W23197   6.034   6.300   5.666 -0.1039 -0.0145 -0.2705
 7729W        W23198   0.769  14.491  13.080 -0.0750 -0.0459  0.0632
 7730W        W23199  16.157  17.306   0.247 -0.2495 -0.0494  0.1858
 7731W        W23200  11.192  13.296  13.852 -0.1813 -0.0490 -0.0871
 7732W        W23201  10.683   2.288  16.782 -0.2151  0.3282  0.1440
 7733W        W23202  12.624   0.261  11.780  0.0920 -0.1434  0.3027
 7734W        W23203  10.987   6.285  14.205 -0.0534 -0.0855 -0.2928
 7735W        W23204   5.228   9.763   2.531 -0.0327 -0.1040 -0.1378
 7736W        W23205  16.475   2.305   0.048  0.3976 -0.0113  0.1168
 7737W        W23206   1.933   6.099   0.215  0.0106 -0.1172  0.0673
 7738W        W23207   7.965   9.252   3.181  0.1181  0.3732  0.0537
 7739W        W23208  16.026   2.173   4.960  0.1135 -0.0750  0.1089
 7740W        W23209   9.066  15.262  16.195 -0.0284 -0.0714 -0.3461
 7741W        W23210  11.200  15.563   2.279 -0.1620 -0.0073 -0.3377
 7742W        W23211  12.609  14.287  13.785 -0.1737  0.1854  0.0289
 7743W        W23212  16.693   7.530   5.602 -0.2410  0.1108  0.2914
 7744W        W23213   5.596  17.571   1.664 -0.2147  0.2239  0.2453
 7745W        W23214  16.317   0.056   5.472  0.1230 -0.3375 -0.0774
 7746W        W23215   5.328   3.108  13.003  0.0341  0.0459  0.0248
 7747W        W23216   8.720  16.117   5.795 -0.1956  0.0249  0.0413
 7748W        W23217  11.039  17.703  12.093 -0.0151  0.0091 -0.0880
 7749W        W23218   6.974  12.378   0.224 -0.0876 -0.0059 -0.2391
 7750W        W23219   4.280   9.186   0.596  0.0303 -0.1315  0.2201
 7751W        W23220   2.090  15.244   0.330 -0.2119  0.0767 -0.0781
 7752W        W23221   4.186   9.528  13.336 -0.1073  0.0301  0.1408
 7753W        W23222   2.330   8.877  12.085 -0.1717 -0.0988  0.2324
 7754W        W23223   9.443   8.179  16.299 -0.0730  0.1486 -0.0211
 7755W        W23224   6.364  15.438   5.385 -0.1950 -0.1026  0.1831
 7756W        W23225  15.764   7.441  15.035  0.1337 -0.0692  0.0565
 7757W        W23226   0.173   2.139  13.695 -0.1609  0.1373  0.0765
 7758W        W23227   7.056  11.216  13.841  0.1431  0.1632 -0.0355
 7759W        W23228   3.435   3.082   2.523  0.1051  0.0107  0.1077
 7760W        W23229  17.359   7.995   4.573 -0.1716 -0.1675  0.1805
 7761W        W23230   3.800   9.557  13.620  0.1046 -0.1338  0.0986
 7762W        W23231   3.654   6.422   2.293  0.2720 -0.0882  0.1684
 7763W        W23232   9.604  14.321   2.940  0.0004 -0.1603  0.1836
 7764W        W23233  15.898  11.294  13.857  0.2094 -0.0990  0.4986
 7765W        W23234   2.510  16.148   0.773  0.2315  0.3294  0.0269
 7766W        W23235  11.786   6.685  14.151  0.0396  0.1926 -0.0995
 7767W        W23236   9.271   0.913  14.586 -0.1641  0.3259 -0.3148
 7768W        W23237   6.269   0.816  16.144  0.0005 -0.0380 -0.0932
 7769W        W23238  12.622  15.593   3.114 -0.0413  0.1077  0.3501
 7770W        W23239   1.360  12.819  13.723 -0.1802  0.0964  0.2872
 7771W        W23240  10.440   8.554  11.540 -0.2261  0.2945  0.1511
 7772W        W23241   6.641  13.326   4.237 -0.2749  0.2578 -0.3752
 7773W        W23242  12.810  11.296   4.018 -0.2537  0.4691 -0.1626
 7774W        W23243  12.639   8.759   0.404 -0.1601  0.0220  0.0228
 7775W        W23244  14.161   1.373   2.185  0.1030 -0.0486 -0.1539
 7776W        W23245   8.212  10.916  12.763 -0.1799  0.1401 -0.1327
 7777W        W23246   2.013  12.868  13.621  0.2121  0.1300 -0.0460
 7778W        W23247   9.464  12.950   6.343 -0.0387 -0.1491  0.0579
 7779W        W23248  12.181  10.522  14.779  0.2368  0.0364 -0.2750
 7780W        W23249  15.714   7.713   2.395  0.3043  0.1181  0.0453
 7781W        W23250  17.564   0.157  11.683  0.1003  0.1124 -0.0520
 7782W        W23251   4.874  16.880   2.350 -0.1243  0.0339 -0.1362
 7783W        W23252   9.878   1.309  15.935  0.0649 -0.0928 -0.3295
 7784W        W23253  15.980   1.688   5.175 -0.1821  0.1287  0.3062
 7785W        W23254  12.115   9.081  15.978  0.3953  0.1581  0.1287
 7786W        W23255   5.822   8.003  14.478 -0.1448  0.3343  0.0085
 7787W        W23256  14.458  15.023   5.406  0.1133 -0.0024 -0.0870
 7788W        W23257  11.873  14.824  11.793 -0.0446  0.1052  0.0053
 7789W        W23258  10.193   1.281   0.845  0.0621 -0.0862  0.2168
 7790W        W23259  13.768  10.094   5.878 -0.2785 -0.1439  0.1343
 7791W        W23260  17.638  12.219  10.793  0.1269 -0.1731 -0.3313
 7792W        W23261   5.772  10.112  14.676 -0.0781 -0.0227  0.0229
 7793W        W23262  14.175  16.422  15.682 -0.3374 -0.3520 -0.1826
 7794W        W23263  11.970  14.672  13.295  0.1957  0.2595 -0.0399
 7795W        W23264   0.768   7.023  11.520  0.3777 -0.0007 -0.0281
 7796W        W23265  14.606   5.851   0.079  0.0604 -0.0501  0.2084
 7797W        W23266   0.246   4.430   2.391 -0.0953 -0.1205  0.1201
 7798W        W23267  11.307   9.600   3.311  0.0661 -0.1589 -0.2489
 7799W        W23268   6.134  10.099  12.239  0.1551  0.1508 -0.1031
 7800W        W23269   3.352   2.804  12.296  0.2763  0.1511  0.3454
 7801W        W23270   2.270   9.710  12.154 -0.1115 -0.1419 -0.1708
 7802W        W23271  13.979  13.388  15.764 -0.0189  0.2466  0.0296
 7803W        W23272  13.419  14.590  15.481 -0.3086 -0.0957  0.1294
 7804W        W23273   0.486  15.345  16.164  0.0015 -0.2448 -0.1904
 7805W        W23274  10.753  15.950  11.912  0.2310 -0.0789 -0.1124
 7806W        W23275   9.291  11.776  12.797  0.0641  0.2882  0.2027
 7807W        W23276   3.272  11.550  16.690  0.2292 -0.0991 -0.0321
 7808W        W23277  13.481   9.188   3.421 -0.5949 -0.1678  0.0803
 7809W        W23278   9.209  13.460   5.709 -0.3548 -0.3089  0.1725
 7810W        W23279   6.171   4.748  15.328 -0.0356  0.0413  0.1156
 7811W        W23280  10.618  13.723  14.932  0.2283 -0.1720  0.0430
 7812W        W23281  15.093   7.641  16.798 -0.1254 -0.0405 -0.0981
 7813W        W23282   9.208  10.032  12.690 -0.1102 -0.1223 -0.1610
 7814W        W23283   3.601   7.815  15.181  0.0304  0.2998  0.4712
 7815W        W23284   8.735   7.896  13.401  0.0405  0.2149  0.0223
 7816W        W23285   2.384   8.726  11.646  0.2170  0.1168 -0.1621
 7817W        W23286   7.778   5.294   2.320  0.1686  0.1075 -0.2527
 7818W        W23287  11.232   1.858   1.559 -0.1812  0.2813 -0.0733
 7819W        W23288   5.733   2.030   1.993  0.1815 -0.2029 -0.2097
 7820W        W23289   7.125   0.113   0.663  0.0999 -0.1262 -0.0086
 7821W        W23290   1.424   2.447  14.738  0.2967 -0.1235 -0.1404
 7822W        W23291   9.316   0.129   1.155 -0.0758 -0.1956  0.2572
 7823W        W23292   2.973   5.571   2.159 -0.0181  0.2449  0.0174
 7824W        W23293  10.556   3.832  15.977  0.0734  0.0710  0.2149
 7825W        W23294   5.740   8.501   5.112 -0.1430 -0.3624  0.1598
 7826W        W23295  14.509   6.852   3.323 -0.0572 -0.2636  0.3278
 7827W        W23296   5.550   1.669   3.603 -0.2838  0.1618 -0.0431
 7828W        W23297  14.445  17.420  15.182 -0.1364  0.1203 -0.0964
 7829W        W23298  15.625  11.215  14.819  0.0829  0.0173  0.0223
 7830W        W23299   2.000  16.190  15.515 -0.1767 -0.0046 -0.1065
 7831W        W23300  14.942   6.739  14.816  0.4032 -0.1366 -0.1087
 7832W        W23301   8.573   5.086   3.915  0.0448 -0.1604  0.1449
 7833W        W23302   6.873  10.053   0.400 -0.0085  0.1681 -0.2392
 7834W        W23303   8.665  14.675   1.267 -0.0469  0.3115  0.0357
 7835W        W23304  11.431  14.668  11.990 -0.1429  0.1275 -0.0846
 7836W        W23305  16.052  15.482  15.968  0.0590 -0.2183  0.2056
 7837W        W23306   7.469   5.724   4.462  0.1861 -0.0372  0.2377
 7838W        W23307  15.947  11.324   0.523  0.1174  0.1786 -0.1208
 7839W        W23308   1.914   4.474   2.615 -0.1157 -0.0525 -0.1632
 7840W        W23309   9.741  13.237   0.170 -0.0397 -0.0457  0.2041
 7841W        W23310   0.363  12.924   2.580  0.1512  0.2278 -0.3649
 7842W        W23311  16.376   0.253  15.853  0.0207 -0.2465 -0.0308
 7843W        W23312  12.923   0.689   1.981  0.0185  0.0469 -0.0803
 7844W        W23313   6.951  11.783  13.873 -0.2250 -0.0043  0.4429
 7845W        W23314  12.826  13.323   2.468  0.1353  0.0245 -0.0966
 7846W        W23315   1.098   5.389  13.940 -0.1646 -0.0395 -0.1570
 7847W        W23316   0.114  12.522   3.226  0.1992 -0.0841  0.1299
 7848W        W23317  17.353   5.192   2.619  0.1982 -0.2681  0.2864
 7849W        W23318   9.078  17.088   5.739  0.3118  0.1771  0.1832
 7850W        W23319  17.510   9.493  16.391  0.0278  0.0337 -0.0046
 7851W        W23320   8.918   5.738  14.874 -0.0455  0.0457  0.1370
 7852W        W23321  15.114  12.716  12.471  0.0284  0.1419  0.2980
 7853W        W23322   1.512   1.194   4.652 -0.0350  0.0325  0.0482
 7854W        W23323  15.948   0.860  11.354  0.0913  0.0087  0.1665
 7855W        W23324   2.595   4.467   5.454  0.1080  0.0753 -0.0638
 7856W        W23325  12.593  17.313  14.686 -0.2656  0.1032 -0.1947
 7857W        W23326   1.566  14.700  15.166  0.1611 -0.0628  0.2350
 7858W        W23327   5.780  13.314  14.710 -0.0752  0.2835 -0.0707
 7859W        W23328   2.752   3.453  16.141 -0.0537  0.0635  0.1698
 7860W        W23329  17.418   8.522   0.460 -0.0043  0.0504 -0.0718
 7861W        W23330  15.493   1.449   1.684  0.0590  0.0553  0.0334
 7862W        W23331   5.639  12.300   2.733  0.3838  0.0564  0.1567
 7863W        W23332  12.583  10.214  15.332  0.1347  0.2776  0.0867
 7864W        W23333   8.155  10.105   4.812 -0.1165  0.0401 -0.1744
 7865W        W23334   4.802  10.709   3.358 -0.0832  0.0201 -0.0176
 7866W        W23335  14.626  15.239  12.597 -0.0685 -0.1737  0.1987
 7867W        W23336  15.253   9.117  12.449  0.0085  0.2012  0.1437
 7868W        W23337  13.931  12.659  11.517  0.1148 -0.0009  0.2519
 7869W        W23338  15.508  16.722  13.431  0.0038  0.0446 -0.1081
 7870W        W23339  10.960   8.825   4.552 -0.2062 -0.0602  0.1803
 7871W        W23340  14.855   8.992   0.893  0.0699 -0.2482 -0.0525
 7872W        W23341   3.977   9.831   5.950  0.1053 -0.0359  0.4152
 7873W        W23342   3.018  13.638   0.239 -0.2474  0.2192 -0.0478
 7874W        W23343   7.573  15.265   3.789  0.0036  0.3173  0.0794
 7875W        W23344   1.393   1.731  12.406 -0.1106 -0.1587  0.1587
 7876W        W23345   2.139  16.167   2.790  0.1940 -0.0965  0.1128
 7877W        W23346  12.005  12.446  11.965  0.1070 -0.2693 -0.1427
 7878W        W23347  13.186   1.288  12.298  0.1388  0.1836 -0.3050
 7879W        W23348  13.288  17.085   0.113 -0.0856 -0.2195 -0.0775
 7880W        W23349   6.234   7.390  12.864  0.1210 -0.2914  0.3210
 7881W        W23350  13.837   8.647  11.088 -0.1561 -0.2777 -0.0261
 7882W        W23351   3.429   9.698   2.232 -0.0983 -0.2987 -0.1043
 7883W        W23352   8.642   1.436  12.245 -0.0883 -0.1033 -0.0593
 7884W        W23353  10.665   8.426  13.222  0.0738 -0.2030  0.1028
 7885W        W23354   7.831   1.289  14.419 -0.0579  0.0704 -0.2852
 7886W        W23355  10.297  13.150   2.755 -0.0979  0.0326  0.0060
 7887W        W23356  10.951  13.352  16.690 -0.1968  0.0706  0.1441
 7888W        W23357   5.915   9.407  16.692 -0.0238 -0.0279 -0.1606
 7889W        W23358  13.685  14.380  11.716  0.0113 -0.0515  0.0102
 7890W        W23359   3.438  11.700   2.128 -0.0392  0.0969  0.1253
 7891W        W23360  11.528   1.379   4.954 -0.1312  0.0830  0.0316
 7892W        W23361  10.766  10.041   5.522 -0.0864  0.0533 -0.4221
 7893W        W23362   0.794  14.788  10.696  0.2140  0.0312  0.2049
 7894W        W23363  12.368  10.114   5.050 -0.1234 -0.0596  0.0595
 7895W        W23364  15.232   4.613   1.781  0.0598 -0.0109 -0.2846
 7896W        W23365   9.152   4.101   5.531  0.1623  0.2538 -0.0391
 7897W        W23366   9.033   9.560   4.100  0.0336  0.0115 -0.2512
 7898W        W23367   9.284   8.699   3.311 -0.2895 -0.0833  0.2609
 7899W        W23368   4.704  12.718  15.375  0.0167  0.0611  0.1656
 7900W        W23369   5.593   0.270  15.974  0.0809 -0.0027  0.1951
 7901W        W23370  17.201  11.508   5.332  0.1998  0.1421  0.0925
 7902W        W23371  13.011  16.846  14.135  0.1730  0.2134 -0.3768
 7903W        W23372   1.972   2.623  14.421  0.1956  0.0401  0.1627
 7904W        W23373   7.444   8.225   4.785  0.1229 -0.0676  0.3774
 7905W        W23374   8.363  11.389  16.205 -0.1139 -0.0563  0.1860
 7906W        W23375   9.201  17.103   1.365 -0.2416  0.0772  0.1433
 7907W        W23376   5.087   9.678   0.838  0.0051  0.0213  0.3198
 7908W        W23377  14.855   7.851  16.407 -0.1519 -0.0714  0.1960
 7909W        W23378   2.445   5.210   2.240 -0.1623 -0.1492 -0.1220
 7910W        W23379   9.778  11.766   1.959  0.1527  0.0329 -0.2140
 7911W        W23380  10.421  15.414   1.439  0.1519 -0.3073 -0.0400
 7912W        W23381   4.694   6.274   0.402  0.0030 -0.1600 -0.1581
 7913W        W23382   6.941   9.817  11.815 -0.1183  0.0430 -0.1066
 7914W        W23383   5.315   4.553   3.951  0.1610 -0.1964 -0.3377
 7915W        W23384  10.094  10.522  14.153  0.1764  0.0990 -0.0422
 7916W        W23385   9.481   5.525   4.766 -0.0023 -0.0768 -0.4711
 7917W        W23386  11.242   5.954   5.807  0.0292  0.0095 -0.3677
 7918W        W23387   5.254  14.677  14.867 -0.0058 -0.0673  0.1201
 7919W        W23388  14.180  14.284  16.010  0.0896 -0.0509 -0.0189
 7920W        W23389   1.463  16.391   3.437  0.1328 -0.0675  0.0007
 7921W        W23390   1.567   2.947   1.228  0.0789 -0.1056  0.2755
 7922W        W23391  11.568   9.848   5.921 -0.1634 -0.0005 -0.0057
 7923W        W23392  15.287   8.801   4.874 -0.0962  0.1475  0.2255
 7924W        W23393  12.996   8.497   5.445  0.0212 -0.4029 -0.0980
 7925W        W23394  10.882   9.665   4.175  0.0393  0.2447  0.3830
 7926W        W23395  14.918  11.035   1.224  0.1614  0.3002 -0.0899
 7927W        W23396  16.164  12.665  13.940  0.2301  0.1084  0.2666
 7928W        W23397   6.463   1.328  13.450  0.1680  0.0253 -0.0064
 7929W        W23398   6.948   3.759   5.355  0.0318  0.2620  0.1722
 7930W        W23399   6.782  14.647   3.846  0.0477  0.0339  0.1700
 7931W        W23400   2.691  10.699  15.193  0.3155 -0.0989 -0.0004
 7932W        W23401   0.282   6.855   2.758  0.2048 -0.0224  0.0038
 7933W        W23402  16.718  11.897  12.946 -0.0457  0.0921 -0.2168
 7934W        W23403   8.480   7.447  16.257 -0.3260 -0.1164 -0.0126
 7935W        W23404   8.754  13.598   2.975 -0.1030  0.0484  0.0442
 7936W        W23405   2.085   3.158  11.756 -0.1671  0.0255 -0.1172
 7937W        W23406  14.052  13.408   1.158 -0.0881  0.1304  0.2554
 7938W        W23407   9.211   5.915  14.488 -0.1583  0.0960 -0.0832
 7939W        W23408   1.546   5.167  16.422  0.3719  0.0153 -0.0093
 7940W        W23409  12.810   3.372   1.440  0.1483 -0.3516  0.1043
 7941W        W23410   0.974   9.243  14.177  0.2002  0.0337  0.4887
 7942W        W23411   9.737   6.343  12.578 -0.4261  0.0339  0.0778
 7943W        W23412  15.663   6.435  12.527 -0.2234  0.1558 -0.0924
 7944W        W23413  10.556   8.234   1.770 -0.1493  0.1306 -0.2015
 7945W        W23414   6.626   8.845  16.113 -0.4050 -0.0303  0.0232
 7946W        W23415   5.640   1.503   3.162 -0.1703  0.1470 -0.0984
 7947W        W23416  10.499  11.802  12.574 -0.2235  0.1383 -0.0674
 7948W        W23417   5.365   9.730  14.853  0.0051 -0.0635 -0.0918
 7949W        W23418   5.992  17.261   2.891  0.1235 -0.0129  0.0969
 7950W        W23419   6.392  11.215  15.237 -0.1903 -0.1339 -0.0719
 7951W        W23420  14.099  17.447  12.463  0.3450  0.1932  0.0143
 7952W        W23421   6.938   6.134  13.975  0.2673 -0.0822  0.0156
 7953W        W23422   9.016  10.379   6.339 -0.2235  0.6514  0.1226
 7954W        W23423  14.129  10.464  16.452  0.2668  0.1463 -0.2695
 7955W        W23424  11.044   4.727  14.047  0.0778 -0.1987  0.2793
 7956W        W23425   3.329   2.485   5.832 -0.3634  0.1716  0.0896
 7957W        W23426  14.368   8.038   2.909 -0.0539 -0.2746 -0.2063
 7958W        W23427   9.567   7.614  13.114  0.2983 -0.1435 -0.1921
 7959W        W23428   4.399   0.644  16.553  0.2297 -0.0484 -0.2210
 7960W        W23429  16.759   5.115   3.448  0.1740  0.0381 -0.0432
 7961W        W23430   8.369   9.622   1.337 -0.0994 -0.0276 -0.2938
 7962W        W23431  11.995   2.707   1.107  0.1660  0.0993 -0.0181
 7963W        W23432   6.135  10.686   4.268 -0.0550 -0.0140  0.0996
 7964W        W23433  16.090  13.518   1.855  0.2901 -0.0133  0.2650
 7965W        W23434   4.524  14.268   1.169 -0.0886 -0.0579  0.0017
 7966W        W23435  15.130   3.934  16.214  0.0894  0.0221  0.0462
 7967W        W23436   8.333  14.176   6.569 -0.1172 -0.0649 -0.0607
 7968W        W23437  12.215   6.739   0.864 -0.0364  0.1806  0.1326
 7969W        W23438  10.959  15.627   4.656  0.1360 -0.2587 -0.3216
 7970W        W23439   7.425  11.839  14.357  0.1671 -0.2384 -0.3212
 7971W        W23440  15.891   5.459  11.736 -0.0262 -0.2868 -0.1989
 7972W        W23441  10.356   0.301   1.908 -0.1725  0.0332  0.1066
 7973W        W23442   5.947  12.494   4.852 -0.1160 -0.2183  0.0021
 7974W        W23443  15.370   6.411  16.478  0.2167  0.0423 -0.0228
 7975W        W23444   9.117   6.761  12.733  0.3968  0.1972 -0.1621
 7976W        W23445  17.086  13.568  10.786 -0.0388  0.0117 -0.2144
 7977W        W23446   7.598   0.999  16.765 -0.0623  0.0184 -0.0378
 7978W        W23447   9.629   6.283  12.069 -0.2044  0.1031 -0.1751
 7979W        W23448  14.968   1.406  15.353 -0.3576  0.2021 -0.5242
 7980W        W23449   9.225   7.264   2.687  0.0731 -0.2552 -0.0465
 7981W        W23450  13.515  15.896   2.859  0.1779 -0.0638  0.0627
 7982W        W23451   5.091   6.295  14.826  0.0668  0.0645 -0.2224
 7983W        W23452  13.917  14.626  12.659 -0.0685 -0.0975  0.1522
 7984W        W23453   1.797   0.271   0.128  0.2477 -0.1130 -0.1295
 7985W        W23454  11.250   6.018  12.387 -0.3504  0.0504  0.0885
 7986W        W23455   8.928  13.373   1.904  0.0262 -0.3014 -0.1560
 7987W        W23456  10.374  17.080  15.178 -0.0778  0.0809  0.2566
 7988W        W23457  12.674  11.014  15.631 -0.2178 -0.1780 -0.0303
 7989W        W23458  12.995  17.661  16.590 -0.1031 -0.1143 -0.2426
 7990W        W23459   2.468  13.550  14.939 -0.1322 -0.0396  0.1528
 7991W        W23460  17.113  12.614   2.709  0.0451  0.0633 -0.1013
 7992W        W23461   0.245  14.052   2.048 -0.5048  0.1703 -0.3248
 7993W        W23462   7.620   3.397   0.084 -0.0410 -0.2500 -0.1420
 7994W        W23463   9.714   6.772  15.403 -0.0576  0.1276 -0.5097
 7995W        W23464  13.745   1.399  14.647  0.0386 -0.0599 -0.0304
 7996W        W23465  13.945  13.041   3.425  0.0613  0.2841  0.0773
 7997W        W23466   9.298   5.486  14.058  0.0190 -0.1693  0.0227
 7998W        W23467   5.385   1.230   0.105 -0.1211 -0.0557 -0.0157
 7999W        W23468  12.129   5.687  14.604  0.0592 -0.0873 -0.1531
 8000W        W23469   0.734   3.173   4.764  0.0671 -0.1889  0.0477
 8001W        W23470   7.930  11.348   3.146  0.1506  0.0949  0.0338
 8002W        W23471   3.683  11.140  16.531  0.4082 -0.0298 -0.0858
 8003W        W23472   8.007  13.907   0.498 -0.0245  0.0823  0.1041
 8004W        W23473   2.718   4.994  12.097  0.1649 -0.2368  0.1448
 8005W        W23474   1.898   1.720  12.453  0.2460  0.2665 -0.4489
 8006W        W23475  14.036   2.160   0.270  0.0139  0.0091 -0.2526
 8007W        W23476   6.875   1.576   0.083  0.0407  0.0834 -0.0610
 8008W        W23477   9.583  13.746   5.873 -0.4850 -0.1543 -0.1755
 8009W        W23478  13.074   3.542  12.200 -0.0280  0.0006  0.2866
 8010W        W23479   1.315  12.877   4.751 -0.2502 -0.1974  0.0354
 8011W        W23480   1.625   5.830   1.334 -0.2472 -0.0957 -0.0881
 8012W        W23481   1.730   9.729   4.604  0.0838  0.1470 -0.0305
 8013W        W23482   3.345   7.077   4.016  0.1606 -0.1060 -0.1042
 8014W        W23483   8.245  15.330  15.648  0.1110  0.0932  0.2128
 8015W        W23484  17.629  13.841   4.978 -0.2081  0.0893  0.1766
 8016W        W23485   4.649   6.818  12.494  0.1797 -0.1015  0.3033
 8017W        W23486  10.178   5.269   1.058 -0.0598 -0.2256 -0.0229
 8018W        W23487  14.445   4.775  14.356  0.2441 -0.1017  0.2303
 8019W        W23488   6.323   9.885  15.304  0.0996  0.0224  0.0536
 8020W        W23489   4.083   5.182  13.987 -0.0950 -0.3075 -0.1562
 8021W        W23490   4.218   6.691   4.124  0.1520  0.0658 -0.1029
 8022W        W23491  14.560   1.376   0.362 -0.1481  0.2289 -0.2479
 8023W        W23492   8.686   3.048  13.653 -0.1845 -0.4042  0.0762
 8024W        W23493   2.474  14.366   3.415 -0.0602 -0.0828 -0.0544
 8025W        W23494   8.752   7.480   2.584 -0.0775 -0.0096  0.2420
 8026W        W23495   5.199  14.676   4.355 -0.1135 -0.1111 -0.0331
 8027W        W23496   4.938  10.312   3.758  0.2250  0.2789 -0.2483
 8028W        W23497   8.574   0.967   1.986  0.1117 -0.1100  0.0500
 8029W        W23498   6.085   8.177   3.056  0.3328  0.2391 -0.2022
 8030W        W23499  16.116   3.817   3.793  0.2628 -0.0033  0.0421
 8031W        W23500  15.237   6.614   5.390 -0.2306  0.1026  0.1365
 8032W        W23501  16.058   0.915  12.862 -0.1022  0.0926  0.0519
 8033W        W23502   8.984   7.538   1.089  0.2484  0.0631  0.3210
 8034W        W23503  15.618   1.213   1.177  0.2049  0.0692  0.1192
 8035W        W23504   9.032  16.991   0.865 -0.2693 -0.1505 -0.2749
 8036W        W23505  12.699   0.885   5.409 -0.1600 -0.0858 -0.0014
 8037W        W23506  14.828  12.838   1.018  0.2315  0.2091  0.0475
 8038W        W23507  11.342   3.075  12.788 -0.0799 -0.1311 -0.0301
 8039W        W23508  11.375   0.454   0.711  0.0041 -0.1309 -0.4517
 8040W        W23509  14.989   8.857  11.583 -0.2139  0.2927  0.4894
 8041W        W23510   4.428  13.359  16.082  0.1732 -0.1049  0.0231
 8042W        W23511   9.155   6.677  14.717  0.0251  0.1280  0.1122
 8043W        W23512   2.457  16.755  14.718  0.0189  0.0612  0.1911
 8044W        W23513   6.715   1.069   4.321 -0.1222  0.1806 -0.0085
 8045W        W23514   9.645  16.661  16.577  0.0455 -0.1458  0.1611
 8046W        W23515  12.649   8.717   4.312 -0.3005  0.0959  0.2668
 8047W        W23516   3.600   0.839   1.020  0.1401 -0.3297  0.0889
 8048W        W23517   6.224   5.814  16.085 -0.2881  0.1310 -0.1255
 8049W        W23518  17.608   2.380  14.033 -0.0786  0.0081  0.0706
 8050W        W23519  16.144   2.984   0.649 -0.2454 -0.2767 -0.1458
 8051W        W23520  17.779  10.924  11.610 -0.1576  0.2500 -0.1062
 8052W        W23521   0.639   4.674  15.110  0.3056  0.1078 -0.0444
 8053W        W23522   0.213   8.991  12.259  0.0934 -0.1472 -0.1443
 8054W        W23523   0.537  12.760  13.265  0.0867 -0.0972 -0.2437
 8055W        W23524  13.969  11.360   5.404  0.0298 -0.0952  0.3195
 8056W        W23525   6.231   7.720   2.950  0.0617  0.0130 -0.2040
 8057W        W23526  15.052   2.085  15.381  0.1428  0.0142 -0.3581
 8058W        W23527  12.214   3.505   0.613  0.2223 -0.0094 -0.1390
 8059W        W23528   3.171   8.782  12.724  0.2736 -0.0897 -0.2470
 8060W        W23529   4.819   5.461   4.104 -0.0015 -0.1319  0.0298
 8061W        W23530   2.292   2.772   1.198  0.3657 -0.0551 -0.1784
 8062W        W23531  12.295   1.404  15.799  0.0071  0.0478  0.3594
 8063W        W23532   8.451  12.059  13.113 -0.0164  0.2288 -0.0161
 8064W        W23533  13.659  14.967   5.091  0.1789  0.0476 -0.1752
 8065W        W23534  11.717   1.888   3.249  0.2632  0.0431 -0.0261
 8066W        W23535  14.873   1.275   2.785  0.0396 -0.0994 -0.0585
 8067W        W23536   4.060  14.984  15.574 -0.0023  0.0050  0.0557
 8068W        W23537   2.299   3.990  12.239 -0.1859 -0.0999  0.0702
 8069W        W23538   3.943   2.209  16.356  0.2909 -0.1029 -0.0541
 8070W        W23539   1.532   3.400  15.467  0.0666 -0.0829 -0.0237
 8071W        W23540   4.235  10.028  13.039  0.2707 -0.0963  0.0382
 8072W        W23541   0.384   9.291  14.220 -0.5335 -0.0430 -0.0376
 8073W        W23542  11.633  15.750  13.942 -0.0767 -0.0431 -0.0578
 8074W        W23543  16.570  12.337   3.818 -0.0834 -0.0314  0.2836
 8075W        W23544  13.828  15.371  14.864  0.0562 -0.0263 -0.1185
 8076W        W23545  12.482  15.471   0.817  0.0681 -0.3421  0.0206
 8077W        W23546   0.226   5.888   2.061 -0.3863 -0.1642  0.1367
 8078W        W23547   4.111  14.493   2.614 -0.3086 -0.1578  0.4056
 8079W        W23548  10.644  12.564  14.332  0.5615  0.2149  0.0194
 8080W        W23549  12.410  17.596  16.830 -0.0513 -0.1326  0.1607
 8081W        W23550  12.067   9.917   1.000 -0.3982  0.1200  0.1001
 8082W        W23551   5.337  10.960   3.187  0.0179  0.0500 -0.3793
 8083W        W23552  11.462   3.877   3.097 -0.0353 -0.0554  0.0819
 8084W        W23553   0.418   5.023  12.615 -0.2323 -0.0116 -0.2188
 8085W        W23554  11.201  14.150  13.542  0.3835  0.0326  0.1452
 8086W        W23555   5.254   8.302   1.155  0.3043  0.0656  0.0008
 8087W        W23556  17.056  11.361   4.473  0.2795 -0.0500  0.0632
 8088W        W23557  14.290   5.623   5.179 -0.0726  0.1683  0.0483
 8089W        W23558  16.610   3.866   3.233  0.0744 -0.0856  0.0568
 8090W        W23559   1.251   6.872  13.619  0.1170 -0.0852  0.2284
 8091W        W23560  15.016   2.843  11.710 -0.1801  0.1136 -0.1612
 8092W        W23561  14.942   2.601  15.280  0.3265  0.2901 -0.3932
 8093W        W23562   1.255   6.563  11.613 -0.1061 -0.0609 -0.1276
 8094W        W23563  12.911  10.299   1.340  0.0623 -0.1382  0.4034
 8095W        W23564   2.865  12.772  16.349 -0.1335 -0.1583  0.2109
 8096W        W23565  16.478   9.029  13.658 -0.1161 -0.1288 -0.1764
 8097W        W23566  17.395   9.855   3.752  0.2513 -0.0868 -0.1709
 8098W        W23567   8.723   3.629  13.897 -0.2165 -0.1084  0.2804
 8099W        W23568  10.006   2.666   1.990  0.1499 -0.0296 -0.0312
 8100W        W23569  12.793   0.644   2.812  0.0809 -0.2042 -0.1303
 8101W        W23570   8.570   0.315  15.249  0.1208 -0.2562 -0.0441
 8102W        W23571   4.636  12.567  16.673  0.1385  0.1390  0.0763
 8103W        W23572   1.445   4.335  11.934  0.0496 -0.0662 -0.1478
 8104W        W23573  15.315  11.807  16.829 -0.2046  0.2341  0.1157
 8105W        W23574  13.143   8.173   4.526  0.1970 -0.2692  0.1548
 8106W        W23575  11.763  12.516   2.577  0.0339  0.2976 -0.1287
 8107W        W23576   7.178   7.163   3.304 -0.0617  0.1930 -0.0257
 8108W        W23577   5.831   6.108  16.128 -0.2899  0.4089 -0.0928
 8109W        W23578   8.609  14.217  15.758  0.0949  0.2558 -0.1812
 8110W        W23579   0.087   6.462   1.217 -0.2472 -0.0710  0.0578
 8111W        W23580  14.400   0.619   2.305 -0.0105  0.1357  0.2403
 8112W        W23581   8.866   5.267  16.665 -0.0290  0.1520  0.2444
 8113W        W23582  10.673   0.849  14.556 -0.0019 -0.0711 -0.0501
 8114W        W23583   1.189   3.972  11.077 -0.1378  0.1658 -0.1663
 8115W        W23584   2.256  13.423   0.858  0.0541  0.0946  0.0294
 8116W        W23585  14.615  12.023   1.437  0.2976 -0.3918  0.0398
 8117W        W23586   1.977  11.399  15.164 -0.3712 -0.2662 -0.2275
 8118W        W23587   3.221   3.139   1.418  0.1059  0.0126  0.4235
 8119W        W23588  14.630   5.460   0.429  0.1007  0.1565  0.0626
 8120W        W23589  15.949  10.859  15.055  0.2753 -0.0556 -0.0699
 8121W        W23590  10.025  13.223  10.924  0.0749  0.1422 -0.1261
 8122W        W23591   8.398  14.095   4.785  0.0264 -0.1294 -0.0803
 8123W        W23592   0.621  16.388   2.877  0.1180  0.1013 -0.0417
 8124W        W23593   8.062   1.196  12.138  0.0606 -0.1609  0.3656
 8125W        W23594   7.643  13.255   1.982  0.0824  0.0261  0.0177
 8126W        W23595   9.876   6.424   3.609 -0.0552 -0.1786 -0.1577
 8127W        W23596   3.518  17.062  15.743  0.1323 -0.4424  0.2434
 8128W        W23597   6.595  17.729  14.465 -0.2415  0.0870  0.1558
 8129W        W23598  14.957   5.426   2.828  0.3588 -0.0983  0.1575
 8130W        W23599   9.730  16.954   0.188  0.1490 -0.0705 -0.2122
 8131W        W23600   1.699   5.246   3.309  0.0847 -0.1022  0.0330
 8132W        W23601  11.836  14.595  16.019  0.1374 -0.0092 -0.1337
 8133W        W23602   1.605  13.738  13.949  0.1056 -0.0877  0.0014
 8134W        W23603   6.216  13.325  14.431  0.1008  0.2082 -0.0534
 8135W        W23604  13.156   0.489   3.306 -0.0685  0.2044  0.1254
 8136W        W23605  14.528  10.716   5.251 -0.0229 -0.2757  0.0479
 8137W        W23606   9.763   2.273   0.311  0.1959 -0.3107 -0.2236
 8138W        W23607   5.700   2.374   1.650 -0.2119  0.1055 -0.0153
 8139W        W23608   5.913   2.768   3.445 -0.0229 -0.1055  0.0194
 8140W        W23609  13.788  12.449   0.427 -0.2052  0.1941  0.2047
 8141W        W23610  15.080  11.529  13.414 -0.1371  0.0633  0.1789
 8142W        W23611   0.084  12.147   3.881  0.1195 -0.1846 -0.2924
 8143W        W23612  14.991  11.650  13.948  0.2802  0.0891 -0.0451
 8144W        W23613   4.683  10.831  13.046 -0.2892 -0.0596 -0.1320
 8145W        W23614   3.542   8.251   1.941 -0.0636 -0.3219 -0.0875
 8146W        W23615   3.307  16.637   3.256 -0.1924  0.2144 -0.1707
 8147W        W23616  10.902  14.585  14.616 -0.0646 -0.1343 -0.1075
 8148W        W23617   7.779   9.056  12.515  0.1203 -0.3498 -0.2399
 8149W        W23618   3.478  14.246   1.639  0.2316  0.0433  0.0473
 8150W        W23619  15.677  17.240  15.848  0.2509  0.0396  0.1921
 8151W        W23620   3.781  13.797  11.317 -0.2768 -0.0223  0.1276
 8152W        W23621  12.412  15.772  13.728 -0.2350 -0.1061 -0.0609
 8153W        W23622  17.587   9.591   0.327  0.0485  0.2128  0.5487
 8154W        W23623   0.393   5.291   4.321  0.1990 -0.1267  0.0390
 8155W        W23624   9.818   9.843  14.785 -0.1356 -0.1277  0.2444
 8156W        W23625  11.316  16.444  13.646  0.2778  0.0739  0.1367
 8157W        W23626  17.292   2.579   5.352 -0.2038 -0.0658  0.2156
 8158W        W23627   9.893   4.737  12.912 -0.0806  0.2758 -0.2074
 8159W        W23628  10.316   7.174   1.466 -0.2369 -0.2981 -0.0812
 8160W        W23629  15.687   8.864   3.445 -0.0639 -0.1662 -0.2037
 8161W        W23630   8.473   0.642   4.462  0.2571  0.0933 -0.0351
 8162W        W23631   0.508   7.003  14.138 -0.0771 -0.2738  0.3099
 8163W        W23632   1.223  10.804   1.645 -0.0919 -0.0450 -0.1029
 8164W        W23633  17.437   3.764  14.183 -0.4150 -0.0852  0.2662
 8165W        W23634   5.320   6.700   5.026 -0.1380  0.1345 -0.1139
 8166W        W23635   6.724   1.647  15.839  0.2713  0.2176  0.0376
 8167W        W23636   0.670  12.009  11.331 -0.0067 -0.0845 -0.2923
 8168W        W23637  13.538   1.644  13.421  0.0944  0.1650  0.1557
 8169W        W23638   8.163   2.048  12.722  0.1280  0.1938 -0.0223
 8170W        W23639   1.758   7.903   0.916 -0.3438  0.2568  0.1991
 8171W        W23640   3.224   2.501  16.448  0.0859  0.1845  0.0208
 8172W        W23641   3.595  12.876   2.585 -0.2172  0.1849  0.1870
 8173W        W23642  16.256   7.644  13.784  0.0888 -0.1621  0.0478
 8174W        W23643   2.479   5.365   1.739 -0.0220  0.0615  0.0206
 8175W        W23644   1.778   5.567  15.080 -0.1568  0.1371  0.1641
 8176W        W23645   5.018  16.702  15.121  0.1737  0.0142  0.1023
 8177W        W23646   1.814   2.465   5.745  0.4445 -0.1779  0.1348
 8178W        W23647   3.409  10.673   4.595  0.1757  0.0728  0.1044
 8179W        W23648   1.976   2.781   1.590  0.1323  0.0880 -0.0815
 8180W        W23649  10.337  15.470  15.461  0.1233 -0.0027 -0.0290
 8181W        W23650   9.095   3.111   4.102 -0.0514  0.0454  0.3741
 8182W        W23651   6.093   2.555  13.246 -0.0249 -0.0439  0.0291
 8183W        W23652  16.089   2.200  11.019  0.2727  0.1211  0.1724
 8184W        W23653   1.459   3.680   3.735 -0.0121  0.1801  0.1377
 8185W        W23654   4.510   1.418   2.630  0.0884  0.0664  0.3587
 8186W        W23655  10.390  11.583   0.626 -0.3462 -0.0762 -0.3039
 8187W        W23656  17.686  10.808   1.440  0.1813  0.1249 -0.0327
 8188W        W23657  14.913   8.360  11.683 -0.0749  0.0704 -0.1413
 8189W        W23658  11.668   3.959   4.579 -0.1345  0.1539 -0.0292
 8190W        W23659   2.522  13.834  11.901 -0.1963  0.3764 -0.1449
 8191W        W23660  11.862   4.639   3.127 -0.1048  0.3167  0.0454
 8192W        W23661  14.133  17.163  14.545 -0.2905  0.0273  0.3410
 8193W        W23662   0.039  12.933  11.587 -0.0559 -0.2672  0.0244
 8194W        W23663  16.151   6.079   1.994  0.1198 -0.3184  0.2011
 8195W        W23664   8.928   5.008  12.898 -0.0389 -0.0123 -0.0875
 8196W        W23665   1.051   9.825   5.026 -0.1311 -0.0819  0.1763
 8197W        W23666   9.031   5.528  16.244 -0.3859 -0.2618 -0.2881
 8198W        W23667   8.433   6.352  16.375 -0.0814 -0.0377 -0.0635
 8199W        W23668   1.022   1.441   2.247  0.5299 -0.2207 -0.3530
 8200W        W23669   3.381  15.440  15.118  0.0177  0.0809 -0.1984
 8201W        W23670   7.665   7.253   6.027 -0.0357 -0.1717 -0.3110
 8202W        W23671   3.009   2.384  16.021  0.0143  0.3636  0.0675
 8203W        W23672   6.437  17.159   6.508  0.0504 -0.0093  0.1104
 8204W        W23673  16.515  14.064  13.906 -0.0658 -0.0400  0.0183
 8205W        W23674  15.430   1.316  15.650  0.2399  0.1663  0.2041
 8206W        W23675  10.907  15.166   2.986  0.0555  0.1045 -0.1153
 8207W        W23676   4.218  15.756  15.947  0.0779 -0.0998  0.0262
 8208W        W23677   2.096   1.557  13.766 -0.3756 -0.2445  0.2486
 8209W        W23678   1.235  14.620   1.177 -0.1872  0.1358  0.0328
 8210W        W23679  12.139  13.457   0.232  0.1506 -0.4164  0.0987
 8211W        W23680  10.324   7.536   0.094  0.1258 -0.0907 -0.1381
 8212W        W23681  15.077   8.800  13.114 -0.0220  0.0860  0.1865
 8213W        W23682   6.152  10.220  11.755 -0.2187  0.0243  0.0553
 8214W        W23683   8.611  13.199   4.638 -0.0267  0.1760 -0.0531
 8215W        W23684   3.943  10.138   4.510 -0.2676  0.3621  0.0087
 8216W        W23685   7.670  10.141   3.686 -0.1893 -0.0985  0.0150
 8217W        W23686  11.757   7.354  16.501 -0.0960 -0.1584  0.0338
 8218W        W23687   7.537  11.318  14.424 -0.0734  0.2928  0.1617
 8219W        W23688   5.372   4.317  14.092 -0.1119 -0.2622  0.3143
 8220W        W23689   9.517   6.571   2.573  0.2422 -0.2182  0.4169
 8221W        W23690   7.896   3.884  11.955 -0.0738 -0.0889 -0.3251
 8222W        W23691   7.274   7.789   0.564  0.2593 -0.1436 -0.0907
 8223W        W23692  10.604   7.567   2.894  0.2060 -0.2742  0.1499
 8224W        W23693  15.562   9.891   0.370 -0.2579  0.1834  0.0419
 8225W        W23694   4.648   4.981   3.403  0.0026  0.3824 -0.0182
 8226W        W23695   2.880  16.016  15.751 -0.0265  0.1120 -0.1601
 8227W        W23696   1.072  12.874   1.965  0.1570  0.3139 -0.1569
 8228W        W23697  16.445   5.380  11.044  0.1956 -0.3379 -0.0518
 8229W        W23698  16.011   2.754  12.463 -0.2331  0.0364 -0.1507
 8230W        W23699  10.710   2.467  12.921  0.0851 -0.0292  0.0766
 8231W        W23700   7.099   7.297   0.783 -0.1196  0.2148 -0.0054
 8232W        W23701   4.744   8.806  12.852 -0.1623 -0.2396  0.0447
 8233W        W23702   2.698   8.146  11.585  0.2870  0.1881  0.1923
 8234W        W23703  14.115  10.325  12.628  0.0130 -0.1731  0.0541
 8235W        W23704   0.893   6.220  11.772  0.1176 -0.0041  0.0499
 8236W        W23705  11.784  10.227   5.619 -0.3094  0.3940  0.0682
 8237W        W23706   8.269  10.686   4.152 -0.2159 -0.2514 -0.1178
 8238W        W23707  13.181   3.602   1.654 -0.1060  0.2104 -0.1133
 8239W        W23708   7.627   9.518  15.487 -0.1063 -0.1367  0.4080
 8240W        W23709  17.527   1.954  12.491  0.1285 -0.1601  0.0398
 8241W        W23710   9.295  16.117  15.000 -0.1342 -0.2668  0.0972
 8242W        W23711  12.124   2.419   0.566  0.1489 -0.2563 -0.2236
 8243W        W23712  10.446  10.358   2.168  0.2279  0.1309  0.0516
 8244W        W23713   0.259   0.882  13.019  0.2247  0.1366  0.0502
 8245W        W23714  14.074   3.989  12.207 -0.1435 -0.1387 -0.1332
 8246W        W23715   6.537   1.036   0.967 -0.1982  0.0193 -0.3144
 8247W        W23716  17.167   0.144  12.958 -0.1055  0.1971 -0.2619
 8248W        W23717  13.950   5.856   0.897  0.4800  0.3613  0.0862
 8249W        W23718   8.584   3.179   3.003 -0.0891 -0.2958  0.0639
 8250W        W23719  16.302  12.250  13.682  0.1250 -0.0246 -0.0697
 8251W        W23720  12.999   8.692  15.694 -0.1636  0.1072  0.1102
 8252W        W23721   8.544   1.941   6.433 -0.2559  0.0359  0.0284
 8253W        W23722  12.950   8.864  15.228  0.0925  0.0518 -0.0395
 8254W        W23723  15.565  10.896  13.844 -0.0564 -0.2212 -0.0036
 8255W        W23724   2.483  12.195   2.025 -0.0248 -0.0841 -0.2059
 8256W        W23725   7.267  15.823   6.488 -0.1224  0.0659 -0.3738
 8257W        W23726  15.012   3.930  16.820  0.0758  0.1131 -0.1225
 8258W        W23727   7.934   1.010  12.924  0.0673  0.2577 -0.1784
 8259W        W23728   0.492   2.681   2.760  0.3562  0.2134  0.1098
 8260W        W23729   4.299   9.897  13.980 -0.0516  0.1360  0.1588
 8261W        W23730   0.025  13.025   4.406 -0.0318  0.1635 -0.0470
 8262W        W23731   2.012   7.890  12.910  0.2450 -0.2001 -0.0660
 8263W        W23732   9.024  14.858   0.633  0.0094  0.1539 -0.2106
 8264W        W23733  16.681  12.793  14.562  0.2464  0.2853  0.3351
 8265W        W23734  17.701  13.369   3.467  0.0721 -0.1124  0.0946
 8266W        W23735  15.487   8.581   0.381  0.2745 -0.0896 -0.0370
 8267W        W23736  12.837   7.852  14.421  0.0919  0.1646 -0.0721
 8268W        W23737  14.938   6.001   2.738 -0.2380  0.1998 -0.0552
 8269W        W23738  13.553   9.161  16.350 -0.0415  0.2854  0.0391
 8270W        W23739  10.648  10.143   4.248  0.1111  0.1986 -0.1968
 8271W        W23740  10.430  16.418  14.156 -0.3569  0.1789 -0.2191
 8272W        W23741  14.386  15.226  13.701 -0.3697  0.3235  0.0718
 8273W        W23742  13.041   0.569  11.875 -0.1904 -0.1287 -0.1256
 8274W        W23743   8.656   9.931  12.713  0.2584  0.0205 -0.2146
 8275W        W23744   4.316   5.036  16.623 -0.2999 -0.3914 -0.1359
 8276W        W23745  12.752   0.677  14.149  0.0428 -0.0179  0.2418
 8277W        W23746  15.585  12.483   0.853 -0.0662  0.1463  0.1461
 8278W        W23747   0.971   7.167  16.498 -0.3265  0.2418 -0.1106
 8279W        W23748   1.042  13.194  14.508 -0.0179 -0.1969  0.2078
 8280W        W23749   3.129  12.300   3.784 -0.0278  0.0369  0.0163
 8281W        W23750  11.593   8.501  16.324  0.3396 -0.1578 -0.2942
 8282W        W23751  12.782  11.451   5.078  0.0270 -0.1724 -0.0534
 8283W        W23752  16.213  14.349  13.450  0.0949 -0.0215 -0.0437
 8284W        W23753   8.654   5.960  12.418 -0.0678  0.0711 -0.1539
 8285W        W23754   7.018  17.616   0.303 -0.0672  0.3502  0.4299
 8286W        W23755   3.179   0.832   2.094  0.0598 -0.1686 -0.0149
 8287W        W23756  14.843   2.984   2.784  0.0347 -0.0787  0.0015
 8288W        W23757  11.192  12.164  14.742 -0.0094 -0.0366 -0.4328
 8289W        W23758  14.130  12.248  13.891 -0.2778 -0.0198  0.0128
 8290W        W23759   4.210   7.136  15.479  0.0786 -0.1751 -0.1877
 8291W        W23760  10.013  15.839   2.715  0.2187  0.2057 -0.3909
 8292W        W23761   4.333   3.619   4.262 -0.1721  0.2858 -0.0860
 8293W        W23762   2.511  14.331  11.208 -0.0987  0.2110  0.2003
 8294W        W23763  13.953   5.161   1.153  0.2059  0.3633 -0.0185
 8295W        W23764   0.613   7.129   1.861  0.1536 -0.2274 -0.0065
 8296W        W23765   4.712   8.515  14.898  0.0042 -0.3790  0.0760
 8297W        W23766  16.415  16.498  12.080 -0.0426 -0.0536  0.1754
 8298W        W23767  15.364   7.654  12.859  0.0057  0.0037  0.1504
 8299W        W23768   5.699   8.468  15.201  0.0667 -0.2076  0.3234
 8300W        W23769   3.594   0.835   4.988 -0.0062  0.2277 -0.2340
 8301W        W23770  16.510   1.234   5.610  0.0036  0.1620 -0.0213
 8302W        W23771   1.564   1.625   3.427  0.2913  0.1961 -0.0861
 8303W        W23772  15.932  12.798  15.884  0.1566  0.4226  0.0983
 8304W        W23773   7.295  16.358   1.875  0.2346  0.1905  0.0325
 8305W        W23774   6.297   4.493  16.813 -0.1178  0.2760  0.1571
 8306W        W23775   5.911   2.108  13.517  0.3002  0.2417  0.2295
 8307W        W23776  14.645  10.094   3.168 -0.3395  0.0259 -0.1292
 8308W        W23777   6.198   3.644  12.085 -0.0266 -0.0485  0.0468
 8309W        W23778   9.890  13.164  16.175 -0.1495 -0.4468  0.1518
 8310W        W23779   4.171   6.421  11.258  0.3571  0.0446  0.0134
 8311W        W23780  17.639   6.229  13.329  0.4543 -0.1332  0.0094
 8312W        W23781   9.269  13.832   4.188 -0.0499  0.0776  0.1234
 8313W        W23782   2.811   3.001   4.193 -0.1871  0.1101 -0.0218
 8314W        W23783  15.393  13.574   0.262  0.0937 -0.1108 -0.5228
 8315W        W23784  11.391   9.683  15.006 -0.0065 -0.1386  0.0208
 8316W        W23785   0.882   2.484   5.293  0.1641  0.0772  0.1247
 8317W        W23786   0.666  13.791  11.419  0.1857 -0.0510 -0.2574
 8318W        W23787  12.879  17.230   1.870 -0.0655  0.1798  0.0466
 8319W        W23788  13.029   9.157  16.016  0.1314  0.1353  0.0449
 8320W        W23789   0.932  10.367  12.151  0.4190  0.0847 -0.4514
 8321W        W23790  17.621   2.944  15.259  0.1077 -0.2088 -0.0385
 8322W        W23791   2.023  13.573   2.542 -0.0767  0.3489 -0.0386
 8323W        W23792  14.896  16.752  11.140  0.3140  0.0118 -0.1685
 8324W        W23793  10.832   9.172  15.412  0.1315 -0.1456  0.0744
 8325W        W23794   5.212   3.273   3.250 -0.1152 -0.0189  0.0481
 8326W        W23795   3.698  10.953  10.077 -0.2252 -0.2349 -0.0312
 8327W        W23796   7.000   7.555  10.767 -0.2160  0.1627  0.1516
 8328W        W23797   4.922   7.845  15.571  0.1760  0.1244 -0.0184
 8329W        W23798  17.644   6.159  11.404  0.1196 -0.2047  0.1425
 8330W        W23799   7.309  16.840  15.850  0.1856  0.3636  0.1198
 8331W        W23800  11.228  17.189  12.332 -0.2292 -0.0565  0.0799
 8332W        W23801   2.711   4.180   4.983 -0.3451 -0.0640 -0.0688
 8333W        W23802  16.852  12.038   1.172 -0.0387  0.1299 -0.1346
 8334W        W23803  14.918  16.602   4.597  0.0907 -0.0942 -0.0034
 8335W        W23804  16.938  17.545  12.250  0.0709  0.0974 -0.2458
 8336W        W23805   0.820   1.334   4.503  0.0800  0.2835  0.0834
 8337W        W23806   6.842  11.014  12.283  0.0819 -0.0448  0.4750
 8338W        W23807   6.559   4.690   2.757  0.1784 -0.1815  0.1596
 8339W        W23808   6.452  10.548  15.907  0.0790 -0.0272  0.1022
 8340W        W23809   5.361  15.206   3.410 -0.1523 -0.1096  0.0975
 8341W        W23810  15.571   9.718   4.732  0.0449 -0.1535 -0.0050
 8342W        W23811   8.684  12.003  14.433 -0.0935  0.1417 -0.1426
 8343W        W23812  10.622  16.532   0.028 -0.0929 -0.0260  0.0915
 8344W        W23813   1.532   0.340  12.734 -0.0045 -0.0665 -0.0122
 8345W        W23814   7.076   1.235  16.611  0.1765  0.1321  0.2566
 8346W        W23815   1.963  10.251  14.311 -0.3505 -0.1387 -0.1685
 8347W        W23816   7.413   7.721  15.752  0.1324 -0.3942  0.1880
 8348W        W23817  13.870   1.356   2.705  0.3251  0.1722  0.0007
 8349W        W23818   8.830  17.664   2.200  0.0987  0.1347 -0.0603
 8350W        W23819  10.413   6.258   1.721  0.2173  0.2072  0.1248
 8351W        W23820   8.243  13.355  12.678 -0.1583 -0.3293 -0.1467
 8352W        W23821   2.200   5.106   0.855 -0.0086  0.0825  0.5245
 8353W        W23822  16.156   2.545  16.600 -0.2325 -0.0588 -0.1597
 8354W        W23823  17.292  11.071  10.157 -0.0969 -0.3041  0.4057
 8355W        W23824  15.528   2.109  14.932 -0.1837  0.1450  0.1068
 8356W        W23825   2.114  11.829  16.081 -0.0478 -0.0372  0.3942
 8357W        W23826   3.802   1.192  16.147  0.1049  0.0673  0.1193
 8358W        W23827  10.036  16.760   0.588  0.1470  0.0558 -0.0079
 8359W        W23828  11.765   5.396  13.342 -0.1487 -0.2266 -0.3368
 8360W        W23829  11.535   2.959   1.399  0.4330 -0.1729  0.0887
 8361W        W23830   7.798   9.552  15.002 -0.0454  0.1987 -0.0456
 8362W        W23831   4.013   6.064   3.191 -0.2867  0.2910  0.1115
 8363W        W23832   9.949   6.885   2.866  0.0262 -0.1880  0.3253
 8364W        W23833  14.460  14.194  16.413 -0.0453 -0.0939  0.1509
 8365W        W23834   7.212   3.486   2.496  0.3451  0.0381 -0.0743
 8366W        W23835   2.310  16.194   3.300  0.0160  0.1813 -0.0142
 8367W        W23836  14.833   5.000  15.814 -0.0204  0.0538  0.0693
 8368W        W23837   4.921  15.804  13.639  0.1327 -0.0587  0.1385
 8369W        W23838  11.601   8.296   1.069  0.0542 -0.1122  0.1250
 8370W        W23839   0.293   1.965  12.449 -0.1662 -0.0329 -0.0446
 8371W        W23840   9.688   2.323   1.825 -0.0843  0.1177  0.0923
 8372W        W23841  14.463   0.489  10.688 -0.0945  0.2199  0.1611
 8373W        W23842  15.872   8.015   1.570 -0.2659 -0.0096  0.3455
 8374W        W23843   4.770  16.484   3.695  0.0993  0.0229 -0.1133
 8375W        W23844  10.122  14.492   3.052 -0.0872 -0.1645 -0.0757
 8376W        W23845  16.935  12.016   3.690 -0.2066  0.0439 -0.0892
 8377W        W23846   3.486   7.687  11.119  0.0377 -0.2825 -0.0154
 8378W        W23847   6.158  17.472  13.597 -0.2040 -0.0798 -0.0670
 8379W        W23848  14.254   1.197   4.906 -0.1932 -0.1707 -0.0044
 8380W        W23849   5.922   5.080   5.082  0.0165  0.0457  0.0976
 8381W        W23850  10.982   4.134  14.891  0.1371 -0.0084 -0.0855
 8382W        W23851   7.328   1.310  12.914 -0.2530 -0.4710  0.1919
 8383W        W23852  15.574  11.988  12.051 -0.0264 -0.2311 -0.2779
 8384W        W23853   7.084  17.153  14.958  0.1907  0.0100 -0.0350
 8385W        W23854   0.425  14.656  15.354  0.0690  0.0323 -0.0512
 8386W        W23855   8.636   9.215   4.708  0.1383 -0.2579 -0.1392
 8387W        W23856  15.536   2.973   3.367 -0.0554  0.0359  0.1838
 8388W        W23857  11.726  15.608   3.121  0.0856  0.0589 -0.0637
 8389W        W23858  14.032  17.424   3.130  0.4618  0.1518  0.2632
 8390W        W23859   7.796   5.821   1.117 -0.2919  0.4352 -0.1087
 8391W        W23860   5.379  14.107   2.161  0.3300 -0.1141 -0.0911
 8392W        W23861   9.230  16.260   1.568  0.0377 -0.0965  0.0688
 8393W        W23862   5.492   0.253   6.010 -0.5705  0.1601 -0.1126
 8394W        W23863   2.086  12.448   5.062  0.0629  0.0613  0.0627
 8395W        W23864   6.404   3.782  14.671 -0.0521 -0.1427  0.1298
 8396W        W23865   7.407   9.137   1.492  0.3053  0.0493  0.2881
 8397W        W23866   9.043  12.383  15.559  0.0029 -0.0262  0.3915
 8398W        W23867   4.308  10.495   0.368  0.0978 -0.0002  0.0364
 8399W        W23868  10.356   3.649   3.287 -0.2234  0.2211  0.1008
 8400W        W23869   8.747  17.119  11.572  0.3029  0.5403 -0.0422
 8401W        W23870  11.970  11.106  11.945 -0.0213  0.0383 -0.0629
 8402W        W23871  16.034   6.932  13.135 -0.0872  0.0513  0.0359
 8403W        W23872   0.293   1.241   4.296 -0.0965  0.0678 -0.1348
 8404W        W23873   9.275  10.948   4.066  0.1204  0.0469 -0.0820
 8405W        W23874  14.269   5.040  13.130 -0.1499  0.1346 -0.1054
 8406W        W23875   0.450  11.723  15.080  0.0958  0.4126  0.1402
 8407W        W23876   8.447   8.574  12.898 -0.0173  0.1638 -0.1130
 8408W        W23877  15.662  15.473   4.680  0.0390  0.1657 -0.2058
 8409W        W23878   8.116  16.283  15.095  0.1276  0.1840  0.0058
 8410W        W23879  13.100  10.113   2.694 -0.0164 -0.2411 -0.0070
 8411W        W23880   6.440  11.872  13.765  0.0761 -0.0921  0.1689
 8412W        W23881  12.533  16.489   2.881 -0.0542  0.1135  0.2575
 8413W        W23882   0.266   7.638   5.715 -0.4070 -0.0215  0.0154
 8414W        W23883   2.264  15.310   4.470 -0.0588 -0.3195 -0.1308
 8415W        W23884   4.436  14.946   3.691 -0.2855  0.0889 -0.0452
 8416W        W23885  12.054  10.047   6.090 -0.0479 -0.0618 -0.1152
 8417W        W23886   3.579  13.494  13.497  0.0679 -0.1392 -0.1101
 8418W        W23887  16.585   2.698   2.847 -0.0453  0.0880 -0.3702
 8419W        W23888   9.843  16.481   0.216  0.2109  0.1406 -0.1470
 8420W        W23889   4.600   6.924   3.949 -0.1300  0.1519 -0.1762
 8421W        W23890  14.309  13.127  15.491 -0.2070  0.0180 -0.2292
 8422W        W23891  16.446  16.473   4.879 -0.0539 -0.0229  0.0560
 8423W        W23892  14.852   0.705  10.935 -0.0118  0.1789  0.0183
 8424W        W23893   3.171   8.553   4.306 -0.0566 -0.0785  0.2426
 8425W        W23894   2.228   4.201   0.042 -0.1896 -0.0641  0.2343
 8426W        W23895   8.098  15.272   3.471  0.0167 -0.1831 -0.0182
 8427W        W23896   1.983  17.662  15.833 -0.3243  0.0800  0.1312
 8428W        W23897   4.798  14.395  14.951 -0.2496 -0.1169 -0.0480
 8429W        W23898  17.463   0.571  13.127 -0.2704 -0.1800  0.0415
 8430W        W23899   7.711   0.177   2.353  0.0185 -0.3243  0.2346
 8431W        W23900   6.892   5.002   6.296 -0.0848  0.3557  0.4081
 8432W        W23901   5.307   9.471  11.052 -0.1318  0.0229 -0.0751
 8433W        W23902   4.800   7.679   5.004 -0.1795 -0.0178  0.0667
 8434W        W23903   5.313   7.953  12.653  0.1587  0.3362 -0.0104
 8435W        W23904  11.330  12.626  13.115  0.0923 -0.2911 -0.3142
 8436W        W23905   0.674   5.200   0.591  0.1011  0.0002  0.2470
 8437W        W23906  14.322  15.757   5.725  0.1692 -0.1440 -0.2349
 8438W        W23907  14.826  10.946   5.652  0.1338  0.1091  0.0280
 8439W        W23908  16.247  14.979   5.100 -0.2131  0.0132 -0.1564
 8440W        W23909   9.294   9.445   5.400  0.0963 -0.1163 -0.1331
 8441W        W23910   6.218  15.597  16.171 -0.0336 -0.4536  0.2380
 8442W        W23911   3.593  10.079  15.995  0.0755  0.0328  0.2127
 8443W        W23912   1.227  14.711  12.509 -0.2499 -0.1510 -0.1614
 8444W        W23913  15.634  12.625  13.139 -0.0787  0.3003 -0.3079
 8445W        W23914  13.943  13.273  14.477 -0.0908  0.0439  0.2724
 8446W        W23915  13.141   1.100  11.655  0.0862 -0.2502 -0.2968
 8447W        W23916   3.250  16.461   0.134 -0.1899 -0.1068  0.2050
 8448W        W23917   4.278   0.532  11.112  0.1461  0.0357  0.0847
 8449W        W23918   0.616  14.412  15.874 -0.0042  0.0663  0.1151
 8450W        W23919   5.372   2.459  12.947 -0.0105  0.1996  0.0684
 8451W        W23920  15.336  10.263  15.795 -0.0602 -0.0810  0.0499
 8452W        W23921  10.300   5.807   4.124  0.0860  0.2605  0.0026
 8453W        W23922  14.400   2.707  15.520 -0.1817 -0.1936 -0.0495
 8454W        W23923   1.515   1.162  12.954 -0.1999 -0.1061 -0.1413
 8455W        W23924  16.960   0.191  12.493  0.0096 -0.0932  0.1065
 8456W        W23925  15.209   2.058  12.478 -0.1491 -0.1024 -0.2816
 8457W        W23926   7.268  12.566   4.432  0.0494 -0.1570  0.0068
 8458W        W23927   0.842   5.059   4.631 -0.2362  0.2739  0.1703
 8459W        W23928   3.010  14.387   5.166  0.1965  0.0393  0.1293
 8460W        W23929   5.159  11.165   4.318 -0.0507 -0.2436 -0.0088
 8461W        W23930  14.187   3.961  14.134  0.2347 -0.0252  0.1013
 8462W        W23931  17.233  10.282  11.030  0.1577 -0.0299 -0.0707
 8463W        W23932  10.705  13.682   4.181 -0.1564  0.0110 -0.1223
 8464W        W23933  10.484   0.894  13.360 -0.2137 -0.0800  0.0033
 8465W        W23934  11.675  13.487  14.173  0.1791 -0.0041 -0.1301
 8466W        W23935   8.217   7.929  14.529 -0.3509  0.0845 -0.0213
 8467W        W23936   5.847  16.944  12.247  0.0154  0.2581  0.1357
 8468W        W23937   3.165   6.007  15.287 -0.0638 -0.0399  0.1057
 8469W        W23938   1.837  14.655  11.749 -0.1958 -0.1503 -0.1766
 8470W        W23939   6.297   6.642   3.668  0.2230  0.2249  0.0420
 8471W        W23940   0.868   7.086  15.416 -0.0755 -0.0069 -0.1874
 8472W        W23941   4.553   7.541   3.228  0.0368 -0.1563 -0.0127
 8473W        W23942   2.186  11.055   1.484 -0.4270 -0.1392  0.2275
 8474W        W23943   5.861   3.966   4.429 -0.0111  0.2129  0.0210
 8475W        W23944  11.624  16.696   0.800 -0.1800 -0.1042 -0.2411
 8476W        W23945   4.185  12.040  14.070 -0.1856 -0.1961 -0.1655
 8477W        W23946  14.378   0.537   1.703  0.2020  0.0789  0.3651
 8478W        W23947  14.015   1.343  12.522  0.1051  0.0713  0.1246
 8479W        W23948  14.597   8.235   0.452  0.2954 -0.0045  0.2247
 8480W        W23949   4.087   5.879  12.860  0.2315  0.2445  0.1762
 8481W        W23950   0.283  17.065   0.970  0.1768 -0.2935  0.5194
 8482W        W23951   0.893  12.895   2.799  0.0741  0.0143  0.2641
 8483W        W23952  17.506   2.830  13.419  0.0443  0.0308 -0.0873
 8484W        W23953   3.796   4.522  13.750  0.2254  0.0351 -0.0525
 8485W        W23954   3.842   1.107   3.903 -0.1398 -0.1200  0.0186
 8486W        W23955  16.343  10.719  12.631 -0.0478 -0.1547 -0.2146
 8487W        W23956  15.747  14.447  13.156 -0.0235 -0.0160 -0.1613
 8488W        W23957  10.963  16.345  13.266 -0.1058 -0.1020 -0.1187
 8489W        W23958   3.496   5.691   5.868 -0.1566 -0.0181 -0.1924
 8490W        W23959  17.300  16.854  11.818  0.2491  0.3729 -0.0631
 8491W        W23960  15.601   7.187   1.720  0.1452  0.0798  0.2356
 8492W        W23961  16.641   1.256   2.381 -0.0425  0.2578  0.4236
 8493W        W23962   4.576  11.113  15.711 -0.1707  0.1251 -0.0083
 8494W        W23963   5.349   5.396  16.390 -0.2736  0.2626  0.1509
 8495W        W23964  15.486   5.400   2.737 -0.0295 -0.2457  0.0967
 8496W        W23965  15.603   0.338  13.862 -0.1070  0.1370  0.0766
 8497W        W23966  13.384   5.001   5.438 -0.1371  0.0341 -0.0954
 8498W        W23967   2.082   6.340   3.152  0.1532  0.0842 -0.2583
 8499W        W23968  12.962  10.631   4.686 -0.2054 -0.0517  0.1578
 8500W        W23969  11.957   1.800   5.546  0.0013  0.0263  0.1452
 8501W        W23970  13.651  10.957   5.124  0.0252 -0.0594 -0.4251
 8502W        W23971   2.441   0.397  12.217  0.0772 -0.2941  0.3685
 8503W        W23972   5.475   6.779   3.619 -0.1769 -0.0881  0.2982
 8504W        W23973  16.125  15.892   6.333  0.2445 -0.1249 -0.0493
 8505W        W23974  10.271  15.525   0.989  0.0428 -0.0237 -0.0985
 8506W        W23975   4.462  15.443   3.807 -0.0735  0.0410 -0.1109
 8507W        W23976  11.174  10.478  12.825 -0.0253  0.0214 -0.2015
 8508W        W23977  10.742   5.863   2.261 -0.2326 -0.0990 -0.1214
 8509W        W23978   0.348  17.382   5.910 -0.2183  0.4163 -0.1239
 8510W        W23979   0.514  13.058  12.742  0.3549  0.0918  0.1129
 8511W        W23980   3.225  13.613   1.455  0.2681 -0.0453  0.4884
 8512W        W23981   2.235   7.983  11.635 -0.2084  0.2138  0.1022
 8513W        W23982  14.193   8.485  13.041 -0.0981  0.1623  0.0213
 8514W        W23983  10.884  17.599   1.349  0.1083  0.0060  0.0133
 8515W        W23984   4.630  15.153  11.649  0.2161  0.2780 -0.0078
 8516W        W23985   8.260   1.163  12.598  0.1350 -0.0188 -0.0140
 8517W        W23986  10.068   5.054  14.655 -0.2373 -0.0899  0.0647
 8518W        W23987   7.860   0.150  13.510  0.1113 -0.0988  0.0302
 8519W        W23988   9.482   1.367   4.265 -0.0137  0.2761 -0.1091
 8520W        W23989   4.909  13.650  14.778 -0.1466 -0.0089  0.5136
 8521W        W23990  10.590   2.918  12.144 -0.0108 -0.3000 -0.3665
 8522W        W23991  14.508   8.233  14.760 -0.0804 -0.1079  0.2736
 8523W        W23992   8.331  13.111  14.851  0.3653  0.2712 -0.1384
 8524W        W23993  14.626  16.065   4.676 -0.2726  0.0590 -0.4503
 8525W        W23994  13.197   7.597   5.144 -0.2235 -0.1817 -0.1235
 8526W        W23995   3.905  12.182  11.321  0.1218  0.3554 -0.2422
 8527W        W23996  13.430  15.247  12.296 -0.1713 -0.0534 -0.1635
 8528W        W23997   9.857   7.774   3.863  0.1975 -0.1553 -0.3299
 8529W        W23998  14.490  13.075   0.171  0.3328  0.1271 -0.1031
 8530W        W23999   9.171  10.243  15.296  0.0915  0.0554 -0.1897
 8531W        W24000   8.441  16.119  12.394 -0.2774 -0.0106 -0.0700
 8532W        W24001   4.527   9.258  16.448  0.0515 -0.0914  0.0216
 8533W        W24002   5.698  17.579   3.203  0.0728 -0.2120 -0.1114
 8534W        W24003   2.934  13.543   2.507  0.0152 -0.2690 -0.1729
 8535W        W24004  10.106  13.307   4.607  0.1067 -0.1079  0.1021
 8536W        W24005   9.614   7.247   4.832 -0.1025 -0.3692 -0.0625
 8537W        W24006   9.015   8.555  12.742  0.2189 -0.1263 -0.1259
 8538W        W24007  15.200   6.363   3.313 -0.0390  0.0645 -0.0091
 8539W        W24008   9.010   0.210   1.513 -0.0675 -0.1274  0.3848
 8540W        W24009   0.450  15.367  11.269  0.1112 -0.0459 -0.1851
 8541W        W24010  14.133  13.800  16.053 -0.1402  0.0905  0.0228
 8542W        W24011   5.111  13.772   4.823 -0.0946  0.3709 -0.1659
 8543W        W24012   8.000  11.091  13.480  0.3757 -0.0379 -0.1188
 8544W        W24013   7.017  16.378  15.457  0.2432  0.1114  0.1138
 8545W        W24014   3.009  11.717   2.920 -0.0578  0.2730  0.0100
 8546W        W24015  15.184   9.810  15.065 -0.0401  0.1429  0.0631
 8547W        W24016   0.338   7.674  12.403  0.0414 -0.1037 -0.0812
 8548W        W24017  13.882  12.664   3.778  0.0951 -0.1506  0.0209
 8549W        W24018  11.031   1.567  13.536 -0.2904  0.1956 -0.2100
 8550W        W24019  13.849   4.028  13.759 -0.2726 -0.2331 -0.1645
 8551W        W24020  17.527  14.111   5.431  0.2149 -0.0435  0.0297
 8552W        W24021  14.525   0.250  15.683 -0.1377  0.0654 -0.0008
 8553W        W24022  10.830   3.416   1.376 -0.0439 -0.1450 -0.3392
 8554W        W24023  13.351   5.822  14.539 -0.0740 -0.2293 -0.0594
 8555W        W24024   1.000   8.432  11.289 -0.1259  0.0812  0.0839
 8556W        W24025   3.226   3.241  14.744  0.1259 -0.0705  0.1317
 8557W        W24026  12.943   1.681   5.586 -0.1891  0.0809 -0.0565
 8558W        W24027  11.908   8.956   1.819 -0.2101 -0.1223 -0.0238
 8559W        W24028  12.677   2.005   2.986 -0.1846 -0.0913  0.1969
 8560W        W24029  13.152   3.201  16.751  0.0990  0.2565  0.0054
 8561W        W24030   5.970   5.547   0.111  0.0459  0.0195 -0.1692
 8562W        W24031  14.556   4.806   5.319  0.0721  0.0085 -0.0649
 8563W        W24032  14.949  11.872  12.070 -0.0417 -0.1835  0.1991
 8564W        W24033   9.046   8.035   4.230 -0.3525 -0.0146 -0.1609
 8565W        W24034  14.753   7.584   2.073 -0.0166  0.1693 -0.0635
 8566W        W24035  11.907  17.229   6.651  0.1849  0.3822  0.0569
 8567W        W24036   4.826   5.408  15.352 -0.2050  0.1317  0.1672
 8568W        W24037  16.108   3.723  13.372  0.2506  0.0680  0.0889
 8569W        W24038   3.178  12.620   3.031  0.0611 -0.3951  0.1583
 8570W        W24039   7.871   0.723  15.879  0.0258 -0.0110  0.0174
 8571W        W24040   7.741   3.031  12.085  0.0773  0.1759  0.0787
 8572W        W24041  17.114  10.864  15.175 -0.1787  0.2448 -0.0796
 8573W        W24042  14.360  14.063   5.658  0.2583  0.1745 -0.1732
 8574W        W24043   3.132   9.761  14.904 -0.0304 -0.1011  0.0720
 8575W        W24044   8.064   6.168  13.122  0.1970 -0.0557 -0.0649
 8576W        W24045   1.887   8.339  10.993 -0.2580  0.1505 -0.3733
 8577W        W24046  16.515   8.188  16.143  0.0185 -0.1337 -0.2711
 8578W        W24047   4.907   6.626   4.746  0.0188  0.1318  0.1055
 8579W        W24048   3.279   7.141  11.687  0.0240 -0.0300  0.1249
 8580W        W24049  11.922  17.053  11.534  0.0511  0.1187  0.2173
 8581W        W24050   5.686  16.138  15.418  0.0876  0.0073  0.1956
 8582W        W24051   3.465  14.722   5.448 -0.2628  0.0768 -0.0351
 8583W        W24052  11.953  17.209  14.784 -0.0155  0.2383 -0.3261
 8584W        W24053   3.803  13.599   2.142  0.0407 -0.0911 -0.0212
 8585W        W24054   0.757  10.451   3.632 -0.0397 -0.1053 -0.0863
 8586W        W24055   6.881  17.316  15.442  0.0545  0.1631 -0.1420
 8587W        W24056  15.096  13.503   0.690  0.1692  0.1942  0.2056
 8588W        W24057   1.146   7.855  11.266  0.2445  0.0045 -0.0856
 8589W        W24058  14.941   7.278   0.731  0.0275 -0.1017 -0.2299
 8590W        W24059   2.885  10.006   0.488 -0.0160  0.0715 -0.0306
 8591W        W24060   7.720   1.438   1.105  0.0081 -0.1340  0.0574
 8592W        W24061  13.623   5.254   3.926 -0.2081 -0.1124  0.0493
 8593W        W24062   0.912   0.720   5.903  0.0692 -0.2768  0.3225
 8594W        W24063   8.847   1.490  15.179 -0.0438  0.2911  0.3039
 8595W        W24064   9.669   6.889  16.389 -0.1956  0.0570 -0.0863
 8596W        W24065   5.412  16.484   5.611  0.0155  0.0057  0.0538
 8597W        W24066  16.160  14.606  12.888  0.0838  0.0685 -0.2188
 8598W        W24067   0.536   2.824  13.274  0.0942  0.2549  0.1827
 8599W        W24068   3.538  13.034   0.704 -0.2341 -0.1415  0.0199
 8600W        W24069   3.507   0.786   4.115 -0.2123  0.1118  0.0069
 8601W        W24070  15.397  16.679   1.723  0.2013 -0.1066 -0.0134
 8602W        W24071   2.722  17.429   5.698 -0.2553  0.2623 -0.0501
 8603W        W24072  11.764   8.329  13.390  0.2448 -0.0603  0.0759
 8604W        W24073   6.737   4.823  13.145 -0.2765  0.1255 -0.1875
 8605W        W24074   8.562  12.929  13.453  0.0921 -0.1119 -0.1229
 8606W        W24075  15.114  13.651   4.131  0.1120 -0.1104 -0.2495
 8607W        W24076   0.559   8.372  14.617 -0.0208 -0.0391 -0.0258
 8608W        W24077  15.196   9.016   3.459  0.2581  0.0362  0.0383
 8609W        W24078   9.437  15.729   0.023  0.3411  0.0438  0.0696
 8610W        W24079   9.784   8.296   3.104 -0.1567  0.1257  0.0271
 8611W        W24080   2.324  10.899   0.075 -0.2040 -0.0725  0.1171
 8612W        W24081   0.049  13.252  12.826 -0.1798 -0.2682  0.0236
 8613W        W24082  10.596   9.433   6.573 -0.1184 -0.1266 -0.2071
 8614W        W24083  16.808  11.557  16.296  0.2256  0.1288  0.1548
 8615W        W24084   1.790  16.484   3.028 -0.0484  0.0572 -0.0937
 8616W        W24085  11.738  11.378   0.070  0.0439  0.0249  0.1270
 8617W        W24086   4.160  10.437   2.517 -0.0622  0.0145  0.2660
 8618W        W24087   0.658   7.457  13.917  0.1172  0.1128  0.0946
 8619W        W24088  16.052  15.570   1.952 -0.1303 -0.0021 -0.3126
 8620W        W24089  12.830   0.479   4.812  0.1996 -0.0986 -0.1106
 8621W        W24090  14.244   7.515   4.881 -0.1638 -0.0179  0.0317
 8622W        W24091  16.745   8.286  14.671 -0.1093 -0.0674 -0.1450
 8623W        W24092  10.929   4.154   3.967  0.3709  0.0305  0.1148
 8624W        W24093  12.109  11.473  11.634  0.0133  0.2689 -0.2564
 8625W        W24094   3.726  12.252  16.508 -0.0784  0.1192 -0.0065
 8626W        W24095  14.000   8.436   4.585 -0.0519 -0.1375 -0.2195
 8627W        W24096   7.961   8.882  16.467 -0.1455  0.0743  0.0734
 8628W        W24097  15.481  17.012  11.971 -0.1613 -0.1706  0.0880
 8629W        W24098   8.151  13.963   0.981  0.1920 -0.0025 -0.2386
 8630W        W24099   5.451  11.398   2.301 -0.0852  0.0894 -0.0571
 8631W        W24100  17.113   2.575  13.815 -0.2205  0.0618  0.1039
 8632W        W24101  15.346   3.347   0.457 -0.1490  0.0279  0.0961
 8633W        W24102   6.494   5.081   1.799 -0.1284 -0.0770 -0.1320
 8634W        W24103  13.619  13.235   4.363 -0.0756  0.1515  0.0184
 8635W        W24104   0.264   7.404   1.025  0.0273  0.0257 -0.2427
 8636W        W24105   1.805   7.092  13.224  0.0750 -0.0846 -0.0585
 8637W        W24106  10.510  12.522  13.484 -0.0045 -0.1398 -0.3734
 8638W        W24107  15.526   6.538  14.731  0.0070 -0.0150 -0.0190
 8639W        W24108  10.313   7.569  12.792  0.1603 -0.1961 -0.0102
 8640W        W24109   9.395  16.384   6.012 -0.0395  0.0250  0.0642
 8641W        W24110  17.207   0.482   4.702 -0.1075  0.0496  0.0379
 8642W        W24111   1.419   8.625  13.579  0.0862  0.1369 -0.2793
 8643W        W24112   8.358   3.642  15.967 -0.2559 -0.1444 -0.1044
 8644W        W24113  10.589  15.696  14.698  0.0504  0.2006  0.0512
 8645W        W24114   3.035   6.721  14.060 -0.1110 -0.2703  0.0769
 8646W        W24115   0.338  14.160  14.426 -0.1926  0.1914  0.0278
 8647W        W24116   5.297  12.995  11.672 -0.2434 -0.1735  0.2977
 8648W        W24117   4.343   0.778  13.380 -0.1146 -0.0703 -0.0295
 8649W        W24118  15.301   4.916   5.805  0.1823  0.0239  0.2786
 8650W        W24119  12.982   1.125   1.186 -0.0061 -0.1548  0.0706
 8651W        W24120   8.310   3.406  14.473  0.0429  0.4913 -0.1844
 8652W        W24121   2.330  15.858   4.354 -0.0814  0.1354 -0.1783
 8653W        W24122  11.180   2.650   4.728  0.0761 -0.1627 -0.2971
 8654W        W24123   2.578   9.860   5.143 -0.1409  0.0640  0.0980
 8655W        W24124  11.276   1.640   3.205  0.1042  0.2516 -0.1580
 8656W        W24125   9.947  12.512   1.454 -0.2667  0.0069  0.1348
 8657W        W24126   5.060   3.837  11.409  0.1755  0.0957  0.0621
 8658W        W24127   5.885   7.426   3.161 -0.0032 -0.1353 -0.1773
 8659W        W24128   6.611   9.352  12.516 -0.0305  0.2041  0.0066
 8660W        W24129   0.494   1.372  13.926  0.2217 -0.1906  0.3778
 8661W        W24130   3.344   5.415  13.615  0.1496 -0.1056 -0.0739
 8662W        W24131  13.163  11.850  11.614  0.1059 -0.1384 -0.0986
 8663W        W24132   1.995  12.803  11.301  0.0031 -0.2460 -0.1971
 8664W        W24133   5.368   9.651   3.866 -0.0883 -0.3703  0.1840
 8665W        W24134  15.093   4.003   2.870  0.4503  0.0573 -0.1974
 8666W        W24135   8.255  10.950  15.988 -0.2486 -0.1714 -0.1251
 8667W        W24136   3.302   3.019  14.262  0.1485 -0.2159 -0.0576
 8668W        W24137   2.026   8.391  16.009 -0.4023  0.1710 -0.0463
 8669W        W24138   8.002  10.389  13.996  0.0070  0.0728 -0.2186
 8670W        W24139  15.952   8.510  15.955  0.1546 -0.4963 -0.1571
 8671W        W24140   2.624   9.307  11.613 -0.0861  0.3204  0.1094
 8672W        W24141  11.347   9.833   4.246  0.0699 -0.4529 -0.1445
 8673W        W24142  14.782   0.177   2.355 -0.0235  0.0079  0.2706
 8674W        W24143  10.270  10.122   5.839  0.0668 -0.2565 -0.1275
 8675W        W24144   2.044   1.820  15.138  0.0640 -0.0398 -0.1067
 8676W        W24145  14.202   6.886  13.582 -0.0197  0.0912 -0.0163
 8677W        W24146   3.187   3.768  14.639  0.0203 -0.2808 -0.0061
 8678W        W24147  12.745  17.655   1.748 -0.0318  0.1190 -0.0415
 8679W        W24148   1.879   7.683  14.353  0.2590 -0.0901 -0.0591
 8680W        W24149   9.696   4.419   4.213  0.1537 -0.1085 -0.0112
 8681W        W24150   2.038   0.275   6.219 -0.0264 -0.0864  0.0666
 8682W        W24151  17.392  13.707  15.968  0.0120  0.0211 -0.1552
 8683W        W24152   8.159   1.560   4.392 -0.2458  0.2483 -0.0638
 8684W        W24153   9.192  15.571   0.992  0.5497 -0.1918  0.1422
 8685W        W24154   4.290  11.635  11.962  0.0753 -0.0178  0.1060
 8686W        W24155  14.284   9.051  12.258  0.0846 -0.5363 -0.2095
 8687W        W24156   8.740   0.783  15.596 -0.1606 -0.0117 -0.1936
 8688W        W24157  14.625  15.077   2.490 -0.1178  0.0247 -0.0084
 8689W        W24158  15.280   4.328   0.553 -0.4130 -0.3220  0.0955
 8690W        W24159   9.217   7.047   4.976 -0.2910 -0.0331 -0.2324
 8691W        W24160   6.059  12.744  13.944  0.3381 -0.0419 -0.1092
 8692W        W24161  12.411   2.192   0.103  0.1086  0.1218 -0.0322
 8693W        W24162   5.241   9.235   2.606 -0.0392 -0.0625 -0.1535
 8694W        W24163  12.161  14.983  13.646  0.3199  0.0983  0.0268
 8695W        W24164   4.144  11.111  14.390 -0.0920  0.1649  0.2905
 8696W        W24165  16.145   7.844   0.569  0.0211  0.0026  0.1306
 8697W        W24166  10.439  13.316  16.089 -0.1032  0.0103  0.1192
 8698W        W24167  10.430   2.000  14.604  0.1563  0.1123  0.1561
 8699W        W24168  15.882  14.465   4.547  0.2886 -0.5298  0.1097
 8700W        W24169  12.096   2.667  16.034 -0.0035 -0.0606  0.0439
 8701W        W24170  16.848   3.981   2.573  0.0185  0.1298 -0.0622
 8702W        W24171  15.644  15.578   1.605  0.1744 -0.1284 -0.1667
 8703W        W24172   6.084  15.658  14.201  0.0565  0.3814 -0.1472
 8704W        W24173   5.832  12.687   0.133 -0.0579  0.0090 -0.0469
 8705W        W24174   0.835   6.118   3.546  0.1448 -0.3569  0.2690
 8706W        W24175   1.169   2.872  14.659  0.0625 -0.2536 -0.0860
 8707W        W24176   8.896  12.459   0.979 -0.6371  0.1900 -0.2189
 8708W        W24177   2.480  13.483  10.821 -0.1637  0.0999  0.1346
 8709W        W24178   1.066  16.903   1.140  0.1046  0.4021  0.0755
 8710W        W24179  17.574  16.618   4.469  0.0050 -0.1766  0.0682
 8711W        W24180   0.422   6.909  15.655 -0.1615 -0.3138  0.3321
 8712W        W24181  16.351   5.965   1.497 -0.1798  0.3643 -0.3195
 8713W        W24182   2.488   5.082  16.232 -0.0996  0.1684  0.4227
 8714W        W24183   2.957  11.895   1.934 -0.1090  0.0298  0.2485
 8715W        W24184  13.525   7.256  15.168  0.0603 -0.0789  0.1389
 8716W        W24185   4.169   9.517   3.028 -0.2516  0.0410  0.0712
 8717W        W24186   9.783   0.709   5.923 -0.3261 -0.1720  0.1734
 8718W        W24187  16.284   0.038  16.278  0.2234  0.3635  0.1946
 8719W        W24188  14.169  17.679  12.900 -0.0065 -0.0102 -0.1309
 8720W        W24189   4.113  11.170  12.085  0.2139  0.0137  0.0147
 8721W        W24190  14.206   1.276  14.506 -0.0561 -0.0646  0.0392
 8722W        W24191   6.890   9.638  14.783  0.2729  0.0503 -0.1588
 8723W        W24192  11.585  12.346   5.547 -0.1437 -0.2447  0.2584
 8724W        W24193  10.136   5.871   5.005 -0.2167 -0.0511 -0.0749
 8725W        W24194  10.514   8.791   1.927 -0.1230  0.1300  0.1332
 8726W        W24195  13.223   4.153  14.382 -0.0460 -0.2226 -0.0087
 8727W        W24196   8.495   7.494  14.325  0.0956 -0.0113 -0.0255
 8728W        W24197  14.735   6.678  15.346  0.1411  0.3418  0.2009
 8729W        W24198   3.021   4.934  12.478 -0.1404  0.0886 -0.1371
 8730W        W24199   7.759   9.981   5.585  0.1699  0.0187 -0.2720
 8731W        W24200   0.064  16.471  14.643  0.1353 -0.0292 -0.2306
 8732W        W24201  10.653   7.999  13.910  0.0922  0.1122  0.1293
 8733W        W24202  12.509  16.148  14.435  0.1858  0.0915  0.1668
 8734W        W24203   1.056   1.453  16.826 -0.2326  0.2379  0.1807
 8735W        W24204  16.269   6.325  13.460  0.0711 -0.4132 -0.3435
 8736W        W24205   8.727   7.312  15.771 -0.1241 -0.0968  0.2144
 8737W        W24206   8.784   1.927   4.583  0.0099 -0.2348  0.3050
 8738W        W24207   7.642   1.485  11.925  0.0078  0.3278 -0.0732
 8739W        W24208   4.997  11.745  12.800 -0.0442  0.0105  0.1167
 8740W        W24209  11.447   8.795  11.930  0.0647 -0.0431 -0.1704
 8741W        W24210   8.658  10.658   3.129 -0.1109  0.1331 -0.3823
 8742W        W24211  10.692   5.972   4.952  0.1042  0.0393  0.2422
 8743W        W24212  17.094  16.298  11.756  0.1307  0.3372 -0.2359
 8744W        W24213   6.914   5.523   4.938  0.1985  0.0164  0.0005
 8745W        W24214  10.662  10.699   0.013 -0.3767 -0.0028 -0.1122
 8746W        W24215  12.221   2.380   4.262 -0.1337 -0.1165 -0.1643
 8747W        W24216  16.840   6.671  15.667  0.1519 -0.1034 -0.0175
 8748W        W24217   2.890  17.116  14.999  0.0413 -0.2111 -0.0701
 8749W        W24218  12.747  16.355   5.761  0.0498 -0.2596  0.0843
 8750W        W24219  10.722  13.284  13.610 -0.0959  0.1416 -0.1495
 8751W        W24220  11.648  13.941  14.546 -0.3920 -0.1758  0.0578
 8752W        W24221   7.180  15.441   3.118 -0.1458 -0.0244 -0.2081
 8753W        W24222   6.200  10.754   5.634  0.3573  0.3404  0.1366
 8754W        W24223   7.989  17.646   1.133  0.3264 -0.1370 -0.1618
 8755W        W24224   2.049  12.154   4.273 -0.0172 -0.2097  0.0407
 8756W        W24225  11.293   3.549   4.676 -0.0113 -0.0242  0.1834
 8757W        W24226  12.405   0.684   1.995 -0.0418 -0.0384 -0.2182
 8758W        W24227   2.404   2.325  15.676  0.2435  0.0297 -0.0782
 8759W        W24228   2.199   7.369  14.152  0.3361 -0.2058 -0.0223
 8760W        W24229  14.350  11.474   4.638  0.0515 -0.0465  0.2520
 8761W        W24230  13.122   5.228   0.643  0.0094  0.2370  0.0009
 8762W        W24231   8.511  13.734  15.966 -0.0172 -0.1909  0.2139
 8763W        W24232   9.173  11.812   1.350 -0.1407 -0.1254  0.1557
 8764W        W24233   9.260  16.531   0.977  0.0229 -0.4350  0.0480
 8765W        W24234  14.468   6.529  11.870  0.2280  0.2311 -0.0579
 8766W        W24235   3.806   7.825   0.594 -0.2425 -0.1107  0.0384
 8767W        W24236   8.740  15.002   1.680  0.2042 -0.0824 -0.0013
 8768W        W24237   3.448   4.831   5.407 -0.1122  0.3192  0.2202
 8769W        W24238   8.773   3.661   4.731  0.1167  0.0650 -0.3263
 8770W        W24239   4.499  12.200  16.290  0.0986 -0.2105  0.2152
 8771W        W24240  12.323   4.721   4.117 -0.0279 -0.1656 -0.0508
 8772W        W24241   8.728   8.787   4.427 -0.0600  0.2473 -0.0263
 8773W        W24242   5.539   9.036  11.206  0.3054  0.3972 -0.0486
 8774W        W24243   9.694  14.933  16.133  0.0353 -0.0306 -0.0072
 8775W        W24244  11.152   3.364  15.593  0.3005 -0.0826  0.3440
 8776W        W24245  14.034   3.885   3.199  0.1664  0.0017  0.0344
 8777W        W24246  13.064  12.173   4.028  0.0479  0.0634 -0.3003
 8778W        W24247   3.314   0.218   2.811 -0.2224 -0.0504 -0.0833
 8779W        W24248  16.311   1.604   2.393 -0.3816  0.2522 -0.0434
 8780W        W24249   0.150  11.752  11.906  0.0647 -0.3828  0.1826
 8781W        W24250  14.989   9.170   2.744  0.1940  0.2827 -0.0849
 8782W        W24251  15.163   1.050  16.015 -0.2043  0.2131 -0.0913
 8783W        W24252  17.700  13.720   0.526 -0.1278  0.0948  0.2939
 8784W        W24253  14.807   4.346   5.105  0.0104  0.1162 -0.1273
 8785W        W24254   4.751  17.082  11.769  0.1438  0.0067 -0.1463
 8786W        W24255  10.072  12.345  15.356  0.2900  0.0803  0.2529
 8787W        W24256   3.835   4.822  12.017 -0.3872 -0.1260  0.1686
 8788W        W24257   1.736  14.237   0.446  0.1500 -0.1541 -0.1102
 8789W        W24258   8.999  13.071   2.582 -0.1046 -0.0933  0.0350
 8790W        W24259   0.585  12.744   3.245 -0.3635  0.1280  0.0534
 8791W        W24260   2.836   2.679  12.518 -0.2925  0.1804 -0.1691
 8792W        W24261   8.649  11.592   3.617 -0.0968  0.0756 -0.0163
 8793W        W24262   9.863   3.237  14.757  0.1636  0.3071  0.0078
 8794W        W24263   6.939   1.381  10.647  0.0455 -0.0157 -0.1756
 8795W        W24264  15.048   6.410   4.976  0.0165  0.1756  0.2427
 8796W        W24265   9.571  15.237  12.430 -0.0590  0.2036 -0.3949
 8797W        W24266  13.601  10.155   4.439 -0.2857  0.0592 -0.0179
 8798W        W24267   9.718  12.496  14.011  0.1949 -0.1748  0.2717
 8799W        W24268   1.645   6.743   5.166  0.1403 -0.3982  0.2470
 8800W        W24269  11.897  11.582   5.850  0.2986 -0.3447 -0.4097
 8801W        W24270   2.508  12.104  15.686 -0.0655  0.3620  0.2844
 8802W        W24271  16.331   7.211   4.784  0.4485  0.1504 -0.1537
 8803W        W24272   7.656   3.771   2.226 -0.4130 -0.0371 -0.0689
 8804W        W24273   7.537   3.894  13.254  0.0811  0.3975 -0.1202
 8805W        W24274   6.094   6.440  13.111 -0.3824 -0.1961  0.0552
 8806W        W24275   0.090  13.712  11.366 -0.0379 -0.2362 -0.1452
 8807W        W24276   3.599   5.908  16.006  0.0040  0.1931 -0.0885
 8808W        W24277   4.966   0.128   4.527 -0.0118  0.2294 -0.0072
 8809W        W24278   9.485   5.207  16.354  0.1440  0.0476 -0.0366
 8810W        W24279  15.994  12.371   0.590  0.0841  0.2759  0.0861
 8811W        W24280  17.206   3.108  11.949 -0.1319  0.0075  0.0232
 8812W        W24281  13.843   7.221  13.569  0.2369  0.0698 -0.2226
 8813W        W24282   5.525  12.636   3.615 -0.0677  0.1196 -0.0688
 8814W        W24283   8.548   6.595   5.962 -0.1125  0.3113  0.1285
 8815W        W24284   9.691  12.151   5.658  0.0873  0.2109 -0.2340
 8816W        W24285   1.453  17.524   3.538  0.3626  0.1129  0.1024
 8817W        W24286   7.026  17.207   3.316  0.0627  0.0835  0.1566
 8818W        W24287  16.238   4.883   1.603  0.0753 -0.0613  0.2628
 8819W        W24288  11.509   1.642  13.773 -0.0344 -0.1323  0.3757
 8820W        W24289   3.946  16.647   3.870 -0.0241  0.2893  0.0872
 8821W        W24290   6.580  13.129  14.884  0.2441  0.0223  0.1630
 8822W        W24291  10.964   9.266   3.447 -0.1333 -0.0217 -0.3244
 8823W        W24292   6.159   5.458  12.543 -0.2688  0.0606  0.0942
 8824W        W24293   2.412  13.760  13.174 -0.0712  0.1734  0.2966
 8825W        W24294   2.341  14.601  12.997  0.2420  0.3414 -0.1709
 8826W        W24295  16.834   1.556  16.698 -0.1037  0.1607 -0.1169
 8827W        W24296  11.415   6.473   3.333 -0.1209  0.1342  0.0715
 8828W        W24297   2.053   3.955  12.945  0.3738 -0.1393 -0.0369
 8829W        W24298   0.959   6.521  13.451 -0.1666 -0.1440 -0.0567
 8830W        W24299   1.817   1.891  16.689 -0.2093  0.0046  0.0129
 8831W        W24300  15.419   3.948   5.765  0.2438  0.2366 -0.0094
 8832W        W24301   3.936   2.401  15.238  0.2195  0.4728  0.1087
 8833W        W24302  13.010  15.445   5.243 -0.2199  0.2186  0.1291
 8834W        W24303   2.983   7.456   2.714 -0.3107 -0.1944 -0.0414
 8835W        W24304   0.106   8.938   3.137  0.3506  0.0501  0.1757
 8836W        W24305   8.659   2.580  15.042  0.1025  0.0162 -0.1141
 8837W        W24306   6.639  12.395   1.669 -0.0929 -0.0499 -0.3034
 8838W        W24307  12.973  11.345  14.623  0.2227  0.1235 -0.1694
 8839W        W24308  10.309   1.348   5.169  0.0154 -0.0197  0.1395
 8840W        W24309  13.689  12.339   4.550  0.0378 -0.3981 -0.1054
 8841W        W24310   5.843  14.245   4.827  0.0281 -0.5320  0.0105
 8842W        W24311  12.520   9.389   2.502  0.0557  0.0144 -0.1768
 8843W        W24312   0.021   9.140   3.921  0.1476 -0.0187 -0.1023
 8844W        W24313   5.693   8.390  12.436  0.2014  0.3852 -0.0227
 8845W        W24314  15.285  17.129  11.402 -0.2535  0.0040 -0.3651
 8846W        W24315   6.877  17.748   1.094 -0.3063  0.1136 -0.1686
 8847W        W24316   5.311  13.392   1.632 -0.2362 -0.1230 -0.0984
 8848W        W24317   7.171   3.574  13.334  0.0128  0.0878 -0.1305
 8849W        W24318  13.578   1.873  13.878  0.1734 -0.1265 -0.0457
 8850W        W24319  11.706   2.819   2.447 -0.2366  0.2540 -0.2787
 8851W        W24320  16.237   6.607   5.206  0.0920 -0.1009  0.0441
 8852W        W24321   4.861   5.582  14.191  0.1623 -0.2262  0.0609
 8853W        W24322   3.420  14.700   0.781  0.0081 -0.2319 -0.2009
 8854W        W24323  12.169   8.878  15.546  0.2300 -0.1142 -0.0263
 8855W        W24324   3.311   1.446   1.436  0.0457 -0.2536  0.2145
 8856W        W24325  10.386   2.158  15.786 -0.0306 -0.2826  0.0572
 8857W        W24326   6.344   1.113   0.390  0.0256  0.0887 -0.0318
 8858W        W24327  13.051   1.472   4.709  0.0935  0.1567 -0.0842
 8859W        W24328   0.273   6.194  14.655  0.2016 -0.1420  0.0629
 8860W        W24329   7.523   2.982   0.501  0.2422 -0.0435 -0.0016
 8861W        W24330   4.180   1.645  12.172 -0.0613 -0.1216 -0.0827
 8862W        W24331   4.448   2.296   2.510  0.0496 -0.1128  0.1241
 8863W        W24332  11.970  15.022   1.220 -0.0328 -0.0439  0.1932
 8864W        W24333   8.768   4.841   0.118 -0.0249 -0.1319 -0.0208
 8865W        W24334   5.333   1.948  13.426  0.1865 -0.2360  0.1961
 8866W        W24335   7.396  15.379   6.736 -0.2053 -0.0902 -0.0160
 8867W        W24336   0.651  16.296   1.944  0.1432  0.0039  0.5035
 8868W        W24337  13.306  12.922   4.652 -0.1796  0.1190 -0.0303
 8869W        W24338   1.628  15.949  13.992  0.2923  0.1512 -0.2793
 8870W        W24339   1.660   6.189   3.545 -0.2392 -0.1959 -0.0659
 8871W        W24340   2.672   6.416   0.449 -0.0336  0.1367 -0.2000
 8872W        W24341  13.227  14.325  11.457  0.0876 -0.1852  0.3167
 8873W        W24342   6.253   7.166   4.769 -0.0195 -0.0398 -0.1713
 8874W        W24343  17.769   9.915   1.999  0.0135  0.0374 -0.0642
 8875W        W24344   9.170   5.828   4.255 -0.0117 -0.0395 -0.2526
 8876W        W24345   3.219  13.545   3.518  0.0196 -0.1028 -0.0801
 8877W        W24346  11.268  10.504  15.051 -0.0923 -0.0876 -0.2086
 8878W        W24347  10.963  16.646   6.045 -0.0038  0.3397 -0.0924
 8879W        W24348   4.734   1.166   3.529  0.1313  0.0024  0.0244
 8880W        W24349   8.399   0.519  15.932 -0.2057  0.0571  0.0198
 8881W        W24350   6.041  14.332   4.355  0.1229 -0.1185 -0.1724
 8882W        W24351  14.210   2.379   5.381  0.2981  0.3168 -0.0561
 8883W        W24352  17.181   2.427  12.560  0.1868  0.1306  0.2329
 8884W        W24353   1.156  15.187   4.586 -0.0417 -0.0088 -0.1956
 8885W        W24354   9.857   1.908  16.762 -0.1015  0.4784 -0.1873
 8886W        W24355   8.472  15.779  16.789 -0.0635  0.2382  0.0709
 8887W        W24356   9.563   0.985   6.726  0.0649  0.0651 -0.0276
 8888W        W24357  14.492  15.140  14.442  0.0914  0.0161 -0.1569
 8889W        W24358   9.943  11.681  13.966  0.2851 -0.1235  0.0115
 8890W        W24359  16.400   7.871  11.240 -0.0145  0.3314 -0.0634
 8891W        W24360   1.253  15.422   0.905  0.0105  0.1082  0.0629
 8892W        W24361  13.743  13.968  13.445 -0.0783  0.0828  0.0014
 8893W        W24362   5.748  11.098   0.785  0.1357 -0.0158  0.0245
 8894W        W24363   7.219  12.789   4.856  0.2062 -0.1696  0.1122
 8895W        W24364   1.386   4.219   3.642 -0.1580  0.0619  0.0081
 8896W        W24365   8.600   0.713  14.941  0.2979 -0.1621  0.2449
 8897W        W24366  16.286  11.487   4.250 -0.1727 -0.0755  0.0666
 8898W        W24367   2.052   3.540   0.707 -0.4802 -0.1390  0.2976
 8899W        W24368   3.994  13.826   0.317  0.1118  0.0347 -0.2775
 8900W        W24369   9.162  16.586   5.627  0.2149 -0.1562  0.0235
 8901W        W24370   1.309   9.625  16.609  0.1323 -0.3553 -0.3169
 8902W        W24371   1.895  11.325  16.149 -0.1221  0.0396  0.0309
 8903W        W24372   1.065   3.954  16.697  0.0778 -0.1292  0.0724
 8904W        W24373  10.333   8.764   5.293  0.0939  0.5353 -0.0833
 8905W        W24374  15.683   9.183   2.174  0.0875 -0.0810  0.2147
 8906W        W24375   6.187  10.227   5.701  0.1040 -0.0780  0.1426
 8907W        W24376  15.102   8.504  13.973 -0.1343  0.2207 -0.1266
 8908W        W24377  13.694  14.930  12.965 -0.2551  0.0713  0.1695
 8909W        W24378   2.215   7.972  15.191  0.1593  0.1440  0.1124
 8910W        W24379   1.231  13.721  14.253 -0.0088  0.0978  0.1650
 8911W        W24380  14.965   5.879   2.092 -0.4879 -0.0629 -0.0647
 8912W        W24381   7.705  10.284   5.103 -0.0955 -0.1288 -0.0726
 8913W        W24382   7.899   7.756   1.606 -0.0052 -0.1920 -0.2363
 8914W        W24383   3.500  14.798  12.538 -0.0951 -0.1298  0.0542
 8915W        W24384   6.957   4.589   3.039  0.1189 -0.0873  0.0740
 8916W        W24385   4.586  17.244   1.766 -0.0966 -0.5393 -0.0203
 8917W        W24386   7.018  17.132   4.797  0.0098 -0.1725 -0.1590
 8918W        W24387  10.639   3.743  14.877 -0.3040 -0.1609  0.2420
 8919W        W24388   4.557  14.959  15.941  0.3143  0.1257  0.2935
 8920W        W24389  14.660   5.468   3.496  0.2252  0.1325  0.4147
 8921W        W24390  15.829  10.053   3.282 -0.2522 -0.0115  0.0346
 8922W        W24391  15.724  13.817  15.628  0.3135  0.3595 -0.1403
 8923W        W24392  12.735  17.439  15.621 -0.2244 -0.2268 -0.1047
 8924W        W24393  15.240   6.703   0.037 -0.3014  0.1561 -0.3018
 8925W        W24394   9.229   4.522   5.983  0.1396  0.1552 -0.1342
 8926W        W24395  12.829   7.200   5.049 -0.2006  0.1975  0.0805
 8927W        W24396  16.508   4.825   4.293 -0.0876 -0.1187 -0.1730
 8928W        W24397   7.312   0.557   6.432 -0.1139  0.3032  0.0092
 8929W        W24398   1.511  16.824   5.399 -0.0478 -0.0743  0.0968
 8930W        W24399  15.546   1.827   4.192 -0.0060  0.1389  0.0679
 8931W        W24400   2.353  13.827   4.808  0.1724 -0.0852 -0.1518
 8932W        W24401  17.237   1.681   1.361 -0.0871 -0.0656 -0.0301
 8933W        W24402   8.906   9.519  12.854 -0.1255  0.1523  0.2031
 8934W        W24403   2.456   3.417   4.439 -0.2679 -0.0698 -0.0897
 8935W        W24404   8.191  15.796  15.278 -0.0037 -0.0535 -0.0361
 8936W        W24405   0.684  13.272  14.935 -0.0841 -0.1786 -0.0937
 8937W        W24406   9.784   1.412  12.980 -0.1387  0.2546 -0.1774
 8938W        W24407   7.883  10.947  12.325 -0.0596  0.3397 -0.0100
 8939W        W24408   4.440  15.328   1.012  0.2977 -0.4581  0.0546
 8940W        W24409  12.435   7.548  11.650 -0.1698  0.0168  0.2372
 8941W        W24410  15.591  10.626   1.798 -0.1011 -0.1156  0.0310
 8942W        W24411   6.430  14.683   4.190 -0.0450  0.0188  0.1978
 8943W        W24412   0.299   7.711   4.146  0.2123  0.2034 -0.1750
 8944W        W24413  16.151   6.614   0.122  0.1966 -0.2414 -0.1103
 8945W        W24414   1.513   0.064   4.795  0.2214  0.2767  0.1076
 8946W        W24415   7.660  16.134   0.096 -0.3067 -0.0757 -0.1413
 8947W        W24416   1.120  11.659  14.603  0.2326 -0.1536 -0.3945
 8948W        W24417  11.467   3.045   4.531 -0.0009 -0.1286 -0.1671
 8949W        W24418  13.492   5.964  16.346 -0.3150 -0.0170 -0.0626
 8950W        W24419   9.214   6.364  14.285 -0.0740 -0.0994 -0.0149
 8951W        W24420  14.756  14.100  13.691  0.0935  0.1320 -0.1122
 8952W        W24421   2.525   0.074  14.507  0.1515 -0.1356 -0.2692
 8953W        W24422   5.599  14.849   1.793 -0.1117  0.1480 -0.1748
 8954W        W24423   9.418   6.440   1.993 -0.2225 -0.2770  0.0118
 8955W        W24424   4.729  12.253   4.399 -0.0152  0.1736  0.0489
 8956W        W24425  15.891  14.128  12.166 -0.2128  0.1883  0.0483
 8957W        W24426  10.287   8.784   5.810  0.0009 -0.3035 -0.2706
 8958W        W24427  13.585   8.744   0.523  0.1254  0.0067  0.1168
 8959W        W24428  11.443   3.909   2.578  0.2043  0.1578 -0.1502
 8960W        W24429  10.328   4.289  15.502  0.0117  0.0794  0.1540
 8961W        W24430   3.943  13.694   4.119 -0.3094 -0.1442  0.3117
 8962W        W24431  15.761  16.114  11.250  0.3485  0.2031 -0.0367
 8963W        W24432   6.361   0.635  10.918 -0.2595 -0.1709 -0.0240
 8964W        W24433   8.094   2.388   2.798 -0.3349  0.0674 -0.0205
 8965W        W24434   3.701   7.250  15.471  0.2008  0.1228 -0.1972
 8966W        W24435  17.097   7.334  13.562 -0.5348 -0.2528  0.1008
 8967W        W24436  10.777   6.323  13.534  0.1752  0.1614  0.1637
 8968W        W24437   4.126   8.719   6.026  0.3512  0.1673  0.0709
 8969W        W24438  17.517   8.010  14.894 -0.1136  0.0969 -0.2653
 8970W        W24439   4.383  13.040  14.214 -0.0373 -0.0386 -0.1627
 8971W        W24440  11.268   1.987  16.255 -0.0419 -0.0465  0.0569
 8972W        W24441  12.369   4.149   2.492 -0.0455 -0.1957 -0.1011
 8973W        W24442  11.371   6.017   3.491 -0.0115 -0.0492  0.0659
 8974W        W24443   4.457   8.632   2.620  0.1116  0.1343  0.2084
 8975W        W24444   9.835   4.918  16.609  0.0529  0.0239  0.1708
 8976W        W24445  17.697   9.590   4.741 -0.3548  0.0484 -0.0952
 8977W        W24446   2.729   3.830  14.118 -0.1587  0.0498 -0.2520
 8978W        W24447   7.038  12.392  11.595 -0.2434 -0.2877  0.1383
 8979W        W24448  10.434   5.868  12.155 -0.1520  0.0215  0.2539
 8980W        W24449   4.241   3.267  13.137  0.0919 -0.1861 -0.2533
 8981W        W24450  16.874   4.137   1.974  0.0495 -0.0145 -0.1331
 8982W        W24451  13.898  16.428  13.909  0.1546 -0.0142 -0.2372
 8983W        W24452   1.550   1.276   1.618  0.3236 -0.2071  0.0669
 8984W        W24453   7.333   7.526  11.675 -0.0778  0.2243 -0.1740
 8985W        W24454   4.029   3.564   5.009  0.0801  0.1393 -0.1194
 8986W        W24455   7.065  17.693   3.159 -0.3166 -0.4064  0.2408
 8987W        W24456   9.630  11.087  14.003  0.2187 -0.0557 -0.0072
 8988W        W24457  16.388  17.467  16.605 -0.1374 -0.0202 -0.0553
 8989W        W24458   9.302   6.292   3.397  0.0272 -0.2901  0.0147
 8990W        W24459   1.440   4.422   4.105  0.0072  0.0712 -0.4790
 8991W        W24460   8.554   1.685   2.167  0.2989  0.1316 -0.1174
 8992W        W24461  16.068  13.093  16.764 -0.0951  0.1897  0.1866
 8993W        W24462   4.253   9.472   2.524 -0.0286  0.1619  0.1518
 8994W        W24463   4.274   7.842   4.815  0.2000 -0.0665  0.2236
 8995W        W24464   4.580  11.170   4.755  0.0331 -0.1725 -0.0404
 8996W        W24465   5.153  15.364   0.261  0.2590  0.0248 -0.0217
 8997W        W24466  13.313   4.957  13.235 -0.0953  0.0465 -0.2283
 8998W        W24467  14.045   0.543  13.301 -0.1480  0.3598  0.0578
 8999W        W24468   0.785   2.184  16.448  0.1344  0.0332  0.1673
 9000W        W24469   9.397   9.838  11.366 -0.1499  0.2662 -0.2330
 9001W        W24470   7.174  15.913  16.319  0.3227  0.3672  0.3617
 9002W        W24471  15.173  15.842  11.610  0.1321  0.1666  0.1152
 9003W        W24472   8.155   8.611  11.787  0.0921 -0.0137  0.0523
 9004W        W24473   5.374   8.753   2.410  0.0781  0.1849 -0.1187
 9005W        W24474   1.291  16.428   1.215  0.1849  0.3249  0.0349
 9006W        W24475  16.640  12.034  14.805 -0.3048  0.1692  0.1127
 9007W        W24476   8.846   6.389  13.085  0.1720  0.0176 -0.0665
 9008W        W24477   2.021   5.116  14.950 -0.1066  0.2627  0.0796
 9009W        W24478  13.100   6.859   2.246 -0.0840 -0.2061  0.0424
 9010W        W24479   9.497   7.432   3.505 -0.0876 -0.0376  0.0843
 9011W        W24480   0.330   3.614   0.250  0.2407 -0.0629 -0.0249
 9012W        W24481  10.293  12.973  13.592  0.0553 -0.0685  0.2101
 9013W        W24482   4.458   6.333  16.831  0.3346 -0.0678  0.0506
 9014W        W24483   5.530   9.541  15.308  0.1719 -0.0364 -0.0302
 9015W        W24484  12.960   1.993   0.198  0.1069 -0.1573  0.3093
 9016W        W24485  10.511   6.309   2.295 -0.1297 -0.2474 -0.0372
 9017W        W24486   8.675   3.981   2.648  0.1196 -0.2809 -0.1859
 9018W        W24487  11.008  13.970   3.597 -0.2124 -0.2215 -0.2959
 9019W        W24488   2.628   8.155  14.082  0.2182 -0.0010 -0.1013
 9020W        W24489  10.072   6.220   0.341  0.2464  0.3576  0.1232
 9021W        W24490  11.137  12.427   2.300 -0.1772  0.0641 -0.0518
 9022W        W24491   0.448  14.649   4.540 -0.0731  0.0340 -0.0162
 9023W        W24492  13.712  16.125  13.554 -0.4093  0.0116  0.1238
 9024W        W24493  10.334   1.689   5.542 -0.3830 -0.1011 -0.0999
 9025W        W24494  12.419   3.708  14.692 -0.0410  0.0268  0.1243
 9026W        W24495   8.804  14.644   3.156 -0.0639 -0.2488 -0.2046
 9027W        W24496   9.420   4.392   2.740 -0.0136  0.1987  0.0046
 9028W        W24497   2.129  11.645  14.184  0.0815  0.2820 -0.0964
 9029W        W24498   9.459   0.578   2.322  0.1047  0.1157 -0.2455
 9030W        W24499   9.965   1.864  13.817  0.0600 -0.0023  0.0043
 9031W        W24500   1.349   0.282  14.381 -0.1894 -0.1835 -0.2128
 9032W        W24501  12.663   8.462  14.776  0.3476 -0.0801  0.2650
 9033W        W24502  15.544   7.133   4.835  0.0098 -0.2824 -0.1334
 9034W        W24503   7.501  10.125   6.536  0.0266 -0.1284 -0.0298
 9035W        W24504   6.344   3.703   2.660 -0.3743 -0.1727 -0.1046
 9036W        W24505   7.181  12.201  14.686  0.0644 -0.0039  0.1302
 9037W        W24506   5.342  15.787  13.921  0.1905 -0.1798 -0.1327
 9038W        W24507  13.020  11.172  14.115 -0.0337 -0.3514 -0.1519
 9039W        W24508   4.469   5.152  11.453 -0.2124  0.3493 -0.0983
 9040W        W24509   2.831   1.435   1.408 -0.0816  0.0046 -0.1008
 9041W        W24510   6.040  10.761  11.844 -0.0810 -0.0094  0.3037
 9042W        W24511   8.329   8.969  12.598  0.4198 -0.1511  0.1464
 9043W        W24512  15.574  13.344   5.311  0.1973 -0.0081  0.1132
 9044W        W24513  10.707   8.691   1.445 -0.2621 -0.4104  0.0817
 9045W        W24514   2.314   5.644   4.044  0.1430  0.0467  0.1386
 9046W        W24515  10.645   5.777  15.088 -0.1916 -0.1006  0.2626
 9047W        W24516   4.038  17.776   0.104 -0.3499 -0.3167  0.0424
 9048W        W24517   2.506  11.900  11.338  0.2272  0.3497  0.0121
 9049W        W24518  13.938   2.339   6.294 -0.3151 -0.2577 -0.0317
 9050W        W24519  12.657   6.523   1.562  0.2212  0.3049  0.0655
 9051W        W24520  16.060   3.097   4.917 -0.2769  0.2374 -0.0387
 9052W        W24521  11.235   2.866  16.113 -0.2976  0.0551 -0.0640
 9053W        W24522   3.774   5.082  15.785 -0.0908 -0.2370 -0.2359
 9054W        W24523   9.344  17.084  16.735 -0.0194  0.1446 -0.0154
 9055W        W24524   5.946  15.352  13.553  0.1710 -0.0620  0.1969
 9056W        W24525  15.870   4.478   5.135 -0.2349  0.1635 -0.1110
 9057W        W24526   8.189   7.277   6.372  0.1703 -0.0829 -0.2070
 9058W        W24527  15.991  11.366  10.612  0.1088  0.1014 -0.0110
 9059W        W24528  12.562  10.720  12.012  0.1361 -0.0239  0.0817
 9060W        W24529   1.827   3.272  15.990  0.1107  0.0937  0.0077
 9061W        W24530   7.855   3.049   0.907  0.0991 -0.1991 -0.0611
 9062W        W24531   7.716  13.994  14.039  0.2055 -0.2253  0.3109
 9063W        W24532  10.635   7.415   4.108 -0.1151 -0.1713  0.1435
 9064W        W24533  17.326   8.370   4.163 -0.0349  0.0958  0.5598
 9065W        W24534  15.151   0.199   0.324  0.0165  0.0163  0.0882
 9066W        W24535  16.581  16.372   1.951  0.0993  0.1033 -0.1125
 9067W        W24536  14.772  16.076   3.764  0.0310  0.0771 -0.2211
 9068W        W24537  16.035   1.924   0.084  0.0578  0.0447  0.2340
 9069W        W24538   9.724   6.587  11.669  0.1865  0.2014  0.0138
 9070W        W24539   6.892  13.942  11.849 -0.3091 -0.0618  0.0767
 9071W        W24540   0.758  10.042  15.032  0.0178 -0.2656 -0.2595
 9072W        W24541   7.430  16.853  12.863  0.2167  0.1235  0.1110
 9073W        W24542   5.495   1.161   1.582  0.1927 -0.3025  0.3925
 9074W        W24543   5.623   8.394   4.195  0.0568 -0.0050  0.0305
 9075W        W24544   0.317  10.798   1.128 -0.0547  0.0207  0.0978
 9076W        W24545  10.299   8.277  12.016 -0.4287  0.1440 -0.0513
 9077W        W24546  17.304   3.617  11.156 -0.1364 -0.0952  0.0869
 9078W        W24547   0.077  17.483  12.527  0.0842  0.1707 -0.3932
 9079W        W24548  12.510  14.787  13.948 -0.0480 -0.1768 -0.2840
 9080W        W24549   6.395  15.441   2.074  0.1445  0.0393  0.1024
 9081W        W24550  13.562  11.906   4.086 -0.1498  0.1534 -0.1587
 9082W        W24551  16.827   2.268  15.913 -0.1820 -0.0276 -0.2326
 9083W        W24552  11.025  15.559  13.425  0.3142 -0.2536  0.1553
 9084W        W24553   0.920   7.903  11.680 -0.1235 -0.2432 -0.3953
 9085W        W24554   3.196  15.506  16.521  0.2339  0.0645 -0.1557
 9086W        W24555  16.096  16.937  14.863 -0.2357 -0.1028  0.1852
 9087W        W24556  12.101  12.824   4.065  0.0137  0.2662 -0.2699
 9088W        W24557   8.771   2.970  11.778 -0.3226 -0.2678 -0.2287
 9089W        W24558   1.664  11.197  16.592 -0.3733  0.0402  0.0137
 9090W        W24559   3.661  16.139  13.296 -0.0030  0.0795  0.0819
 9091W        W24560  10.592  17.578   5.295 -0.0237 -0.3017 -0.0985
 9092W        W24561   5.897  12.916  16.006 -0.0103 -0.3257 -0.0104
 9093W        W24562  17.110   6.485  16.499 -0.2319  0.0475 -0.0390
 9094W        W24563   5.819  17.293  14.681  0.2111 -0.0177  0.1236
 9095W        W24564  14.113  16.791   0.593 -0.2053 -0.0355  0.1040
 9096W        W24565   8.537   1.750  14.865 -0.1657 -0.1710 -0.1239
 9097W        W24566   5.622   7.629  14.888 -0.1187 -0.5601  0.0430
 9098W        W24567   7.037   0.775  13.043 -0.3445  0.3099 -0.1251
 9099W        W24568  13.322  15.184   0.693  0.0225 -0.3228 -0.0347
 9100W        W24569   3.049   6.652   3.168 -0.0364 -0.0122 -0.0217
 9101W        W24570  13.164  14.527  16.741 -0.0467  0.0916  0.2173
 9102W        W24571  10.020   5.066   1.992 -0.2274 -0.3453  0.3162
 9103W        W24572  11.751   4.155   1.490 -0.0734 -0.0135 -0.1041
 9104W        W24573  10.020  14.451   6.111  0.0775  0.0276 -0.0979
 9105W        W24574   1.575  14.128  13.559 -0.0653  0.0402 -0.0633
 9106W        W24575  12.823  17.071  11.637  0.1554  0.0316  0.0163
 9107W        W24576   5.855  11.240  11.852  0.0628 -0.0780 -0.0755
 9108W        W24577   0.631  14.369   3.046 -0.0311 -0.2825 -0.1077
 9109W        W24578  14.914   1.340  14.057  0.0682 -0.1271  0.3271
 9110W        W24579   5.056  12.042   3.003 -0.1123 -0.3500  0.0643
 9111W        W24580   3.023  14.910  12.668 -0.1149 -0.0460  0.1836
 9112W        W24581   1.429  10.175  12.162 -0.0916 -0.1453  0.0630
 9113W        W24582   3.801  16.440  14.067 -0.0410 -0.2587  0.3082
 9114W        W24583  13.485   6.535  12.428  0.1349  0.1086 -0.1949
 9115W        W24584  16.603   5.261   4.488 -0.0914 -0.0410  0.2175
 9116W        W24585   6.041   4.328   0.360 -0.2251  0.1507 -0.0171
 9117W        W24586  15.026  13.332   2.752  0.0639  0.2383  0.2364
 9118W        W24587   3.340   4.438  15.264  0.1006 -0.2157 -0.0536
 9119W        W24588  16.016   7.232   3.501 -0.2146  0.2198  0.0228
 9120W        W24589  13.386  10.295  16.565 -0.2016  0.0052  0.2754
 9121W        W24590  16.791  12.392  12.732 -0.0958 -0.0009  0.1781
 9122W        W24591  13.423  10.800   0.520  0.1645 -0.0211 -0.0312
 9123W        W24592   1.588   8.952   0.833 -0.2023 -0.2932  0.1499
 9124W        W24593   3.237   0.304   0.453 -0.1928 -0.0856  0.0877
 9125W        W24594   9.515  10.338   5.417  0.0422  0.0481  0.0849
 9126W        W24595   5.963  12.472   3.977  0.0265 -0.0133  0.1050
 9127W        W24596   0.925   3.601   2.524 -0.2044 -0.2808  0.0093
 9128W        W24597  16.883   2.277   2.890  0.4075  0.0352 -0.1419
 9129W        W24598  12.441   1.465   0.841 -0.1469  0.4366  0.1139
 9130W        W24599  11.910   0.259   6.292 -0.3077 -0.2023 -0.0835
 9131W        W24600   3.618   2.709   5.180 -0.1336  0.1796  0.2127
 9132W        W24601   4.920   0.607   0.840 -0.1343  0.0311  0.1256
 9133W        W24602   5.992   2.257   5.519  0.1695  0.0531  0.1278
 9134W        W24603  16.236   3.809   1.114 -0.1948 -0.1330  0.0870
 9135W        W24604  10.305  12.226  14.299 -0.0636  0.3156 -0.1830
 9136W        W24605   3.914   5.191  13.532 -0.1394  0.1055 -0.0327
 9137W        W24606  16.420  12.031  15.755 -0.0622  0.0261  0.1156
 9138W        W24607   5.502   0.467   0.324 -0.0372 -0.1008 -0.1558
 9139W        W24608  16.592   5.596   3.706  0.2566  0.2210 -0.1740
 9140W        W24609   7.277   5.075  12.177 -0.2088  0.3764  0.0588
 9141W        W24610   6.101  14.754  16.793  0.0531  0.0367 -0.1287
 9142W        W24611   7.053   5.601  16.314  0.1234 -0.0934  0.0196
 9143W        W24612   7.434   9.058  13.059  0.6165  0.1928 -0.1097
 9144W        W24613   7.555   2.622   0.840  0.0035  0.1662  0.1558
 9145W        W24614   5.581  15.003  15.615 -0.0634 -0.0077 -0.3039
 9146W        W24615  12.592   9.520   3.705 -0.4665 -0.1103  0.1118
 9147W        W24616  14.203   9.276  13.338  0.0630 -0.3901  0.1446
 9148W        W24617  17.536   1.195  16.060  0.0460 -0.1725 -0.0255
 9149W        W24618   5.760   9.344   5.462 -0.1493  0.2080 -0.0938
 9150W        W24619  10.385   7.709   1.716  0.0580  0.1947  0.0045
 9151W        W24620  11.902  12.047   1.232  0.0096 -0.1688  0.4836
 9152W        W24621   6.200  15.997   5.941 -0.1519 -0.0940 -0.1121
 9153W        W24622   1.001  12.378   1.989 -0.0057  0.1326 -0.2282
 9154W        W24623   0.680   5.795  10.795  0.0905 -0.1521 -0.1521
 9155W        W24624  13.731   8.454   2.143  0.1515  0.1203  0.1223
 9156W        W24625  16.777  16.708   1.053  0.1381  0.0818  0.1690
 9157W        W24626   8.457  13.848  14.135  0.0904  0.0130 -0.2801
 9158W        W24627   2.816   3.158   1.755 -0.2035 -0.0675 -0.1420
 9159W        W24628  10.833   5.218  14.006  0.0264 -0.0030 -0.1170
 9160W        W24629  10.205   9.497  14.475 -0.0853  0.1607 -0.2452
 9161W        W24630   0.315  15.025  14.331  0.1205 -0.1296  0.1458
 9162W        W24631   7.926  12.811  11.925 -0.2345 -0.0545  0.2575
 9163W        W24632   1.563   7.709   5.718 -0.0662 -0.1802  0.0180
 9164W        W24633   8.912   6.464  13.785  0.0945  0.1705 -0.0961
 9165W        W24634  12.342  11.683   4.630 -0.2584 -0.2657  0.1869
 9166W        W24635   6.844   1.442   6.537  0.0661 -0.1008 -0.0693
 9167W        W24636  16.961   3.043  14.543  0.0284 -0.3232 -0.0057
 9168W        W24637   7.312  14.306   1.315 -0.4449 -0.0033 -0.0509
 9169W        W24638   0.305   9.944  15.233  0.1171 -0.1236 -0.0650
 9170W        W24639   9.797  12.396   3.748  0.0482 -0.2349 -0.2252
 9171W        W24640   9.924   7.321   5.621 -0.4559  0.3550 -0.0440
 9172W        W24641   2.875   1.523   0.120  0.1945 -0.0180 -0.0642
 9173W        W24642   2.228   6.190   4.131  0.0206  0.0930 -0.0471
 9174W        W24643   1.098   9.191   3.028  0.2173  0.0757 -0.0329
 9175W        W24644   7.649   5.458   1.569 -0.2734 -0.0231 -0.0582
 9176W        W24645   4.758  14.345   4.251  0.1550 -0.0068  0.0008
 9177W        W24646   1.325  12.856  12.990  0.4137  0.1408 -0.3299
 9178W        W24647   9.582  13.215   3.354  0.0728 -0.1291 -0.0404
 9179W        W24648  11.299   0.400  15.060 -0.0430 -0.1144 -0.2527
 9180W        W24649  12.462  17.340   4.982  0.3341  0.0196 -0.2997
 9181W        W24650   1.738   3.920   1.164 -0.2868 -0.2443 -0.4740
 9182W        W24651  14.182  11.532  14.590  0.1436 -0.0487 -0.0296
 9183W        W24652  10.608   9.490   5.223 -0.0790  0.0703  0.0510
 9184W        W24653  16.724  16.287   4.061  0.1928 -0.0767  0.0876
 9185W        W24654  14.606   7.066  15.755 -0.0568 -0.0907  0.0767
 9186W        W24655  15.990  11.825  15.590 -0.0497  0.2948  0.0069
 9187W        W24656  16.368   9.833  15.745 -0.0141 -0.2387  0.0071
 9188W        W24657  16.794  15.958   2.402  0.2125 -0.3169  0.0077
 9189W        W24658   8.481  10.607  15.612  0.1665 -0.1966 -0.1001
 9190W        W24659   3.307   9.390  15.227 -0.0305 -0.2125  0.1578
 9191W        W24660   3.947   9.638  11.812  0.1676  0.1114  0.0465
 9192W        W24661   8.274   0.035   5.363 -0.0187  0.0292 -0.2173
 9193W        W24662   0.222  15.083   4.583 -0.2354 -0.0439  0.0275
 9194W        W24663   1.731   0.775  15.977  0.0473  0.1620  0.0738
 9195W        W24664   2.178   3.701  11.644  0.0075  0.2697 -0.0225
 9196W        W24665  12.765   8.386  15.362  0.0520 -0.0091 -0.0106
 9197W        W24666  15.910   6.993   1.332  0.1073  0.1142 -0.1095
 9198W        W24667   0.256   3.211  15.572 -0.1075 -0.1962 -0.2567
 9199W        W24668  10.147  13.829   1.600 -0.1299  0.1525 -0.0399
 9200W        W24669  14.921  13.599  15.860  0.2093  0.0344 -0.0097
 9201W        W24670   3.138   7.627  11.594  0.0659  0.2867  0.2125
 9202W        W24671  15.854  15.881  12.966 -0.0664  0.1619  0.3101
 9203W        W24672   5.432  16.514  15.008  0.2479  0.3956  0.1226
 9204W        W24673  14.322  14.201  11.419 -0.1834  0.0373  0.2634
 9205W        W24674   4.735   2.851   5.834 -0.1107 -0.0814  0.0710
 9206W        W24675  10.157   5.564   0.624 -0.0672 -0.2661  0.3722
 9207W        W24676   3.864   4.601   5.002 -0.0957 -0.0044 -0.1683
 9208W        W24677   4.093   0.631   2.275  0.0512 -0.2090  0.0167
 9209W        W24678   8.095  14.724  13.963 -0.0015  0.0238 -0.1094
 9210W        W24679   4.633  15.158   1.975 -0.3530  0.0596 -0.0572
 9211W        W24680   8.958  15.409  16.654  0.1218  0.0846  0.0786
 9212W        W24681  16.523  13.909  16.221  0.1387  0.1979  0.1067
 9213W        W24682  16.323  11.067  11.328 -0.2940 -0.2091 -0.1465
 9214W        W24683   8.562  11.977   4.312 -0.0247  0.1848  0.1231
 9215W        W24684   8.263   3.590  11.745 -0.2805  0.1120 -0.3010
 9216W        W24685   3.830   0.873  13.693 -0.0200 -0.0624  0.4330
 9217W        W24686   6.084  16.241  14.115  0.2951  0.1289 -0.0023
 9218W        W24687   6.643  17.305   1.103 -0.1624  0.2458  0.2177
 9219W        W24688  13.915   3.784  14.630  0.1957  0.0383  0.1664
 9220W        W24689   6.618   4.911   3.884 -0.1559  0.0480 -0.1402
 9221W        W24690   7.493   8.572   5.591  0.0358  0.0618 -0.1877
 9222W        W24691   9.482  14.232   4.716 -0.1511 -0.0498 -0.1021
 9223W        W24692   3.794   1.814   5.281  0.1605  0.0424 -0.0762
 9224W        W24693  11.434   7.839   5.745  0.1016 -0.1382  0.1064
 9225W        W24694   4.351   2.078  13.348 -0.0673 -0.0320  0.2367
 9226W        W24695  15.145   4.781  14.831  0.3187 -0.0747  0.1578
 9227W        W24696   3.151   2.955  11.846 -0.0035 -0.1313  0.0974
 9228W        W24697   6.467  11.423  16.190 -0.2895 -0.3360 -0.0379
 9229W        W24698   5.693  17.253  15.245 -0.1720  0.3655  0.1596
 9230W        W24699   5.432   2.447   3.455 -0.0851 -0.1499  0.0211
 9231W        W24700  17.574  16.366   0.631 -0.0919  0.0298  0.0564
 9232W        W24701  13.466  17.501  14.978  0.0838 -0.0136  0.0302
 9233W        W24702   6.933   6.439   2.223 -0.0845 -0.1199  0.1310
 9234W        W24703   7.851   0.336   3.569  0.2752  0.0979 -0.0905
 9235W        W24704  10.604   6.755  15.154 -0.0225  0.2368 -0.0171
 9236W        W24705  13.162   4.744  15.607 -0.3224  0.0081  0.1156
 9237W        W24706   7.814  15.694   5.674 -0.1774  0.0586  0.0916
 9238W        W24707   3.064   1.408  15.162 -0.1799  0.0541 -0.2279
 9239W        W24708  16.506   7.642   3.328  0.5784  0.2230  0.3105
 9240W        W24709   7.723   8.093  14.413 -0.1526  0.5175 -0.1463
 9241W        W24710  14.448   0.543  12.860  0.1275 -0.0052  0.1293
 9242W        W24711  16.022   2.651   1.818 -0.0439 -0.0416  0.0881
 9243W        W24712   2.247  15.565  16.184  0.0990  0.1071 -0.0845
 9244W        W24713   1.194  14.858  14.227 -0.2961  0.0956 -0.3784
 9245W        W24714   6.347   4.239   2.693  0.0955  0.0881  0.3841
 9246W        W24715   4.727  13.488   0.349  0.3092 -0.1760  0.0038
 9247W        W24716  11.046   3.685  15.913 -0.2043 -0.3436  0.1278
 9248W        W24717   0.739   9.286   1.112 -0.0997  0.1259 -0.0667
 9249W        W24718   8.797   5.472  12.636 -0.0397  0.1470  0.2498
 9250W        W24719  12.733  15.734  12.018  0.0018 -0.0726  0.5476
 9251W        W24720   3.942   9.806   3.484 -0.1366  0.0216 -0.3810
 9252W        W24721   0.247  10.912   4.996  0.2372  0.1554 -0.1300
 9253W        W24722   4.070  15.147   1.411  0.4674  0.0922 -0.1676
 9254W        W24723   8.272   2.195   3.237 -0.2265  0.0824  0.3874
 9255W        W24724   6.704   0.064  12.705  0.0931  0.0893 -0.1358
 9256W        W24725   5.809  11.596   1.092  0.1803  0.1051 -0.0681
 9257W        W24726  12.320  13.564   2.507 -0.1100 -0.1486  0.1077
 9258W        W24727  10.382   8.824  12.978 -0.1054 -0.0079 -0.2385
 9259W        W24728  16.131  15.684  12.234 -0.0015  0.0138  0.1839
 9260W        W24729  11.393  14.375  15.085  0.1388 -0.1471  0.1087
 9261W        W24730   3.962  15.038  16.556 -0.2712  0.1363 -0.2823
 9262W        W24731   3.509   1.486   4.402  0.2947 -0.0178 -0.2123
 9263W        W24732   0.520   4.620  13.674 -0.0015 -0.1933 -0.3715
 9264W        W24733   0.573  13.348  16.598 -0.1169  0.1659  0.3787
 9265W        W24734   5.196  14.950  16.732 -0.4625  0.0871  0.1550
 9266W        W24735   4.140   7.017   3.317 -0.0107  0.0170 -0.2879
 9267W        W24736  12.804  10.444   3.561  0.3911 -0.1343  0.0399
 9268W        W24737   5.911  14.504  16.413  0.1803 -0.0689  0.3642
 9269W        W24738   1.018  13.629  15.850 -0.0029  0.0931  0.1710
 9270W        W24739  13.535  17.299   1.144 -0.1318  0.1355 -0.2138
 9271W        W24740  14.349  13.891   3.443 -0.1761  0.1770 -0.1081
 9272W        W24741  10.938   0.304   5.755  0.0575  0.2463  0.0768
 9273W        W24742   3.505   4.992  16.202  0.0101 -0.2336  0.0604
 9274W        W24743  14.725  15.640  11.719  0.0005 -0.0258 -0.3818
 9275W        W24744   6.742   5.733   1.806 -0.0080  0.1749  0.2886
 9276W        W24745   6.988   3.937   4.876 -0.0203 -0.1797 -0.2332
 9277W        W24746   8.116  14.495  16.388  0.2308  0.3203  0.1784
 9278W        W24747   4.758  10.895  12.509 -0.1156  0.1999 -0.2530
 9279W        W24748  11.252  17.435   1.696  0.1836 -0.0716  0.2636
 9280W        W24749   0.861  13.650  16.768 -0.1376  0.1421  0.1796
 9281W        W24750   8.191   5.042   1.018  0.1980  0.2599  0.0842
 9282W        W24751   9.265  13.534   3.060 -0.2491 -0.2248 -0.1455
 9283W        W24752   3.506   6.637   2.800  0.0970 -0.0298  0.0554
 9284W        W24753  17.704   3.532  13.219  0.2624  0.3804 -0.0207
 9285W        W24754  10.477  16.332  12.101 -0.1091  0.1187  0.0773
 9286W        W24755  16.631  14.399  16.409  0.2327  0.0540  0.0555
 9287W        W24756  10.674  10.714  11.642 -0.1703 -0.1722  0.3034
 9288W        W24757   0.146   5.108  14.338  0.2589  0.0981 -0.1057
 9289W        W24758  14.561   7.950   2.425  0.0443 -0.2958  0.0487
 9290W        W24759  11.719  12.283   3.454 -0.0591 -0.1765 -0.3738
 9291W        W24760   4.775  11.594  15.712  0.1098  0.1779 -0.0740
 9292W        W24761  14.184   7.586  16.122 -0.2625  0.0736 -0.1947
 9293W        W24762   7.494   1.735   2.301  0.0568 -0.1907  0.0100
 9294W        W24763  17.269  16.896   3.681  0.0289  0.2952 -0.2749
 9295W        W24764   2.004  14.142  14.740  0.1538  0.1651 -0.1145
 9296W        W24765   6.537  12.476   2.184 -0.0654  0.0220  0.0038
 9297W        W24766   3.906  14.600   5.175 -0.2849  0.0137 -0.1190
 9298W        W24767  12.128   6.155  14.884  0.0675 -0.0902  0.1218
 9299W        W24768   6.819  12.258   4.335 -0.0736  0.0039  0.3140
 9300W        W24769   4.249  17.632   1.922  0.0104  0.0477 -0.0753
 9301W        W24770  13.144  14.336   3.604 -0.1032 -0.0817 -0.1541
 9302W        W24771   6.953   7.539   1.892  0.1552  0.1099 -0.0888
 9303W        W24772   1.523   1.485   0.030  0.0867 -0.1489  0.1540
 9304W        W24773   0.121  15.441  16.487 -0.2459  0.3753 -0.1798
 9305W        W24774  14.006  10.416   2.026  0.4287  0.0920 -0.1188
 9306W        W24775   6.382  10.080   0.473 -0.0052  0.1016  0.1940
 9307W        W24776  13.718  10.916   3.465  0.1560  0.0900 -0.0958
 9308W        W24777   6.924   8.134   4.667  0.0293 -0.1301 -0.3209
 9309W        W24778   6.389  10.904  11.299  0.0788  0.1598  0.3017
 9310W        W24779  14.479   3.929   5.253 -0.1662  0.0232 -0.1972
 9311W        W24780  10.187  14.198  14.575 -0.1436  0.1609  0.1738
 9312W        W24781  10.411  12.566   1.217 -0.0818 -0.2973  0.2129
 9313W        W24782  10.951   0.432  14.594  0.0985  0.2326 -0.0069
 9314W        W24783   1.931   3.309  15.002  0.2019 -0.2557 -0.0139
 9315W        W24784   8.485   9.756  12.250  0.0657  0.2687 -0.0292
 9316W        W24785   3.945   3.811   1.421  0.0277 -0.1017  0.1128
 9317W        W24786   0.729  14.042   3.441  0.4013 -0.0460 -0.0141
 9318W        W24787  15.417  15.583   0.284  0.0579  0.1808  0.0292
 9319W        W24788   6.856   9.661  12.857  0.1451  0.1671 -0.1246
 9320W        W24789  12.841  14.237  13.044  0.2681  0.0608  0.2683
 9321W        W24790   9.614   7.946   3.412 -0.1629 -0.2278 -0.3693
 9322W        W24791   2.710   2.443   5.272  0.1151  0.0289  0.0336
 9323W        W24792   1.262   5.237  10.484  0.0484  0.0397 -0.1344
 9324W        W24793   1.551  16.642  16.199 -0.1466  0.0915  0.1393
 9325W        W24794   1.618  10.630   1.929  0.0105 -0.2046  0.1754
 9326W        W24795   3.509  17.644   3.212  0.1695 -0.3358  0.0024
 9327W        W24796  14.743   1.671  16.808  0.3355 -0.0316  0.1182
 9328W        W24797   9.100   3.293  13.720  0.0414  0.2638  0.0751
 9329W        W24798   9.328  15.754  12.353  0.1070  0.1169 -0.0070
 9330W        W24799  11.867  13.064  12.454 -0.7144  0.0117 -0.1932
 9331W        W24800  14.214   4.439   5.130 -0.1856  0.0098 -0.2544
 9332W        W24801  15.208   3.142   0.873 -0.0581 -0.0464 -0.1949
 9333W        W24802  12.243  11.383   1.105 -0.1235  0.2651 -0.1361
 9334W        W24803  12.146   1.769  15.376 -0.1309  0.0670  0.1716
 9335W        W24804   4.124  17.380  12.910  0.1845 -0.0742  0.0784
 9336W        W24805   5.249  16.571  13.579  0.0523  0.0475 -0.1675
 9337W        W24806   8.209  14.779   3.519  0.1045  0.0386  0.3800
 9338W        W24807   0.064  12.775  15.948 -0.1202 -0.0473  0.0514
 9339W        W24808   5.628   3.822  16.331 -0.0966 -0.0267 -0.0452
 9340W        W24809  10.120  17.076  13.795 -0.1578 -0.0045  0.0342
 9341W        W24810   8.413   5.950  16.027  0.0301  0.0413  0.3717
 9342W        W24811   3.633   7.143   1.169 -0.1317 -0.0927  0.0312
 9343W        W24812   0.031  11.128  13.672  0.0465 -0.2394  0.1054
 9344W        W24813  16.531  10.865   2.429  0.0818 -0.1513  0.2667
 9345W        W24814  15.081  11.859   0.448 -0.2283  0.0627 -0.1661
 9346W        W24815   5.434   0.540   4.657  0.0696 -0.1889  0.1026
 9347W        W24816   7.725   8.252   5.242 -0.0825  0.0936  0.0225
 9348W        W24817  10.718   4.828  15.706 -0.3505 -0.4034 -0.0863
 9349W        W24818   0.053   8.427  12.439 -0.3696  0.3017 -0.2459
 9350W        W24819  15.471  14.255  14.035  0.2642  0.1376 -0.1516
 9351W        W24820   2.180   5.289   2.938  0.1079 -0.1285  0.4515
 9352W        W24821   9.390  12.860   0.251  0.0392 -0.2726  0.2090
 9353W        W24822  13.914   7.383   0.507 -0.1514  0.1232  0.3186
 9354W        W24823  16.362  17.373  12.344  0.0255  0.0347  0.0532
 9355W        W24824   4.604  12.144  12.590 -0.0235 -0.2145 -0.3291
 9356W        W24825   4.567   9.406   4.451 -0.3819 -0.2778  0.2231
 9357W        W24826   3.074   3.189   0.157  0.1415  0.0075 -0.2652
 9358W        W24827  10.064  15.543   4.995 -0.3233 -0.3930 -0.1904
 9359W        W24828   2.907   5.582   4.591 -0.1161 -0.1457  0.0320
 9360W        W24829  15.674   1.827  12.285 -0.3154  0.0456  0.0142
 9361W        W24830   6.808  14.034   4.098 -0.1577  0.2287 -0.0289
 9362W        W24831   7.447   0.232  15.700  0.1254  0.0935  0.0206
 9363W        W24832  13.465  14.776  12.513  0.0559 -0.1147  0.1736
 9364W        W24833   2.312   1.389   5.347 -0.2840 -0.1633 -0.2525
 9365W        W24834  15.641  16.041   1.060 -0.2810 -0.3397  0.2209
 9366W        W24835   5.547  12.196  12.633 -0.1925  0.2143  0.0337
 9367W        W24836  10.291   9.606   0.347 -0.0999  0.1676 -0.1896
 9368W        W24837   6.312   4.277  13.549 -0.3578 -0.0368 -0.0745
 9369W        W24838  15.767   8.190   2.116  0.1350  0.2567 -0.0358
 9370W        W24839   9.126  15.784  11.798 -0.0014 -0.0888  0.1506
 9371W        W24840   5.612   4.174   2.286 -0.1262  0.2683 -0.0692
 9372W        W24841   3.712  11.707  15.012 -0.1801 -0.1317 -0.1492
 9373W        W24842  11.455   3.285   3.756  0.0879 -0.3059 -0.0680
 9374W        W24843  17.008  11.090  16.229  0.1481 -0.0489  0.2271
 9375W        W24844  14.898   3.589   5.260 -0.2626 -0.0550 -0.1701
 9376W        W24845  14.566  15.291   0.165 -0.0981  0.1923 -0.1772
 9377W        W24846  16.605   5.978  15.710 -0.0159  0.3820  0.0027
 9378W        W24847   7.055   9.905   2.575 -0.1353 -0.2507 -0.0542
 9379W        W24848   6.305   8.466  13.180 -0.3846  0.0743 -0.1358
 9380W        W24849  10.530   3.735   5.736 -0.2528  0.2406 -0.0159
 9381W        W24850   0.629   2.316  15.867  0.4411 -0.2163  0.0995
 9382W        W24851   7.011   3.624  15.761  0.0596 -0.1907  0.1070
 9383W        W24852   9.723   8.398  14.503  0.0778 -0.0681  0.0713
 9384W        W24853   2.343  17.209  14.930 -0.0217 -0.1157 -0.4021
 9385W        W24854  15.495   4.203  16.015  0.0087 -0.4834  0.2975
 9386W        W24855   7.458  10.126   2.861  0.0145  0.1690 -0.1778
 9387W        W24856   9.709  14.883  13.356 -0.0314  0.0184  0.0722
 9388W        W24857  11.380  15.556   1.786  0.1872 -0.2100 -0.2193
 9389W        W24858   8.489   8.627   4.866 -0.2344 -0.2363 -0.2283
 9390W        W24859   9.587   5.686   4.091  0.1196  0.0063  0.1003
 9391W        W24860   3.928   5.682  11.943  0.0932  0.0142 -0.2028
 9392W        W24861  16.725   6.423   3.745 -0.3212 -0.1502  0.1882
 9393W        W24862   2.519   2.140   0.569 -0.0292 -0.0290  0.1636
 9394W        W24863   5.018   8.119   0.088  0.3264 -0.2365 -0.2085
 9395W        W24864   0.327  13.613   1.783 -0.1812  0.0931 -0.3014
 9396W        W24865   1.961  11.842   3.793 -0.2328 -0.0467 -0.0763
 9397W        W24866  11.023   4.028   4.769  0.0201  0.1249  0.2873
 9398W        W24867   2.585   3.963  12.717 -0.0057  0.4041 -0.1601
 9399W        W24868  14.185   3.389  14.950 -0.0984 -0.0099 -0.1619
 9400W        W24869  16.242  10.898  15.689  0.1691 -0.0532  0.4151
 9401W        W24870   9.398   2.137  11.143 -0.1463  0.2306  0.0893
 9402W        W24871  17.674  10.550  11.215 -0.1373 -0.2553 -0.0466
 9403W        W24872  11.056   2.382  13.344 -0.0980  0.1027 -0.0285
 9404W        W24873   7.165   8.076   1.817 -0.0035 -0.2080 -0.1173
 9405W        W24874  12.598   9.342  12.952 -0.0787  0.0463  0.1469
 9406W        W24875   9.918  11.646   4.386  0.1371  0.0988  0.3096
 9407W        W24876  15.913   0.235  14.242  0.2598 -0.0798  0.2307
 9408W        W24877   9.680   3.509   2.671 -0.0458 -0.0637 -0.2868
 9409W        W24878  12.085   1.178  16.166  0.3440  0.3094 -0.2148
 9410W        W24879   4.746  14.651  11.913 -0.1037  0.0156  0.1272
 9411W        W24880   3.119   6.309   1.447  0.0244 -0.0743  0.1820
 9412W        W24881   4.270   9.755   1.949  0.1344 -0.0329 -0.1210
 9413W        W24882   5.651   1.613   2.260  0.1957 -0.3174  0.0325
 9414W        W24883  15.826   1.982   0.615  0.3747  0.4290 -0.0173
 9415W        W24884   2.511   1.738  11.678 -0.2158 -0.1769 -0.1884
 9416W        W24885  10.843   4.779  12.678 -0.1588 -0.1120 -0.1103
 9417W        W24886   2.175  13.482   4.384 -0.2677 -0.1378 -0.0718
 9418W        W24887   4.042  16.883   0.475 -0.0388  0.1247 -0.0506
 9419W        W24888   9.133  11.656   3.879  0.0743  0.1913  0.2695
 9420W        W24889  14.371  13.486   0.429 -0.2417  0.0197  0.0180
 9421W        W24890  14.111   7.594   3.387 -0.0557  0.3924 -0.3823
 9422W        W24891   3.190   5.674  14.007  0.0966  0.0211  0.2327
 9423W        W24892  12.534   0.164  16.543 -0.0544 -0.0585 -0.2330
 9424W        W24893   3.615   1.359   5.052 -0.0433 -0.0232  0.0620
 9425W        W24894  12.078  14.992   4.065 -0.0774 -0.0545 -0.1732
 9426W        W24895   6.197   2.717   4.973 -0.2346 -0.3259 -0.2519
 9427W        W24896  11.290   5.233   0.296 -0.1231  0.0231  0.0939
 9428W        W24897   3.371  15.181   4.885  0.0460  0.1916 -0.1783
 9429W        W24898   7.500   7.968  13.994 -0.1016 -0.0786  0.5199
 9430W        W24899   5.014  14.143   0.972 -0.0319  0.0653 -0.1949
 9431W        W24900   0.611   7.917  15.402 -0.0658  0.0283 -0.0076
 9432W        W24901   5.386  16.072  12.880  0.0131  0.2246  0.1111
 9433W        W24902  17.155   8.719   1.357  0.0486 -0.0325 -0.0676
 9434W        W24903   0.774   2.620   4.844 -0.2361 -0.0289 -0.0098
 9435W        W24904  17.145   0.574  12.155 -0.1743 -0.1370  0.1894
 9436W        W24905   2.201   7.269   2.941 -0.1769 -0.2306 -0.0048
 9437W        W24906  16.225  11.980   4.396  0.0505  0.0004  0.1069
 9438W        W24907   1.655  16.348   0.543 -0.2601  0.0229  0.0524
 9439W        W24908   0.821   8.716  14.841  0.0125  0.0222  0.0126
 9440W        W24909  12.405  16.096  11.568 -0.2788 -0.1592 -0.4772
 9441W        W24910  12.591   3.791  12.060  0.0699  0.0211 -0.2039
 9442W        W24911  14.710   8.855   5.024  0.0230 -0.2412  0.0014
 9443W        W24912   1.198  16.447   2.884 -0.0408 -0.2859  0.3754
 9444W        W24913  17.640   6.248  10.884  0.1881  0.0091  0.1103
 9445W        W24914   8.891  12.260   1.554 -0.0178  0.0703  0.0212
 9446W        W24915  16.744  16.387  15.543  0.0908  0.0229  0.0396
 9447W        W24916  12.540   8.930   3.632 -0.0200  0.0951  0.4295
 9448W        W24917  13.769   6.772  14.498  0.1060 -0.4047 -0.1488
 9449W        W24918   2.988   2.682   0.071 -0.2568 -0.0106 -0.2073
 9450W        W24919   2.488   4.350  10.972 -0.0316 -0.1715 -0.2542
 9451W        W24920   0.640   8.812   0.831 -0.3255  0.3276  0.1527
 9452W        W24921   3.204   3.865   5.729  0.3017  0.1628  0.1357
 9453W        W24922  14.926  17.499  14.850 -0.1232  0.3286  0.2354
 9454W        W24923  14.483   9.157  13.838  0.1981  0.0021 -0.1488
 9455W        W24924  13.143  13.749   2.690  0.0245  0.1330  0.0204
 9456W        W24925   3.156   7.805   0.241 -0.1494 -0.1606  0.1131
 9457W        W24926  13.123  11.227  16.518  0.4435  0.0136  0.1915
 9458W        W24927  16.039   8.516   4.266 -0.0185  0.1893 -0.1582
 9459W        W24928   8.428   2.666   2.530  0.1117 -0.0824 -0.0603
 9460W        W24929  12.892  17.625  14.383  0.0465 -0.1621  0.0378
 9461W        W24930   3.947   1.557   4.079  0.2850 -0.0592 -0.1821
 9462W        W24931   9.453  17.501  13.901  0.0300  0.0775  0.4339
 9463W        W24932  14.405  15.189   3.751  0.1660 -0.1876 -0.1587
 9464W        W24933   6.516   1.761  11.904  0.3189  0.3053  0.0954
 9465W        W24934  17.318   7.339  14.020  0.3798 -0.1124  0.0940
 9466W        W24935   3.634   1.008   4.534  0.0545  0.1291 -0.0010
 9467W        W24936   8.021   1.593  16.511  0.1590 -0.2985  0.3391
 9468W        W24937  11.457  14.685   5.472  0.0182  0.0789 -0.0576
 9469W        W24938  16.284  17.267  15.221  0.0733 -0.1827  0.1093
 9470W        W24939  10.619  15.054   5.546  0.2943 -0.2626 -0.0894
 9471W        W24940  10.321   2.248   2.549 -0.1852  0.3012  0.1135
 9472W        W24941  15.419  11.362   3.316  0.1685  0.2809  0.1276
 9473W        W24942   6.166  15.367   3.923  0.1505 -0.1445 -0.2057
 9474W        W24943  12.717   6.261   5.850 -0.1067 -0.0283 -0.0266
 9475W        W24944   7.178  13.796  13.154 -0.1088 -0.2637 -0.2580
 9476W        W24945   0.077  12.697  13.506 -0.1676  0.2833  0.2365
 9477W        W24946   5.688   0.514  12.565  0.1702  0.1787  0.0807
 9478W        W24947  15.312  11.671  13.014 -0.0899 -0.1577  0.0668
 9479W        W24948   6.155  14.446  15.942 -0.0986 -0.0821 -0.0177
 9480W        W24949  15.824  15.515   5.276  0.0419  0.0376  0.1356
 9481W        W24950  13.601   0.965   3.870 -0.0494  0.0185  0.1078
 9482W        W24951   1.777  10.762  13.572 -0.0986 -0.2598  0.0324
 9483W        W24952  16.113   2.425   2.248 -0.0920 -0.3277 -0.0703
 9484W        W24953   8.935   5.238  15.835  0.1983  0.0274  0.0479
 9485W        W24954   6.636   4.107   2.256 -0.1932  0.0177  0.1431
 9486W        W24955  13.254   3.911  11.804  0.1888  0.1610 -0.2751
 9487W        W24956   0.979   7.533   0.480  0.2750 -0.1721  0.0849
 9488W        W24957  11.801  12.020  15.338  0.1003  0.0637  0.1216
 9489W        W24958  10.419   4.389  16.001  0.1568  0.3816  0.0714
 9490W        W24959  15.424   6.849   2.079  0.0793  0.0984  0.1326
 9491W        W24960  11.931  10.827  15.484 -0.1477  0.0163  0.1708
 9492W        W24961   2.316  14.100  16.729  0.1857 -0.0867 -0.0204
 9493W        W24962  17.510  12.579  11.573  0.0141  0.1378  0.3268
 9494W        W24963   1.701  14.558  12.788  0.1723  0.0175  0.1050
 9495W        W24964  11.724   3.297   4.125  0.2579  0.1078 -0.0456
 9496W        W24965   1.851   8.954  13.788 -0.1181 -0.2182  0.1012
 9497W        W24966   1.132   5.197   1.631 -0.3309 -0.0960 -0.0791
 9498W        W24967  16.395  10.523   4.313 -0.0408  0.2107 -0.1103
 9499W        W24968   2.378  11.671   4.140 -0.0457 -0.2067  0.3471
 9500W        W24969   3.405   2.460   4.210  0.0366 -0.0108  0.2361
 9501W        W24970   0.069   1.676  12.791  0.2555  0.0450 -0.0823
 9502W        W24971  12.990  10.835   4.117 -0.0372  0.0042 -0.2256
 9503W        W24972   0.070   5.508  16.744  0.1256 -0.4400 -0.1480
 9504W        W24973   4.998   6.665  16.468 -0.1511  0.2049 -0.3495
 9505W        W24974  16.907  10.418   4.266  0.0034  0.3199 -0.2704
 9506W        W24975   7.121   1.863   1.139 -0.1053  0.2296  0.1113
 9507W        W24976   6.598   2.052  11.461 -0.1095  0.0472  0.1819
 9508W        W24977  17.577   4.697   0.954 -0.0318  0.0641  0.0718
 9509W        W24978  12.441   5.745   1.945  0.1984  0.1264 -0.0495
 9510W        W24979   0.804  12.340  16.349 -0.2759  0.1399 -0.2600
 9511W        W24980   4.093   4.182   0.662 -0.0090  0.1408  0.3496
 9512W        W24981   2.147  16.243   0.460  0.3107  0.1287  0.1388
 9513W        W24982  10.602  15.491   5.018 -0.3864  0.3546  0.0754
 9514W        W24983  10.841   4.849  13.139 -0.0782 -0.3017  0.0345
 9515W        W24984   6.473  17.127   1.977 -0.0125  0.1819  0.1342
 9516W        W24985  17.655  12.575  14.976  0.0008  0.0525  0.3868
 9517W        W24986   5.663   9.514   2.815 -0.1911  0.2144 -0.3090
 9518W        W24987  10.924   5.830   0.018 -0.1172  0.0001  0.0186
 9519W        W24988   4.847  10.666  15.726  0.0684 -0.3584  0.2477
 9520W        W24989   8.169   9.714  15.429  0.1965 -0.1109 -0.0790
 9521W        W24990   8.090   6.065   5.477  0.1960  0.0499 -0.3238
 9522W        W24991   2.063  12.109   2.828 -0.0135 -0.0357 -0.0975
 9523W        W24992  11.311  17.322  14.096 -0.2122  0.0153  0.0305
 9524W        W24993  11.122  15.051  14.435  0.0988  0.1937  0.0218
 9525W        W24994   1.027   3.371  13.280 -0.4980  0.2892  0.0287
 9526W        W24995  15.379   9.120   3.890 -0.0407 -0.2448  0.2558
 9527W        W24996   3.404   2.805   3.360  0.4029 -0.2260 -0.1156
 9528W        W24997   1.789   5.586   4.330  0.0456 -0.2618  0.0805
 9529W        W24998  16.026  17.319  16.267 -0.0225 -0.1124 -0.2711
 9530W        W24999  16.591  11.229   4.607  0.0014 -0.1194 -0.1200
 9531W        W25000   1.534   6.058  15.907 -0.2368  0.2031  0.0491
 9532W        W25001  10.215  15.672   3.330 -0.1322  0.0790 -0.0777
 9533W        W25002  10.444   6.333   1.237 -0.0431  0.0201  0.0209
 9534W        W25003  11.685   4.986  16.780  0.2056 -0.0628  0.1018
 9535W        W25004   8.764  12.847   6.095 -0.1680 -0.1091  0.0703
 9536W        W25005  16.173  17.516  11.510 -0.0188 -0.2621 -0.1700
 9537W        W25006   2.969   0.479  16.218  0.2718  0.2967  0.3451
 9538W        W25007   7.881  17.267   3.964 -0.0023  0.2046  0.0681
 9539W        W25008   1.324   7.115  15.717  0.3629  0.1773  0.0733
 9540W        W25009  12.064  11.384  14.290  0.0505 -0.0339 -0.0519
 9541W        W25010   6.409   1.437  11.531  0.1111  0.1456  0.1669
 9542W        W25011  15.784   0.699  14.409  0.0821 -0.0915  0.3085
 9543W        W25012  14.774   9.256  13.313  0.0646 -0.0507 -0.1775
 9544W        W25013   4.474   6.624  15.155  0.0841 -0.1426  0.0377
 9545W        W25014   2.657   0.931  13.601 -0.0985 -0.0118 -0.4243
 9546W        W25015  12.654   8.588   1.986 -0.1205 -0.0154  0.0570
 9547W        W25016   9.894   8.368  16.763 -0.0150  0.1383  0.0146
 9548W        W25017  13.566   7.935   1.356 -0.1129  0.1469 -0.0323
 9549W        W25018  10.258   7.229   1.979 -0.1554 -0.0747  0.0525
 9550W        W25019   6.880  12.673  11.996  0.1618 -0.1100  0.0301
 9551W        W25020  13.477   7.127  14.705  0.1539  0.1172  0.0267
 9552W        W25021   9.749  16.600   5.668  0.0242  0.1190 -0.3171
 9553W        W25022  16.987   4.157  13.254  0.1198  0.1615  0.3549
 9554W        W25023  12.709   3.739   6.057 -0.1231  0.2129 -0.0785
 9555W        W25024   4.789   8.344   1.429  0.1012  0.3074 -0.1761
 9556W        W25025   4.868  15.054  15.482  0.1789  0.3379 -0.2767
 9557W        W25026  14.344   2.936   2.976 -0.1712 -0.2616 -0.0850
 9558W        W25027   2.465  12.823   3.866  0.1223 -0.0708  0.0376
 9559W        W25028   8.367  13.726   4.344  0.3471  0.2078  0.0447
 9560W        W25029   7.094   2.060  15.161  0.0991 -0.0128 -0.3195
 9561W        W25030   4.041   5.531  13.203 -0.3066  0.1454 -0.0772
 9562W        W25031  11.358  10.255  14.581 -0.2238  0.2648  0.1392
 9563W        W25032  13.862  14.540   2.624 -0.0281  0.0243 -0.1973
 9564W        W25033  16.646  11.712   4.496  0.0201  0.1054 -0.0926
 9565W        W25034   9.378   5.881   5.555  0.0851 -0.1592 -0.0812
 9566W        W25035  12.572   0.965   4.905 -0.1723 -0.0480  0.0112
 9567W        W25036  16.087   4.850  11.904 -0.0930 -0.1464 -0.0080
 9568W        W25037   9.925   4.365   5.370 -0.1008 -0.1053 -0.1015
 9569W        W25038   2.688  16.671   3.920 -0.0271  0.1624  0.0003
 9570W        W25039  10.532  16.660  12.496  0.3086  0.0312  0.0406
 9571W        W25040  17.185   6.790  16.123  0.0806 -0.1564  0.2281
 9572W        W25041   8.208  13.014  15.402  0.2855 -0.2258  0.3227
 9573W        W25042  14.142  12.677   5.045 -0.0490 -0.0102  0.3683
 9574W        W25043  15.665   2.325  15.899  0.1352  0.2351 -0.1120
 9575W        W25044  17.510   2.687  12.871  0.1929 -0.0235  0.3114
 9576W        W25045   2.617  10.159  13.204 -0.1257  0.3110  0.1288
 9577W        W25046   0.877  16.882  14.034 -0.0533 -0.3131 -0.0172
 9578W        W25047  17.602   8.514  14.116 -0.0601 -0.1918  0.0304
 9579W        W25048  13.691   9.868   5.380  0.0130  0.0401  0.1559
 9580W        W25049  10.671  13.755   0.921  0.0494  0.0234  0.1182
 9581W        W25050  13.303  11.702  16.584  0.1522  0.0314 -0.0972
 9582W        W25051   7.545  17.739   3.324  0.0565  0.3446  0.2733
 9583W        W25052   6.144   0.423  12.368  0.1912 -0.0871  0.1888
 9584W        W25053  15.609  13.111   0.153  0.0071 -0.0677  0.0561
 9585W        W25054  14.593   7.389   3.256 -0.0914 -0.1566 -0.4338
 9586W        W25055  13.900   5.113   2.973  0.1230  0.1703 -0.2920
 9587W        W25056  13.583   2.179   2.698  0.0030  0.2764 -0.0296
 9588W        W25057   3.022  10.711   2.577 -0.0132 -0.1704  0.0033
 9589W        W25058   2.616   7.028  16.028 -0.0274 -0.0828  0.3017
 9590W        W25059   3.772   9.352  15.439  0.0156  0.1534  0.0902
 9591W        W25060  10.451   5.495  13.246  0.1436 -0.0154  0.2511
 9592W        W25061  12.238  11.208   4.544  0.1263  0.3010  0.2824
 9593W        W25062   5.633  14.993  15.045  0.1321  0.1519  0.0343
 9594W        W25063   3.438   4.338   1.806 -0.3400 -0.1378 -0.1661
 9595W        W25064   1.986  15.783  10.365  0.0886 -0.0354  0.1716
 9596W        W25065  13.089   4.043   5.532  0.2365 -0.2499 -0.0612
 9597W        W25066   4.984  17.309  13.199  0.3349  0.0005  0.1264
 9598W        W25067   5.042  12.061   6.166  0.1843  0.2784  0.3396
 9599W        W25068  12.804  14.358  16.017  0.0385  0.1069 -0.0158
 9600W        W25069  16.161   9.532  11.826  0.3792 -0.1557  0.1032
 9601W        W25070   9.355  14.688  13.670  0.2981  0.2038  0.0886
 9602W        W25071  11.307  11.436  16.508 -0.1535  0.0505 -0.1898
 9603W        W25072   5.443  15.959  14.861 -0.1299 -0.2281  0.0252
 9604W        W25073   2.525  10.591  16.186  0.1275  0.2546  0.1062
 9605W        W25074  10.162   7.705   4.824 -0.3304  0.0336  0.1973
 9606W        W25075  12.159  11.826   0.853  0.2872 -0.1076  0.2407
 9607W        W25076  17.072  13.875  11.702 -0.0422  0.0202 -0.1230
 9608W        W25077   2.488  15.226   2.244 -0.2521 -0.0647 -0.2850
 9609W        W25078  10.307   8.252   5.039 -0.2902  0.1555  0.1057
 9610W        W25079   5.249   1.406   0.604  0.1056 -0.1569  0.1932
 9611W        W25080   4.935   8.418  13.326 -0.1383 -0.0017  0.2549
 9612W        W25081  15.473  17.108   3.210 -0.0419 -0.2662 -0.1854
 9613W        W25082  10.408  15.233  16.669  0.1983  0.1712 -0.3003
 9614W        W25083  15.493  14.096   4.470  0.1235 -0.0662  0.4699
 9615W        W25084  16.525   9.261   5.139 -0.2583  0.0006 -0.1238
 9616W        W25085   2.481   5.113  13.451  0.1965  0.1672 -0.2286
 9617W        W25086   4.402   4.388  16.281 -0.0074 -0.0348  0.0304
 9618W        W25087   2.799   7.865   2.459  0.1102 -0.2202 -0.1810
 9619W        W25088  12.089  16.549  13.414 -0.3259  0.2675 -0.0806
 9620W        W25089  13.914  15.872   1.268 -0.1893  0.1825 -0.0159
 9621W        W25090   1.504   7.367  16.538 -0.0561 -0.0640  0.2728
 9622W        W25091  10.708  12.189   2.400  0.0880 -0.1124  0.0375
 9623W        W25092   8.545   6.892   1.862  0.1429  0.2116 -0.1723
 9624W        W25093   7.316  12.411  12.257 -0.3251 -0.2686 -0.1764
 9625W        W25094   7.661  16.102  10.888  0.0001  0.3630 -0.0990
 9626W        W25095   1.807  15.124   3.687  0.1945  0.2883 -0.1327
 9627W        W25096   6.742   7.254   4.110  0.3223 -0.0528 -0.0232
 9628W        W25097   2.076  12.288   1.423 -0.1084 -0.0886  0.2321
 9629W        W25098   0.585   7.500  13.338 -0.3144  0.0251 -0.0319
 9630W        W25099  14.820   3.847  13.452 -0.0983  0.0950 -0.1732
 9631W        W25100   5.176  10.401   3.235  0.1298  0.1099  0.2214
 9632W        W25101  16.082   4.386  15.804  0.0602  0.4531  0.1478
 9633W        W25102   6.265   1.458   1.047  0.3898 -0.3276  0.2507
 9634W        W25103   9.541   1.153  10.943  0.2194  0.2087  0.2359
 9635W        W25104  12.212  13.704   1.132  0.3423 -0.0020  0.0022
 9636W        W25105   1.552   9.158   1.723 -0.0970 -0.4417 -0.0451
 9637W        W25106  11.798   6.714  15.559 -0.1338 -0.2409  0.0054
 9638W        W25107   4.536   6.313  12.474  0.0096  0.1260 -0.0100
 9639W        W25108  13.755   4.133   2.771  0.0942  0.1970  0.2046
 9640W        W25109   8.841   9.504   5.320  0.0807  0.0643 -0.1513
 9641W        W25110  12.379  14.957   4.592 -0.1620 -0.1011  0.0870
 9642W        W25111  16.674   7.978   2.006  0.0251 -0.1363  0.0638
 9643W        W25112  14.337   4.440  12.316 -0.1038  0.3541 -0.0285
 9644W        W25113   8.184   5.056  13.700  0.0691  0.2186  0.2736
 9645W        W25114  17.589   6.804  10.207 -0.1854 -0.2744 -0.4118
 9646W        W25115   4.467   0.952   4.940  0.0272 -0.0180 -0.0498
 9647W        W25116   8.456   4.810   5.707  0.3419 -0.1395 -0.1176
 9648W        W25117   6.795   1.900   5.423 -0.2076  0.0757 -0.0356
 9649W        W25118  17.726  14.896   3.817 -0.0565  0.3024  0.1740
 9650W        W25119  12.879   4.270   2.790  0.1589 -0.0006  0.1080
 9651W        W25120   3.247  13.298   5.256 -0.2706 -0.0651  0.1292
 9652W        W25121   8.056   4.593  13.323  0.0594  0.1307  0.4105
 9653W        W25122   8.945   6.106   5.470 -0.2594 -0.3361 -0.0895
 9654W        W25123   1.885   8.028   3.139  0.1117 -0.3082  0.3058
 9655W        W25124   8.942  17.344   4.044 -0.1866 -0.1107 -0.0642
 9656W        W25125   0.503   7.027  11.022  0.0864 -0.1525 -0.1625
 9657W        W25126   2.467   2.698  14.965  0.2211 -0.2862  0.0830
 9658W        W25127   9.902   5.412  16.597  0.2673 -0.1453 -0.0614
 9659W        W25128  16.008  11.461  16.536 -0.0891  0.0755  0.0996
 9660W        W25129  13.624  11.778   3.499  0.1402 -0.0222 -0.1293
 9661W        W25130   0.491   1.004   0.739 -0.2841 -0.2544 -0.1612
 9662W        W25131   4.862  11.171   3.006  0.1594  0.1080 -0.0214
 9663W        W25132   5.185  11.219   5.317  0.0295  0.1023  0.0144
 9664W        W25133  12.166   1.446   4.376 -0.1285  0.0671  0.2288
 9665W        W25134  14.187  11.755   2.190  0.1392 -0.0739 -0.0834
 9666W        W25135   1.787  12.372  11.138 -0.0965 -0.0137 -0.0253
 9667W        W25136  15.849  10.095  13.086 -0.1378 -0.0015  0.0209
 9668W        W25137   3.014   6.775   1.601  0.3267  0.0067  0.3185
 9669W        W25138  16.004   5.606  12.588  0.0161  0.1192  0.2171
 9670W        W25139   8.233   0.689  15.502  0.1089 -0.0526 -0.0783
 9671W        W25140  15.623  17.219   1.546 -0.1860 -0.0165 -0.0945
 9672W        W25141  16.658   8.026  13.987  0.2130 -0.1145 -0.0955
 9673W        W25142   1.265   7.586  13.799  0.2412  0.0143  0.2185
 9674W        W25143  10.307  12.314  13.102 -0.0164 -0.1309  0.1981
 9675W        W25144  11.679  16.515  12.719 -0.0726 -0.0613 -0.1223
 9676W        W25145   4.640   5.022   1.110  0.3896  0.1630  0.0775
 9677W        W25146   9.812   5.273   4.448 -0.0890 -0.1167 -0.1272
 9678W        W25147   8.298  17.068   0.168 -0.2339  0.3740 -0.2356
 9679W        W25148   0.870  13.978  16.284 -0.3774  0.0424 -0.1153
 9680W        W25149   1.682   6.447  14.448 -0.0675 -0.1148  0.0570
 9681W        W25150   6.795   9.270   2.348  0.2552  0.2599  0.0233
 9682W        W25151  13.716   5.164   1.592 -0.2592  0.0179  0.2742
 9683W        W25152   1.128  10.252  11.160 -0.0460  0.1245 -0.1280
 9684W        W25153   1.150   8.917  11.133  0.0626  0.1212  0.3783
 9685W        W25154   5.489   6.515   1.984 -0.0711 -0.0544  0.1798
 9686W        W25155  15.205  12.592   1.240 -0.0121  0.1020  0.1493
 9687W        W25156   8.686  14.056   2.560  0.1771  0.2979  0.3156
 9688W        W25157   6.887  14.749  14.902 -0.1725 -0.1554  0.2091
 9689W        W25158   6.414  15.718   2.543 -0.3144 -0.2124  0.1327
 9690W        W25159   3.948  14.912  12.848  0.0738  0.0536 -0.2092
 9691W        W25160   3.143   2.732   1.013 -0.1512  0.1596 -0.0749
 9692W        W25161   4.553   2.218  15.616 -0.0924 -0.0991 -0.3422
 9693W        W25162   1.010  14.045   2.888 -0.2202  0.1650  0.1206
 9694W        W25163  11.190   7.665  12.513  0.1242  0.1326 -0.1977
 9695W        W25164   7.915   3.729   0.847  0.1605  0.1095 -0.2317
 9696W        W25165   3.589   3.635  14.934  0.1807 -0.0307 -0.2522
 9697W        W25166   8.390   8.076  13.014 -0.1438 -0.1627 -0.2792
 9698W        W25167   3.832   8.307   0.300 -0.1216 -0.1622 -0.2044
 9699W        W25168   9.402   3.552   3.293 -0.2866 -0.0494 -0.2242
 9700W        W25169   9.061  14.819   6.463  0.2108  0.1384 -0.0424
 9701W        W25170  13.141   3.882  13.541 -0.0261  0.2034  0.0023
 9702W        W25171   3.043   9.882  13.521 -0.1848  0.1634  0.1415
 9703W        W25172   1.804  13.921   0.073  0.0283  0.0475  0.0471
 9704W        W25173  13.742   9.677   2.713  0.0298  0.4042  0.0885
 9705W        W25174  10.071   8.302   5.430  0.0214 -0.0391 -0.3042
 9706W        W25175   3.718  12.819  16.304 -0.3189 -0.2572  0.0783
 9707W        W25176  12.407   2.308   1.100  0.0167 -0.1381  0.2031
 9708W        W25177  16.963   3.220   0.888 -0.0883 -0.2970  0.0301
 9709W        W25178  15.307   9.948   3.348 -0.2991  0.1542  0.1458
 9710W        W25179  11.320   2.160   4.626 -0.0969  0.2524  0.1191
 9711W        W25180   5.153   2.297   0.357 -0.0889  0.0346  0.0006
 9712W        W25181   7.614  17.514  13.479  0.2285 -0.0271  0.0870
 9713W        W25182   3.229  14.217   2.308  0.0312  0.0416 -0.1237
 9714W        W25183   5.396   4.362   4.604 -0.0119  0.1069 -0.1819
 9715W        W25184  16.683  15.977   2.901 -0.0253 -0.1849  0.0476
 9716W        W25185   3.919  10.623   0.117 -0.0590  0.2511  0.1918
 9717W        W25186  10.640   1.963   1.468 -0.4705  0.2043 -0.1426
 9718W        W25187  13.146  13.756   2.109  0.0875  0.0061 -0.0212
 9719W        W25188  15.933  13.843  16.097 -0.1744  0.3197 -0.0091
 9720W        W25189   2.669  12.438   3.631 -0.1343  0.0404 -0.3681
 9721W        W25190  12.842   0.559  14.950 -0.1913 -0.1189 -0.1627
 9722W        W25191  14.872  12.683  14.843 -0.0191 -0.1058 -0.3177
 9723W        W25192   1.074  13.291   4.735  0.0279 -0.1320 -0.2534
 9724W        W25193   8.785  11.970   1.146  0.2744  0.2605  0.3319
 9725W        W25194  16.422   0.251  13.370 -0.0640  0.3795 -0.1368
 9726W        W25195   3.286  14.841  11.261  0.1644 -0.2205 -0.0830
 9727W        W25196  11.602  14.342  13.824  0.2581  0.0552  0.0022
 9728W        W25197   6.965  13.623   1.315 -0.0301 -0.0419 -0.1596
 9729W        W25198   5.939   9.626  16.170  0.0662  0.0785  0.1879
 9730W        W25199   4.895   8.025  14.126 -0.0365  0.0911 -0.4387
 9731W        W25200   4.474   7.691  12.818  0.0761 -0.2246  0.1907
 9732W        W25201  16.703  17.682  14.585 -0.2751 -0.0355 -0.0938
 9733W        W25202   1.207  12.985  14.904  0.0478 -0.2207 -0.0756
 9734W        W25203   8.571   4.723   5.250 -0.4030  0.1704 -0.1719
 9735W        W25204   6.443  13.926  15.017  0.0285 -0.2913  0.1578
 9736W        W25205   3.931  16.503   4.334  0.2303  0.0216  0.0067
 9737W        W25206   0.611   0.078   1.964  0.0152  0.1725  0.0595
 9738W        W25207   2.059   9.097   0.869 -0.2991  0.0344  0.1469
 9739W        W25208  15.212  13.366   4.885 -0.1933 -0.1114  0.3174
 9740W        W25209   3.195   7.415   3.295  0.1547 -0.1307 -0.2917
 9741W        W25210   8.077   6.580   3.967 -0.0584  0.0273  0.1038
 9742W        W25211  10.286   1.312  12.944  0.0292  0.2964 -0.2803
 9743W        W25212  15.335   9.826  10.707 -0.0755 -0.2626 -0.1933
 9744W        W25213   3.264  11.325   3.773 -0.0993 -0.1931 -0.1343
 9745W        W25214   8.980  12.784   1.391 -0.0799 -0.0394  0.1916
 9746W        W25215   4.665  16.202   0.103  0.1592 -0.0426 -0.2330
 9747W        W25216   8.301   2.070   4.636 -0.1589  0.1142 -0.0322
 9748W        W25217  14.855   3.940   3.896 -0.1144  0.0668 -0.1364
 9749W        W25218  15.526   8.307  16.070 -0.1933  0.1008  0.0047
 9750W        W25219   0.392   4.985   2.921  0.2047 -0.0436  0.1425
 9751W        W25220   7.824   4.358  11.757  0.1608 -0.2936  0.0011
 9752W        W25221   5.090   4.563  15.892  0.1046 -0.1480 -0.0297
 9753W        W25222   8.520   9.642   4.970 -0.1903  0.1260  0.0391
 9754W        W25223  17.616   7.119   2.546  0.0077 -0.0107 -0.4110
 9755W        W25224   0.287   1.881   0.623 -0.2218 -0.1352  0.1250
 9756W        W25225   3.720  12.794   1.362  0.3776 -0.1245  0.0510
 9757W        W25226   3.502   0.551  10.634  0.0498  0.0945  0.1371
 9758W        W25227   0.287  16.129  12.641  0.0757 -0.0132  0.2018
 9759W        W25228  13.976   2.874   0.806 -0.0485 -0.0427 -0.1608
 9760W        W25229   7.899   6.607   3.493  0.1245 -0.3041 -0.0326
 9761W        W25230  12.087   2.589   5.303  0.0070  0.0650  0.1769
 9762W        W25231  10.039  14.013   2.990  0.1141 -0.0010  0.0780
 9763W        W25232  17.759  12.516   5.194 -0.2766  0.2942  0.1148
 9764W        W25233   2.519  14.307   4.460  0.0257 -0.1236 -0.0081
 9765W        W25234  17.510   4.985  14.657 -0.1045 -0.1435  0.1318
 9766W        W25235  13.798   2.738   1.388  0.2917  0.3382  0.0634
 9767W        W25236  17.747   4.878   2.543 -0.1528 -0.2324 -0.2986
 9768W        W25237   1.223   6.360  12.158  0.2462  0.1058 -0.1472
 9769W        W25238   8.260  16.392   3.679 -0.0117 -0.0001 -0.0404
 9770W        W25239   9.324  17.765  14.516 -0.0239  0.2401 -0.0623
 9771W        W25240   4.488  13.842  11.678 -0.3984  0.0019 -0.0956
 9772W        W25241  14.896   0.662   5.130  0.1616 -0.0921 -0.2255
 9773W        W25242   2.640   8.520   4.794 -0.0020  0.1985 -0.1885
 9774W        W25243  14.270  13.569  13.205 -0.0414 -0.0546  0.1010
 9775W        W25244  14.172   4.564   4.487 -0.3142  0.0117  0.1567
 9776W        W25245   2.552  15.979  11.709 -0.4672  0.1380  0.0848
 9777W        W25246  13.195   0.232  13.652  0.1726  0.1228  0.0783
 9778W        W25247  17.012   8.484  15.087  0.3770 -0.2279 -0.1033
 9779W        W25248   5.641   8.119  11.892  0.0035 -0.0310  0.0698
 9780W        W25249  11.822   2.599  14.288 -0.1340  0.0668  0.2125
 9781W        W25250   5.923   9.536   4.391 -0.1698  0.0344 -0.0631
 9782W        W25251  17.345   8.434  12.619 -0.1579 -0.2778 -0.1779
 9783W        W25252  11.716   1.002  15.816  0.1434  0.0934  0.1572
 9784W        W25253  17.248  12.517  12.521  0.1091 -0.2258 -0.1565
 9785W        W25254   6.787  11.443   0.242 -0.1554  0.1251  0.0039
 9786W        W25255   0.531  15.859   1.731  0.0517 -0.1296 -0.0998
 9787W        W25256   3.630  14.313   6.161 -0.2406  0.0695 -0.0323
 9788W        W25257   7.498   7.608  15.206 -0.1284  0.0359  0.0529
 9789W        W25258  11.981  13.759   5.220  0.3937  0.1538  0.2765
 9790W        W25259  13.699  13.237   5.147 -0.1565  0.0123  0.1554
 9791W        W25260  15.818   8.209  11.687 -0.1543 -0.0330 -0.0612
 9792W        W25261   8.964   0.079  12.677 -0.1432 -0.0996 -0.1118
 9793W        W25262   7.666  11.798   3.385 -0.1043  0.0208 -0.3232
 9794W        W25263   3.246   2.692  12.856 -0.3874 -0.0405 -0.0056
 9795W        W25264  16.536   3.627  15.707 -0.2181 -0.1135 -0.0722
 9796W        W25265  14.187   9.140   5.394  0.0002  0.0781 -0.0196
 9797W        W25266   8.233   7.713  13.371 -0.1919 -0.0167 -0.4336
 9798W        W25267  17.694   8.594   3.919 -0.0890  0.2401  0.2150
 9799W        W25268  14.691   2.361   4.273 -0.1690 -0.1158 -0.6143
 9800W        W25269   3.877   2.189   1.298  0.1316 -0.1252 -0.2545
 9801W        W25270   6.093   7.923   0.969 -0.1525 -0.0243 -0.0566
 9802W        W25271  12.819   5.154   0.997 -0.0508  0.1780 -0.0472
 9803W        W25272  14.783   4.950   0.214  0.2101 -0.0488 -0.2297
 9804W        W25273   2.821  12.655   2.530 -0.0078 -0.1831  0.1021
 9805W        W25274   9.347  17.480   2.207 -0.0084 -0.2422 -0.1824
 9806W        W25275   4.658  11.810  14.852 -0.0223 -0.2124  0.2032
 9807W        W25276  14.321  17.184  12.828  0.0471  0.1289 -0.0360
 9808W        W25277   1.212   0.350  10.402  0.1010  0.1956  0.1083
 9809W        W25278  10.333  10.900   4.705 -0.1006 -0.1049 -0.3051
 9810W        W25279   8.752   0.915  14.471  0.0833  0.1544  0.0982
 9811W        W25280   2.668   2.819   2.853  0.1881 -0.0775 -0.3636
 9812W        W25281  13.360   2.455   0.442 -0.2401 -0.0047  0.3035
 9813W        W25282   0.518   0.473  11.125 -0.2947  0.0404  0.0494
 9814W        W25283   0.199   7.944   0.112 -0.0780  0.2514 -0.2782
 9815W        W25284  12.492   4.960   0.640  0.2151 -0.1265  0.0669
 9816W        W25285  15.935  13.485  11.576  0.0929 -0.3376  0.1536
 9817W        W25286  15.879   1.437   3.823 -0.1004 -0.1175  0.0949
 9818W        W25287  11.694  14.255   5.501  0.1569 -0.2895  0.2120
 9819W        W25288   8.314   0.708  11.840 -0.1014 -0.0373 -0.0860
 9820W        W25289   0.083   4.750   3.789 -0.0734  0.0238 -0.2412
 9821W        W25290  10.643   2.044  12.520 -0.0125  0.0520  0.0865
 9822W        W25291  10.182   1.772  12.695  0.0949 -0.1889  0.1823
 9823W        W25292  12.158   7.080  16.744 -0.0713 -0.0996 -0.0042
 9824W        W25293  10.216  15.792   3.815  0.0590  0.0790  0.1146
 9825W        W25294   3.558  10.255   4.802  0.0191  0.2138  0.0995
 9826W        W25295   8.363   3.813   0.614  0.0733 -0.0217  0.0821
 9827W        W25296  15.872   2.382   5.571 -0.0277 -0.3208 -0.2961
 9828W        W25297  11.938   8.338   3.831  0.0773 -0.0659  0.0906
 9829W        W25298  13.861   3.319   2.136 -0.0838 -0.1555 -0.1284
 9830W        W25299  15.140  16.005   0.270 -0.2047 -0.2758 -0.2185
 9831W        W25300   3.752  16.581   2.769 -0.0338 -0.0603 -0.1444
 9832W        W25301  16.368   9.858   1.001  0.1012 -0.0999  0.0485
 9833W        W25302  11.250   2.984   2.501 -0.0075 -0.1140  0.0198
 9834W        W25303   9.024   2.123   0.323  0.0285  0.3705  0.2444
 9835W        W25304  13.200   2.120  15.693  0.3094 -0.1250 -0.2404
 9836W        W25305  12.559   0.541  12.229  0.1886 -0.2073 -0.1959
 9837W        W25306   9.995  17.687   1.717  0.2210 -0.2595  0.0188
 9838W        W25307  14.579   3.433  13.453  0.2196  0.0714 -0.0445
 9839W        W25308  10.150  14.183  12.688 -0.1249 -0.0456 -0.2719
 9840W        W25309   9.797   9.674  11.093  0.2716  0.0286  0.0099
 9841W        W25310  16.932   1.429  12.347 -0.3219  0.2002 -0.0464
 9842W        W25311  15.877   8.552  16.433  0.0743  0.1279 -0.3751
 9843W        W25312  10.396   1.922  10.657  0.1206 -0.2233  0.0207
 9844W        W25313  10.715   1.052  12.984 -0.3020  0.1906  0.4346
 9845W        W25314   6.179   6.662   4.717  0.1999 -0.0068  0.2660
 9846W        W25315   2.249  17.262   0.716  0.1257 -0.1615  0.5414
 9847W        W25316  15.362   7.070  14.083 -0.1843 -0.0927 -0.0036
 9848W        W25317  15.165  14.699   4.265  0.1776 -0.1187 -0.0555
 9849W        W25318   2.165  16.561  11.296  0.1743 -0.0705 -0.2028
 9850W        W25319   7.052   4.736   4.500 -0.4125  0.3673 -0.0975
 9851W        W25320   2.075   7.137  11.649 -0.4330  0.0039  0.0805
 9852W        W25321  10.922   9.232   3.921  0.1502  0.0912  0.2243
 9853W        W25322  16.064   3.570   0.604  0.1075  0.1496 -0.2210
 9854W        W25323   6.511   4.076   0.170 -0.3384  0.0098 -0.2494
 9855W        W25324   6.682  11.750  15.290 -0.0230  0.0687  0.1074
 9856W        W25325  11.215   4.060   3.482 -0.3522 -0.4264 -0.0548
 9857W        W25326   2.137  11.711  13.645  0.3064 -0.2698  0.4746
 9858W        W25327   7.271   3.608   3.932  0.0147  0.1119  0.1167
 9859W        W25328  14.938   1.080  13.046 -0.1757 -0.0039  0.0472
 9860W        W25329   2.994   5.458   1.652 -0.0353 -0.0897 -0.0398
 9861W        W25330  10.308  16.914  15.709 -0.1428  0.2079  0.2110
 9862W        W25331   5.751  12.053   5.374 -0.3893  0.0245 -0.2528
 9863W        W25332   1.304   6.792   2.603 -0.2624  0.0865 -0.2455
 9864W        W25333   6.646  12.725  12.825 -0.2645  0.0341  0.1102
 9865W        W25334  15.193   3.905  15.676  0.3333 -0.0632 -0.0210
 9866W        W25335   7.479   8.953  11.669  0.0836  0.1844 -0.1183
 9867W        W25336  15.133   5.536  12.579 -0.0128  0.0672 -0.0509
 9868W        W25337   1.317   8.212  11.628  0.0723 -0.1983  0.0512
 9869W        W25338   4.372  17.679  11.720 -0.0924  0.2494  0.2253
 9870W        W25339   0.373  12.950   5.285 -0.1642 -0.0343  0.1808
 9871W        W25340   6.871   3.005  11.818  0.0087  0.0011  0.0100
 9872W        W25341   2.180   4.655   1.550 -0.1842  0.2842 -0.0155
 9873W        W25342  15.267   8.970   0.595  0.1317  0.3398  0.0363
 9874W        W25343   1.063   2.467   2.020  0.0321  0.0673  0.0411
 9875W        W25344  14.022   1.126  14.093  0.0328 -0.0133 -0.0024
 9876W        W25345   6.313  10.310  13.977  0.1439 -0.3082  0.1942
 9877W        W25346  11.136   6.172   4.907 -0.4017 -0.2233  0.0404
 9878W        W25347   8.054  13.661  13.897 -0.1663  0.0095  0.0290
 9879W        W25348   2.904  12.336   4.814  0.2249  0.0519 -0.2710
 9880W        W25349  14.366   9.070   1.103  0.1757  0.0932  0.1666
 9881W        W25350  11.596   1.862  12.275 -0.3078  0.0102 -0.1351
 9882W        W25351  10.068   9.527   2.130 -0.0652  0.0085  0.0630
 9883W        W25352   9.794  16.440   0.894 -0.1981 -0.2410 -0.1390
 9884W        W25353   2.938   4.552   4.804 -0.3651 -0.0502  0.0460
 9885W        W25354  15.275   9.264   1.769  0.0322 -0.2681  0.1640
 9886W        W25355  11.117  11.732  16.059 -0.0106 -0.0158  0.0833
 9887W        W25356   2.333   9.286   4.157 -0.1456 -0.3249  0.4164
 9888W        W25357  16.988  10.121  12.417  0.0213  0.0172  0.0849
 9889W        W25358   4.104   6.813   2.829  0.1627 -0.1676 -0.2488
 9890W        W25359   0.765  17.447   6.149 -0.1232 -0.0303  0.0141
 9891W        W25360  13.876  15.914  13.990  0.0059 -0.2319 -0.0658
 9892W        W25361  14.726   8.036  13.492 -0.1788 -0.0064  0.2374
 9893W        W25362  10.778   4.290  12.581  0.0775 -0.0761 -0.1294
 9894W        W25363  12.862   0.585  12.774  0.1054  0.2376 -0.2406
 9895W        W25364  12.140  12.852   4.867 -0.2658 -0.0182 -0.2333
 9896W        W25365  14.895  16.998  13.233 -0.0292  0.4214 -0.0856
 9897W        W25366   3.210   8.672   2.150 -0.1305 -0.2089 -0.3492
 9898W        W25367   5.949   1.332   0.173 -0.1605  0.1343 -0.0870
 9899W        W25368  12.166   2.871  16.584 -0.1358  0.1915  0.1669
 9900W        W25369  16.280   1.303  15.864 -0.0148  0.0202 -0.0895
 9901W        W25370  11.274   0.018  14.426 -0.0892  0.0025  0.0810
 9902W        W25371  10.325   8.795   2.687  0.1655  0.0519 -0.1061
 9903W        W25372   0.129   1.431   1.926  0.0149 -0.1544 -0.3298
 9904W        W25373   0.057  14.580  14.550  0.2388 -0.1051  0.1944
 9905W        W25374   5.649   4.934   2.554 -0.2553  0.0854 -0.0656
 9906W        W25375  14.730   6.962   4.204  0.2049 -0.3045  0.2505
 9907W        W25376  14.178  10.548  15.397  0.1584  0.2356 -0.1319
 9908W        W25377  17.396  13.011  12.580 -0.0641  0.1801 -0.3803
 9909W        W25378  17.056   2.313   3.446 -0.0930 -0.2950 -0.0036
 9910W        W25379  12.067  17.028   3.359  0.1021  0.1016  0.0590
 9911W        W25380   2.203   6.732  12.372 -0.2318 -0.1027 -0.2343
 9912W        W25381   5.896   6.940  14.553  0.0574  0.2036 -0.1212
 9913W        W25382   1.049  12.657  13.349  0.1234  0.1755  0.1182
 9914W        W25383  13.639  12.338  16.793  0.1849  0.1155  0.0538
 9915W        W25384   1.360  15.005  15.573 -0.1656  0.0057 -0.1979
 9916W        W25385  15.290   2.039   0.753 -0.1627 -0.2350  0.0298
 9917W        W25386   6.273   9.267   2.360 -0.2315  0.1220 -0.2059
 9918W        W25387   4.022  14.391  10.441  0.0860  0.0228  0.0280
 9919W        W25388   7.522   8.439   3.760 -0.0392 -0.1624  0.2231
 9920W        W25389  12.011  10.528   2.799 -0.3043  0.0195 -0.1294
 9921W        W25390   7.961  12.483   1.384  0.0105 -0.2919  0.0666
 9922W        W25391  14.352  10.782  12.542  0.0349 -0.1512  0.1595
 9923W        W25392  14.468  13.612   5.388 -0.0674 -0.1071 -0.4229
 9924W        W25393   5.989   1.539   3.896 -0.3707 -0.0088  0.0503
 9925W        W25394  11.260   2.199   0.796  0.1444  0.0795 -0.0585
 9926W        W25395   2.032  15.435  11.124  0.1895 -0.1368  0.0151
 9927W        W25396   6.669  11.917  16.241  0.0044  0.2636  0.2496
 9928W        W25397  10.046  10.408   5.462 -0.2004 -0.2029  0.1770
 9929W        W25398  17.531  16.765   1.558 -0.1492  0.0907  0.1327
 9930W        W25399   5.536  11.240   2.777 -0.2686 -0.0304  0.1398
 9931W        W25400  15.574  10.461  11.737  0.0058 -0.1626 -0.0096
 9932W        W25401  12.764   9.593  15.630  0.0050  0.0441  0.1264
 9933W        W25402  15.000   7.118  15.124 -0.2640 -0.1302  0.0683
 9934W        W25403  14.776  12.687  15.396 -0.1164  0.2423  0.1435
 9935W        W25404  16.090  10.748   2.751 -0.0709 -0.0769 -0.1872
 9936W        W25405  15.801   0.818   0.345  0.2740 -0.0354  0.0576
 9937W        W25406  13.825   8.055  13.119  0.2532  0.2394 -0.2789
 9938W        W25407   1.370   9.289   1.140  0.1852  0.4295  0.1655
 9939W        W25408   6.726  11.820   1.138  0.1116 -0.0511  0.2083
 9940W        W25409  12.186   7.394  12.091  0.0181 -0.3360  0.2311
 9941W        W25410   4.403   8.175   1.725 -0.0389 -0.1574 -0.0638
 9942W        W25411  12.401  14.890  14.425  0.0181 -0.1562  0.0567
 9943W        W25412  12.496   2.847   4.546  0.0379 -0.0714  0.0266
 9944W        W25413  12.855  12.166  14.453 -0.0134 -0.0300 -0.2447
 9945W        W25414   4.633   7.682  13.247 -0.2732 -0.2114 -0.0581
 9946W        W25415   6.847  14.261  13.133 -0.5773  0.0198 -0.1819
 9947W        W25416  17.124   4.028   1.122  0.0112  0.0519 -0.1500
 9948W        W25417  14.951   9.154   1.320  0.0719  0.0329  0.2718
 9949W        W25418   8.656  15.530  13.272 -0.0048  0.0677  0.0234
 9950W        W25419  13.934   1.770   4.124 -0.0338 -0.0670 -0.1482
 9951W        W25420   6.290   5.202   4.150 -0.0924 -0.1108 -0.2398
 9952W        W25421   7.662   6.811  13.999  0.0068 -0.1507  0.0221
 9953W        W25422   2.074   7.990  13.441  0.2268  0.2632 -0.1834
 9954W        W25423   5.584  10.323   1.741 -0.0935 -0.0631 -0.0446
 9955W        W25424   4.333   3.092  13.560  0.2173  0.1787  0.0798
 9956W        W25425   0.737  16.262   0.536  0.0342 -0.1711 -0.0459
 9957W        W25426   6.438  10.659  13.589 -0.0336  0.2068  0.4117
 9958W        W25427  11.596   1.323   4.424 -0.0357  0.0169  0.0369
 9959W        W25428   5.913   8.186  13.163 -0.1742  0.3128  0.0153
 9960W        W25429   7.836  17.111  12.958  0.1360 -0.2515  0.2546
 9961W        W25430  15.500   0.787   4.292  0.0577 -0.2066  0.0452
 9962W        W25431  12.209   1.936   3.187 -0.0970  0.0867  0.3039
 9963W        W25432   4.235  16.430  15.317 -0.0864 -0.3510  0.0729
 9964W        W25433   8.340  15.815  15.764  0.0709 -0.1675  0.1875
 9965W        W25434  15.414  14.420   0.734 -0.4268 -0.1177  0.1469
 9966W        W25435   6.984   4.724   0.562 -0.0318  0.0464 -0.1216
 9967W        W25436  11.146   1.430   5.822 -0.0881 -0.2354  0.0844
 9968W        W25437  14.904   2.138  16.512 -0.3336 -0.0286 -0.1403
 9969W        W25438   3.550   8.089  14.470 -0.0394 -0.1262  0.1731
 9970W        W25439   8.810  12.900   1.822  0.1148 -0.1644 -0.1004
 9971W        W25440   0.125   6.788  11.387  0.2477  0.0815 -0.0934
 9972W        W25441  16.892   2.118  13.455 -0.2735 -0.0014  0.2687
 9973W        W25442  10.685   9.975   6.608 -0.0626 -0.1751  0.0125
 9974W        W25443  15.351  11.492  12.046 -0.0226 -0.1797 -0.1121
 9975W        W25444   0.610  10.567   0.523 -0.1912 -0.0725 -0.1201
 9976W        W25445   4.788   9.904  14.782  0.2819 -0.0531 -0.2709
 9977W        W25446   0.556   4.831  12.128 -0.1906 -0.2130 -0.0718
 9978W        W25447   9.840   3.390  15.801  0.2405  0.0788 -0.0353
 9979W        W25448   8.239   7.763   3.946  0.0589 -0.1392  0.1180
 9980W        W25449   5.905   8.784  14.890 -0.0377 -0.0993 -0.0061
 9981W        W25450   5.008  10.725   2.853 -0.3172 -0.1746  0.0012
 9982W        W25451  15.343   1.030  12.115  0.1005 -0.0527  0.2713
 9983W        W25452   0.211  11.432  13.128 -0.0890 -0.3794 -0.0906
 9984W        W25453   2.593   5.581  11.400  0.2457 -0.2030  0.0079
 9985W        W25454  17.335  11.408  13.501  0.0029  0.2333 -0.0358
 9986W        W25455  17.601   4.668  16.402  0.2998 -0.0601  0.1952
 9987W        W25456   2.535  16.739  13.601  0.6276 -0.1778  0.1778
 9988W        W25457  11.958  12.898   5.714  0.0028 -0.3318  0.0976
 9989W        W25458   4.875   0.586  12.029  0.0130  0.1384  0.0793
 9990W        W25459  14.689   6.152   4.687  0.0932 -0.0151  0.0886
 9991W        W25460   5.325  12.905   0.104 -0.0525 -0.0047 -0.1807
 9992W        W25461   9.920  11.093  11.652 -0.3648  0.1113  0.0010
 9993W        W25462   3.472   0.455  11.930 -0.1059  0.0206  0.2766
 9994W        W25463  17.078  14.338   2.242  0.0383 -0.0432  0.2217
 9995W        W25464   4.501   2.541  13.409  0.3314 -0.0887 -0.1319
 9996W        W25465   2.763  12.251  16.512 -0.0461  0.2713  0.0237
 9997W        W25466  10.323  11.324   6.578  0.0880 -0.1390  0.0050
 9998W        W25467  16.415  12.342   1.877  0.0493 -0.0239 -0.0151
 9999W        W25468  12.767  11.828   2.739  0.0275  0.0563 -0.1364
10000W        W25469   3.677   9.606   3.880  0.2587  0.0772  0.0424
10001W        W25470   2.742   3.469  16.732 -0.0502 -0.1880 -0.0501
10002W        W25471   8.979  13.658   6.492 -0.1827  0.0805  0.1761
10003W        W25472  11.481   3.982  12.055  0.1579 -0.0051 -0.2343
10004W        W25473   0.643  11.573   4.548 -0.1087 -0.1463  0.1644
10005W        W25474  16.134   8.522   4.924  0.0767 -0.1949 -0.1480
10006W        W25475   0.163  13.365   0.267  0.0947  0.1419 -0.1391
10007W        W25476   8.113  16.304  11.707  0.1344  0.3071  0.1439
10008W        W25477   2.883  12.272  11.385  0.2187  0.0197 -0.2603
10009W        W25478   6.528   5.146  12.730  0.0457 -0.1426  0.2697
10010W        W25479   7.927  10.997   1.588  0.1430  0.0295  0.0734
10011W        W25480   5.206  14.448   0.108 -0.0702  0.1102  0.1520
10012W        W25481   5.532  12.667  13.981  0.1145 -0.1521 -0.4733
10013W        W25482   6.808  14.641  11.282  0.1073  0.0454  0.0047
10014W        W25483  12.768  11.795   3.892 -0.0855  0.0389  0.4106
10015W        W25484  12.824   7.338   1.335  0.0168  0.0075  0.0223
10016W        W25485   0.338  17.098  15.173  0.0544  0.2143 -0.1763
10017W        W25486   5.918  12.770   4.399  0.1515 -0.0786 -0.1622
10018W        W25487   0.684  16.934  13.372  0.2185 -0.1020  0.0811
10019W        W25488   3.747   3.445  13.362  0.1477 -0.0917 -0.2073
10020W        W25489  15.225  16.492   3.780 -0.1933 -0.0702 -0.1444
10021W        W25490   7.130   1.989  13.546 -0.0643 -0.1738  0.1405
10022W        W25491   4.270   7.854  12.362 -0.0728 -0.2805  0.0169
10023W        W25492   3.161   3.996   1.989 -0.0027 -0.0821 -0.0248
10024W        W25493  15.800   1.697  13.963  0.1486  0.0725  0.1654
10025W        W25494  10.013   9.226  14.103 -0.1567 -0.1575  0.0633
10026W        W25495  16.610   3.103  13.692  0.2250  0.0024 -0.0322
10027W        W25496   0.551   6.580   1.593  0.4049  0.0392  0.2966
10028W        W25497   7.371  11.085  12.107  0.1146 -0.1098  0.1734
10029W        W25498  17.487   5.811   4.983  0.1510  0.1063  0.0141
10030W        W25499   2.700   1.646   0.673 -0.0630 -0.3086 -0.3527
10031W        W25500   5.756   1.193   2.742 -0.0522 -0.3902  0.5322
10032W        W25501  15.661  15.943  10.204  0.2368  0.0376 -0.1951
10033W        W25502   3.555  14.257  11.231 -0.0513 -0.0602 -0.1068
10034W        W25503   4.244   3.853  15.615 -0.1253  0.1483 -0.5136
10035W        W25504   8.158  14.323   5.271 -0.0905  0.3319 -0.0427
10036W        W25505   7.559   6.079   0.729 -0.2734 -0.3250  0.2836
10037W        W25506  16.328   5.088   1.133 -0.0376 -0.3912  0.0892
10038W        W25507   5.673   7.066   3.971  0.0969  0.0970  0.1562
10039W        W25508   8.090   1.571   0.184  0.0986 -0.1127  0.3130
10040W        W25509   3.881  10.744   2.253 -0.1289  0.0171  0.2105
10041W        W25510   9.661  16.110   5.696  0.0794 -0.2475  0.0590
10042W        W25511  13.565   3.052  14.844 -0.1636  0.0895  0.3013
10043W        W25512   5.356  14.141  16.597  0.1265  0.1317 -0.2113
10044W        W25513  14.439  13.419  14.502 -0.1591 -0.1723 -0.0408
10045W        W25514  11.883  16.069   3.140  0.2975 -0.1725  0.3148
10046W        W25515  16.637  10.919  12.051 -0.0251  0.1014 -0.1190
10047W        W25516   6.898  15.526   0.832 -0.1183 -0.1537 -0.0268
10048W        W25517   6.898   7.826   1.464  0.0046  0.0591 -0.0231
10049W        W25518   6.522   4.418  12.271 -0.0115 -0.0628 -0.2043
10050W        W25519   4.177  11.503   3.822  0.0437  0.0726 -0.1733
10051W        W25520   6.290   7.360   3.409  0.0049 -0.0411  0.1576
10052W        W25521  16.611   2.893  13.261 -0.1446 -0.1974 -0.0808
10053W        W25522   9.741  11.143  14.924  0.1761 -0.1051 -0.0345
10054W        W25523   9.055  12.019   4.261 -0.0127  0.0657  0.0539
10055W        W25524   6.219   0.207   4.144 -0.0732 -0.0745  0.1777
10056W        W25525   3.684   7.332  12.050  0.1096 -0.1536 -0.1088
10057W        W25526  11.963   0.930   5.820 -0.2160  0.0256  0.2319
10058W        W25527   2.576  16.430   2.858 -0.1873 -0.0294 -0.1844
10059W        W25528   3.443  14.784   4.467  0.1438 -0.2265 -0.0521
10060W        W25529   5.917  16.853   2.616  0.1598 -0.0596 -0.0290
10061W        W25530  12.071  10.090   2.447  0.2979 -0.3811  0.0393
10062W        W25531   5.034  13.970  13.341  0.3272 -0.0407  0.1490
10063W        W25532  17.008   5.865   3.765 -0.2698 -0.1905 -0.1062
10064W        W25533  12.778  11.486   4.519  0.2634 -0.1416 -0.2556
10065W        W25534  11.278   2.529   2.603 -0.1336  0.0953 -0.0648
10066W        W25535  15.715   1.954   2.109 -0.0290 -0.1259  0.0940
10067W        W25536   2.648  10.908  11.548 -0.2768 -0.0763  0.1750
10068W        W25537   8.346  17.297   1.732 -0.2340 -0.0593 -0.0524
10069W        W25538  10.987   5.026  14.492  0.1218 -0.0031 -0.0468
10070W        W25539  17.620  10.842   5.801  0.0011  0.0267  0.1189
10071W        W25540  17.306   4.861   4.831 -0.0121  0.1444 -0.1645
10072W        W25541  12.295   8.944   2.722  0.5144  0.1286 -0.4370
10073W        W25542   1.058  12.711   3.697  0.0729 -0.3768 -0.1315
10074W        W25543   4.443   3.112   1.816 -0.0532  0.0265  0.1619
10075W        W25544   7.787   3.038   6.429 -0.3270 -0.0673  0.0228
10076W        W25545  16.536  13.994   3.319  0.1389  0.0065  0.2089
10077W        W25546  10.928   6.234  15.981  0.1014 -0.0176  0.0745
10078W        W25547   6.124   2.584  14.532  0.2060 -0.0936 -0.2924
10079W        W25548   4.857  16.000  11.674  0.2158  0.1548 -0.0812
10080W        W25549  10.623   0.123   2.250  0.3527  0.2688  0.1030
10081W        W25550  16.590  16.007  16.286 -0.1375  0.0624 -0.2781
10082W        W25551  12.713   0.025   4.987  0.2424  0.0009  0.1681
10083W        W25552  11.766   9.833  13.474 -0.1416  0.2955 -0.1386
10084W        W25553   9.321  12.452  12.262 -0.1928 -0.1237 -0.2024
10085W        W25554  17.105  17.544   4.469  0.0236  0.1028  0.1593
10086W        W25555  11.038  15.565  16.037 -0.1786  0.0079  0.0395
10087W        W25556   6.172   2.084   2.955 -0.0267  0.0766  0.1200
10088W        W25557   3.798  14.779   2.936 -0.2734  0.1898 -0.1490
10089W        W25558   6.339  12.891   1.979  0.2180  0.0323 -0.0233
10090W        W25559  15.641   1.941  14.376  0.1689  0.0174 -0.1775
10091W        W25560   2.834   9.538   0.230 -0.4004 -0.3517  0.0929
10092W        W25561   1.190   3.887  10.148  0.1575  0.0460  0.1058
10093W        W25562   7.370  12.029  11.833  0.1878  0.2745  0.0605
10094W        W25563   9.709  16.038  14.243 -0.3350 -0.0600  0.0079
10095W        W25564  16.132   4.838  12.448 -0.0894  0.3999  0.0175
10096W        W25565   4.237   8.515  16.469 -0.0406 -0.1042 -0.4034
10097W        W25566   5.911   3.433  16.732 -0.0054 -0.2136 -0.1006
10098W        W25567   2.462   6.013  11.707 -0.2799 -0.3263  0.2174
10099W        W25568   2.460   6.810   0.758 -0.4215  0.2152  0.0715
10100W        W25569   4.538  11.303   2.200 -0.1541  0.0986  0.0850
10101W        W25570   6.358   8.490  15.888 -0.2037  0.1170  0.1662
10102W        W25571   0.800  13.724  13.969 -0.2354  0.2570 -0.0205
10103W        W25572   8.922  16.615   4.212 -0.2121  0.0142  0.2765
10104W        W25573   5.111   5.048   0.924  0.1940  0.0220 -0.0881
10105W        W25574  12.638   9.356   1.050  0.1409  0.2371  0.0318
10106W        W25575   1.475   3.663   5.283  0.3358  0.2399  0.2260
10107W        W25576  12.308   8.345  15.577  0.0131  0.4713 -0.0739
10108W        W25577  15.038  14.315   2.440  0.3297  0.0103  0.1753
10109W        W25578   6.885  15.098  14.554 -0.0764 -0.1661 -0.0237
10110W        W25579  16.846   7.151  12.162 -0.2146 -0.0314 -0.0737
10111W        W25580  17.768   1.844   5.654 -0.3223  0.1171  0.0109
10112W        W25581  16.691  13.428   3.679  0.1234 -0.0631 -0.0164
10113W        W25582   1.588   5.247  14.112 -0.3204  0.0428 -0.0204
10114W        W25583  12.021   5.739  15.146 -0.0248 -0.2440 -0.2574
10115W        W25584  17.335  16.420   3.564  0.0345  0.1234 -0.1550
10116W        W25585  13.931  17.753  16.415 -0.2036 -0.0557 -0.1193
10117W        W25586   9.336  13.316   6.681  0.0773  0.2448 -0.0931
10118W        W25587   1.154  10.894   0.624 -0.2109 -0.0311  0.0399
10119W        W25588  17.708  12.436  16.503 -0.1048  0.5358 -0.2100
10120W        W25589   2.167   5.980  11.153 -0.2088 -0.0615  0.0464
10121W        W25590  10.840  16.533  14.489 -0.0904 -0.2909  0.3274
10122W        W25591  11.556   9.376   2.878  0.0183 -0.0424 -0.0520
10123W        W25592   7.838  17.621   1.999  0.1554  0.0654  0.1446
10124W        W25593   7.996   8.208  11.537 -0.0067 -0.0607  0.0715
10125W        W25594   5.316   7.854  13.928  0.0622 -0.0046 -0.0745
10126W        W25595  17.148  17.756   2.854 -0.2421  0.0395 -0.4159
10127W        W25596  12.116  13.043   3.604  0.1314 -0.0690  0.1501
10128W        W25597   9.239  17.341  11.570  0.1384 -0.3056 -0.1238
10129W        W25598   6.138  11.449  13.322 -0.2928  0.1296  0.2906
10130W        W25599   7.497  10.675   1.615  0.0824 -0.0781 -0.0067
10131W        W25600   0.372  17.329  15.616 -0.3763  0.0916  0.1654
10132W        W25601  15.211  10.651  10.929  0.1588 -0.0160 -0.3157
10133W        W25602   1.053   8.295   2.825 -0.1733 -0.2102  0.2847
10134W        W25603  16.455   1.318   0.608 -0.2606 -0.1537  0.1515
10135W        W25604   5.232  12.675  11.292  0.1216 -0.0120  0.1719
10136W        W25605  16.738  11.342   4.086  0.0833  0.5583  0.4654
10137W        W25606   7.016   2.609   6.179  0.0345 -0.0231 -0.1000
10138W        W25607   0.461   2.344   0.854  0.0806 -0.3236  0.0514
10139W        W25608  16.666   9.435  14.023 -0.1690 -0.0030 -0.2145
10140W        W25609  11.020   9.283  11.696 -0.0823 -0.1128 -0.1163
10141W        W25610   2.429   2.233   4.237 -0.0662 -0.2404  0.1361
10142W        W25611  12.869   2.134   5.577  0.3835  0.1347  0.1581
10143W        W25612  17.524  12.179   4.899  0.0198  0.1302 -0.0498
10144W        W25613  12.556   0.137   5.409 -0.0082  0.1674  0.1197
10145W        W25614  13.127   4.447  11.957  0.0441  0.0559  0.3186
10146W        W25615  17.459   6.240   4.726 -0.0264  0.1755 -0.2154
10147W        W25616   0.147  15.242  15.179 -0.1227 -0.4657  0.0544
10148W        W25617  10.744  12.177   4.234 -0.3039 -0.1545 -0.1466
10149W        W25618   6.699   7.572   3.163  0.1997  0.1875 -0.0849
10150W        W25619  13.143  14.251   2.637 -0.2567  0.0985 -0.0678
10151W        W25620   5.331   8.576   0.083  0.1038 -0.2687  0.1650
10152W        W25621  10.195   8.307   2.727 -0.1161 -0.1070  0.2533
10153W        W25622  12.338  16.891  13.156  0.1566 -0.0113  0.2240
10154W        W25623  16.126   7.382  12.944 -0.0748  0.2038 -0.1746
10155W        W25624   4.727  15.958   4.593 -0.0431 -0.2392  0.0019
10156W        W25625   3.024  13.109   1.338  0.0637  0.0442  0.0287
10157W        W25626   6.778   2.645   3.310 -0.5134 -0.0428 -0.0281
10158W        W25627  15.619  15.927  13.997  0.2247  0.1798 -0.0793
10159W        W25628  12.920  11.448   0.112 -0.0258  0.1372  0.1134
10160W        W25629   2.772   8.165  12.342  0.3867 -0.0422  0.1873
10161W        W25630   3.479   8.902  15.497 -0.3744  0.1920  0.1829
10162W        W25631   7.333  10.632   5.159  0.2097  0.1695 -0.0199
10163W        W25632   6.039  12.715  13.401 -0.0491  0.0245 -0.0342
10164W        W25633  17.650   9.374   2.127 -0.0853  0.1907 -0.2058
10165W        W25634  14.478   4.492   0.590 -0.1192  0.1854  0.0535
10166W        W25635   7.231  15.484  11.873  0.0517 -0.0903 -0.2330
10167W        W25636  13.691  11.417  14.738 -0.0382  0.0658 -0.3116
10168W        W25637  13.828   2.074   4.644 -0.2861  0.1744  0.0649
10169W        W25638  17.368   9.880  13.971 -0.0914  0.0034 -0.0235
10170W        W25639   8.162   0.727   3.128  0.3474 -0.0614 -0.5238
10171W        W25640   9.933   7.972  13.868 -0.1135 -0.1400 -0.2629
10172W        W25641  10.115   6.193  11.820  0.0728  0.0244 -0.1693
10173W        W25642  15.011  16.937  11.782 -0.0925  0.0511 -0.2225
10174W        W25643  13.688   0.396  14.702 -0.0996  0.2440 -0.0429
10175W        W25644   2.749  16.300  12.181 -0.0795 -0.0912  0.1446
10176W        W25645   4.869   6.107  13.449  0.1724  0.1229  0.0124
10177W        W25646   3.068  11.040  12.997  0.1520 -0.1339 -0.0169
10178W        W25647   5.038  11.939  13.904  0.0030  0.0358 -0.1187
10179W        W25648   1.136   2.583  13.841  0.4532 -0.0871  0.1899
10180W        W25649   4.047   2.690   1.153 -0.1448 -0.0374 -0.2411
10181W        W25650   0.081   6.333   0.215  0.1616 -0.2182 -0.1705
10182W        W25651   6.946   9.433   3.370 -0.4389  0.0895  0.1155
10183W        W25652   9.616   6.152   2.907  0.0348 -0.0925  0.1563
10184W        W25653  16.453   7.581   1.615  0.0424 -0.1368  0.5077
10185W        W25654   0.180   2.819   1.319  0.0140 -0.2774 -0.3229
10186W        W25655  17.778   7.129  14.914 -0.1515  0.3602 -0.0568
10187W        W25656  15.372  12.601  11.918 -0.0970  0.0504 -0.3826
10188W        W25657  14.317  14.754   3.523  0.0875  0.0674 -0.0670
10189W        W25658  12.335  12.011  16.537 -0.1909  0.0057 -0.1886
10190W        W25659  11.270   6.302  14.828 -0.0783 -0.0295  0.2352
10191W        W25660   9.638   0.914  13.713 -0.0530 -0.1560  0.0340
10192W        W25661   9.248   5.422  12.993 -0.1882  0.1157  0.1669
10193W        W25662   4.873   9.820   1.287  0.2783  0.1423 -0.1165
10194W        W25663   6.754   0.334   3.443 -0.0119  0.1217  0.0824
10195W        W25664   3.883  15.775   3.076  0.0913  0.2107 -0.1935
10196W        W25665  13.277  12.286  15.751  0.2125 -0.1296 -0.1858
10197W        W25666  11.251  13.191   3.285 -0.2521  0.2523 -0.0085
10198W        W25667  11.977   4.085   2.862  0.1369 -0.1077  0.4346
10199W        W25668  12.974   6.364  15.383 -0.2229  0.0219  0.1137
10200W        W25669   3.065   9.721   2.599  0.1236 -0.1616 -0.0371
10201W        W25670  12.201  10.109  15.045 -0.0768  0.1635 -0.1995
10202W        W25671   7.413   8.109   5.727 -0.3133  0.2291  0.0093
10203W        W25672  17.149   8.491  16.752  0.1174 -0.3790 -0.0380
10204W        W25673  10.070  17.174   3.246  0.1729 -0.3597 -0.1211
10205W        W25674  10.142   3.415   2.472  0.1754  0.0352  0.1058
10206W        W25675   7.430   0.333   5.679  0.0688  0.3434  0.0889
10207W        W25676   7.356   5.697   2.510 -0.0815 -0.0306 -0.0184
10208W        W25677  17.430   1.257   1.087  0.0968  0.0432 -0.2558
10209W        W25678  16.167  15.139  12.254 -0.1285 -0.1270  0.0957
10210W        W25679   2.089   9.917  13.930  0.0174  0.1281  0.2185
10211W        W25680   2.984  10.833  16.103  0.1275 -0.0150  0.2727
10212W        W25681   1.153  10.722  10.895 -0.0985  0.0627  0.2371
10213W        W25682  14.230   7.904   3.838 -0.1595  0.0007 -0.0959
10214W        W25683  17.047   4.366   4.699  0.2006  0.0545 -0.0495
10215W        W25684  16.098  12.086   3.932 -0.2514  0.0107  0.0338
10216W        W25685  14.624  12.435  16.223  0.1397 -0.0809  0.2596
10217W        W25686   2.012   9.174   2.608  0.0623 -0.0510 -0.0787
10218W        W25687  11.029  16.313  15.389  0.0395 -0.0679  0.1133
10219W        W25688  15.395   3.909   3.299 -0.0773 -0.1544  0.1063
10220W        W25689   2.032  15.390  12.676  0.4213 -0.1779  0.0016
10221W        W25690  12.439   5.440   5.916 -0.2535 -0.1966 -0.0099
10222W        W25691   5.650   9.018   3.293 -0.0542 -0.0866 -0.1186
10223W        W25692   0.823   0.897   3.509  0.2795  0.0077 -0.2209
10224W        W25693  16.294  12.890   5.653 -0.0896 -0.2065  0.0154
10225W        W25694   3.690   0.443   1.395 -0.2250 -0.0991  0.1760
10226W        W25695  11.501   4.269   3.888 -0.0094 -0.0551  0.0114
10227W        W25696   8.169   1.455  15.855 -0.0969 -0.0319  0.3247
10228W        W25697   7.425  13.238   4.634 -0.1478 -0.0341 -0.1140
10229W        W25698   2.307  16.433   3.737 -0.0713 -0.0445  0.1663
10230W        W25699   3.050   9.025   5.416 -0.0024 -0.0963  0.0701
10231W        W25700   2.519  15.855  13.803  0.1184 -0.1092 -0.0557
10232W        W25701   8.119   1.716   3.376  0.0107 -0.2572  0.1008
10233W        W25702   7.078   4.228   5.273  0.0008  0.0083 -0.1106
10234W        W25703  12.667   7.695  16.310 -0.1466  0.2470  0.2025
10235W        W25704   1.672   6.045   5.541 -0.0220  0.0896 -0.1229
10236W        W25705  13.333  15.364   2.744  0.3269 -0.1998  0.2507
10237W        W25706   3.337  10.113  16.447  0.0272  0.0555  0.2098
10238W        W25707   5.187  12.016   4.445 -0.0844  0.1441  0.0971
10239W        W25708   6.767  12.547   2.726  0.1192 -0.3001 -0.0184
10240W        W25709  14.640  10.538  16.292 -0.1208 -0.0337 -0.1502
10241W        W25710  15.189   1.708  13.326 -0.1642 -0.0470 -0.1081
10242W        W25711   7.372   2.134   0.735 -0.1110  0.0504  0.0854
10243W        W25712   6.874  11.140   2.320  0.1560  0.1749 -0.3603
10244W        W25713  11.627   2.153   1.504 -0.1885  0.0328  0.1023
10245W        W25714   8.775  10.108  15.636  0.2595  0.1672 -0.2147
10246W        W25715  13.977  15.092  14.383  0.2121  0.0553  0.1758
10247W        W25716   6.287   6.074   5.285 -0.2161  0.1098  0.2465
10248W        W25717   4.325   3.958   1.138 -0.1641  0.1391  0.0163
10249W        W25718   9.555   0.265  11.103 -0.2770 -0.2264  0.2296
10250W        W25719   2.526   7.819  13.264 -0.2588  0.0654 -0.1537
10251W        W25720   7.096  11.740   2.533 -0.0158  0.1258 -0.2197
10252W        W25721   3.314  14.292   5.766  0.0291  0.0632  0.1695
10253W        W25722   3.278   7.797   2.567  0.0585  0.0065  0.0642
10254W        W25723   2.794   0.471   2.235 -0.1816  0.0179  0.2686
10255W        W25724  11.545   1.448  16.161  0.1784  0.0855 -0.0029
10256W        W25725   4.855   5.294  11.758 -0.1775 -0.0518  0.2411
10257W        W25726   8.700   6.483   2.635 -0.1978 -0.3585 -0.1246
10258W        W25727   3.410  16.623   4.766 -0.1637  0.3967  0.0566
10259W        W25728  15.259  12.904  15.466  0.3571 -0.0843 -0.0749
10260W        W25729  13.871   6.297  12.114 -0.0088 -0.0545  0.0942
10261W        W25730  17.127  13.332   1.990  0.5068 -0.0933  0.0968
10262W        W25731   3.891  10.126  11.866  0.0678 -0.0250 -0.0303
10263W        W25732   6.011   7.316  15.561  0.1087  0.0798 -0.0441
10264W        W25733  16.416  16.048   3.524 -0.3985  0.0638  0.1529
10265W        W25734   3.394  14.695   4.931  0.2594 -0.0240  0.1189
10266W        W25735   7.264  14.139  16.649  0.0860  0.2945 -0.0869
10267W        W25736  17.564   6.341   2.019  0.1146  0.2941 -0.1309
10268W        W25737  15.596   1.926  11.577 -0.0214 -0.2527 -0.1239
10269W        W25738   1.318  15.338   3.683  0.0544  0.2620 -0.0689
10270W        W25739   1.499   6.105  16.447 -0.2207  0.2917  0.0014
10271W        W25740  16.810  14.286  12.790 -0.1213  0.1437  0.1952
10272W        W25741   6.914   4.135   0.510  0.0553  0.1135  0.1428
10273W        W25742   6.648   7.137   2.031  0.1537  0.0354  0.1926
10274W        W25743  15.425  16.159   0.649 -0.1013  0.0026 -0.2530
10275W        W25744   0.903   3.152  11.198 -0.0382  0.2485  0.1966
10276W        W25745  16.496   3.398  14.609  0.0629 -0.0214  0.2280
10277W        W25746  13.775  17.768   3.403 -0.1063  0.0589 -0.0733
10278W        W25747  10.931   0.927   4.176  0.1677 -0.0586  0.2764
10279W        W25748   6.242  15.266   3.475 -0.2596  0.1418  0.1103
10280W        W25749   6.510   9.912   5.413 -0.4197 -0.1288 -0.0829
10281W        W25750   3.154  13.558   2.987  0.0241 -0.2213 -0.1733
10282W        W25751  17.636   8.489   2.912  0.2372 -0.2739  0.0002
10283W        W25752   2.663   4.713   0.802  0.1691  0.1146  0.2833
10284W        W25753   2.262   3.508  11.005  0.1191  0.0249  0.4209
10285W        W25754  10.133   7.994   0.061  0.0547  0.0513  0.1315
10286W        W25755   4.784  10.876   4.365 -0.1060  0.0250 -0.0806
10287W        W25756   9.923  10.665   3.458  0.2416  0.1866  0.1381
10288W        W25757  13.535   1.708   5.234 -0.1472  0.0122 -0.0974
10289W        W25758  15.052  15.489  16.361  0.2114 -0.0500  0.1132
10290W        W25759   3.501   2.885  13.559 -0.0864  0.1702  0.2876
10291W        W25760   8.801  11.062  14.696  0.2723  0.0665  0.0627
10292W        W25761   9.914  17.686  11.896  0.3056 -0.2303 -0.0578
10293W        W25762  16.028   3.820  14.786  0.0648 -0.2736 -0.0332
10294W        W25763  13.988   5.576   4.323  0.2508  0.1791  0.2979
10295W        W25764   5.438  12.981  13.036 -0.2336  0.1251 -0.0202
10296W        W25765   5.998   6.188   4.316  0.2347  0.1132  0.3575
10297W        W25766   1.003  17.202  13.123 -0.3642 -0.1890 -0.0156
10298W        W25767   5.605   4.610  13.059  0.0478 -0.2053  0.1379
10299W        W25768  16.396   4.473  16.295 -0.0210  0.1222 -0.2995
10300W        W25769   6.733  17.314  12.250  0.2364 -0.1738 -0.3251
10301W        W25770   5.280  14.609   1.222  0.0555  0.1949  0.4654
10302W        W25771  17.085  10.163  11.534  0.3103  0.1581  0.0759
10303W        W25772   3.327  13.740  11.430  0.3347  0.4028 -0.0568
10304W        W25773   9.976   6.357  15.624  0.1513  0.0171 -0.2068
10305W        W25774   9.341   3.752   2.074 -0.0474 -0.1410 -0.2682
10306W        W25775  17.727   4.455  13.733 -0.3949  0.0016 -0.0755
10307W        W25776  15.388   9.389   1.299  0.0575 -0.0111  0.1498
10308W        W25777   5.832  14.230   3.025  0.0333 -0.1970 -0.0783
10309W        W25778   3.485  17.670  14.640  0.0262  0.1110  0.1409
10310W        W25779   6.127   0.148   0.674 -0.0995  0.0763  0.2408
10311W        W25780  13.499   9.201  13.245 -0.2604  0.2046 -0.0315
10312W        W25781  14.422   7.091  15.295 -0.1471  0.0170 -0.1278
10313W        W25782  14.113   9.467  14.615  0.0052  0.1620 -0.4186
10314W        W25783   0.182   1.047  15.431  0.3697  0.3124  0.0332
10315W        W25784  11.457   7.570   0.226  0.0534 -0.0694 -0.3657
10316W        W25785   4.382   8.557   5.307 -0.1857 -0.2033 -0.1537
10317W        W25786   7.694  12.470  13.191  0.1884  0.0852 -0.1046
10318W        W25787   7.835   9.030   3.641 -0.0441  0.1840  0.3330
10319W        W25788   6.576   6.970   4.454 -0.1148  0.3015  0.0951
10320W        W25789  13.063  10.966   2.712  0.1653  0.1260 -0.2443
10321W        W25790   7.089   4.413   5.731 -0.2085 -0.1807 -0.2371
10322W        W25791  12.410   3.545   1.772 -0.1214 -0.1529  0.2969
10323W        W25792  16.604  16.858  15.716  0.2032 -0.0854  0.0240
10324W        W25793   9.112  16.899   6.223 -0.3310 -0.2010  0.0626
10325W        W25794  16.069   9.091   0.919 -0.1745 -0.0625  0.1175
10326W        W25795  11.637   5.019   0.970  0.1562 -0.5000  0.1299
10327W        W25796  17.498  15.007  16.460  0.2683 -0.3647 -0.1115
10328W        W25797  13.051  16.367  14.351  0.0483  0.2992  0.0369
10329W        W25798  12.393  11.983  13.487 -0.2280  0.0132  0.0153
10330W        W25799   3.017   5.147   4.167  0.0208 -0.1729  0.0208
10331W        W25800   0.777   4.698   3.110 -0.0177  0.3667  0.1170
10332W        W25801   6.255   8.783   3.789  0.3824 -0.1156  0.3425
10333W        W25802  10.973  12.917  12.416 -0.2123 -0.0756  0.1376
10334W        W25803   1.654   6.591  16.316  0.0984 -0.1148 -0.1507
10335W        W25804   5.713   4.246   1.139 -0.2294  0.1404  0.1725
10336W        W25805   7.350  15.337  13.323 -0.1991  0.0368  0.1187
10337W        W25806   7.167   3.310   0.356 -0.0724  0.0621  0.2453
10338W        W25807   5.819  15.510   3.413  0.1377  0.4419  0.0540
10339W        W25808  16.601  14.689  15.532 -0.2681  0.3130  0.0008
10340W        W25809  16.262  15.006   1.023  0.1039 -0.1374 -0.0507
10341W        W25810   6.720   4.037   3.062 -0.2650 -0.1734  0.0703
10342W        W25811  11.680   3.307  14.159 -0.1083 -0.3448 -0.0603
10343W        W25812  11.940   8.832  15.035  0.0942 -0.2379  0.0831
10344W        W25813   8.195  15.875   4.626 -0.4217 -0.0158 -0.1064
10345W        W25814   0.434  10.606   4.094  0.1335 -0.2173 -0.3062
10346W        W25815   1.330  14.819   3.633 -0.6109 -0.1623 -0.1839
10347W        W25816   4.682   9.240   3.632  0.0279  0.1773  0.1686
10348W        W25817   2.816   7.021   0.158 -0.0375 -0.0131 -0.1119
10349W        W25818  11.729  10.100  11.862  0.2053  0.2115  0.0220
10350W        W25819  11.381  16.447  14.399 -0.3371 -0.0307 -0.0249
10351W        W25820   2.233  16.698   3.106 -0.1002  0.0568 -0.0024
10352W        W25821  11.640   6.484  12.010 -0.0318  0.1574  0.3690
10353W        W25822   6.903  17.263  16.008 -0.2738  0.2231 -0.2682
10354W        W25823  10.068   3.541   5.009 -0.1303  0.2058  0.1516
10355W        W25824  12.632  10.989   1.839  0.0253 -0.5190  0.0311
10356W        W25825   6.604  15.619   3.771 -0.3662 -0.0603  0.3933
10357W        W25826   4.615   2.179  12.869 -0.0765  0.1374  0.2522
10358W        W25827   9.802   1.381   1.861 -0.2824 -0.1342  0.0418
10359W        W25828  15.477   3.439   3.211 -0.1088 -0.1169  0.2790
10360W        W25829   9.468  11.234   5.343 -0.1171 -0.2498 -0.1048
10361W        W25830   8.592  14.434   1.783  0.0071 -0.0074 -0.2105
10362W        W25831  13.159  11.763  16.132 -0.1233  0.1053 -0.0829
10363W        W25832  14.846  16.233   2.395  0.1050  0.3406 -0.0897
10364W        W25833   0.393  15.531   2.074  0.0461 -0.1526  0.0576
10365W        W25834  12.873  13.309   0.778  0.1572  0.1250 -0.0898
10366W        W25835  14.708   3.162   1.069  0.0361 -0.1863  0.1099
10367W        W25836  15.275  12.621   3.775  0.5314  0.3080  0.0642
10368W        W25837  16.141  16.382   5.404 -0.1028  0.0964 -0.1053
10369W        W25838  15.426   2.913   4.967  0.2523 -0.1548 -0.2379
10370W        W25839   6.720  16.000  12.990 -0.2134 -0.1118 -0.0108
10371W        W25840   7.744  15.161  13.050 -0.1053  0.1210  0.2354
10372W        W25841   6.757   3.864   6.315 -0.0600 -0.1103  0.0641
10373W        W25842  16.137   0.684   1.708 -0.0481 -0.0674 -0.1969
10374W        W25843   6.387   9.626  12.071  0.1070  0.0992  0.1252
10375W        W25844  17.718   0.320   4.259 -0.0459 -0.3074  0.3105
10376W        W25845  17.450   0.270   3.815  0.2034  0.1187  0.0367
10377W        W25846   8.474  13.072   0.440 -0.1229 -0.1462 -0.0405
10378W        W25847   1.599   6.200  12.746  0.1656  0.0498 -0.0424
10379W        W25848  16.620   2.144  10.883 -0.1105  0.0096 -0.2540
10380W        W25849   2.288  11.212   2.881  0.1064 -0.3984 -0.1520
10381W        W25850  17.066   9.677  14.779 -0.0419  0.0417 -0.0845
10382W        W25851  16.913  16.443  16.267  0.0428  0.1243  0.2497
10383W        W25852  16.412   5.624  14.279 -0.1265  0.1438 -0.1063
10384W        W25853  15.228  14.973   4.703  0.0682 -0.0362 -0.1033
10385W        W25854  11.873   4.232   5.999 -0.0275  0.0500  0.0680
10386W        W25855  13.178   4.451  13.352  0.0032  0.0920 -0.0482
10387W        W25856  15.288  15.082  15.399 -0.0258  0.2513 -0.0298
10388W        W25857  17.549  15.378   2.600 -0.1560  0.0032  0.2053
10389W        W25858   9.180   9.021   6.131 -0.3569 -0.2026 -0.1825
10390W        W25859   3.310  16.251  15.750 -0.0359 -0.0403 -0.0888
10391W        W25860   1.982  13.840  14.258 -0.1913  0.2359 -0.1534
10392W        W25861  13.478   5.725   4.095  0.1506 -0.2127  0.0030
10393W        W25862  10.371   4.647  12.615  0.0292 -0.0070  0.4033
10394W        W25863   6.514  16.981   0.698  0.0846 -0.0650  0.1216
10395W        W25864   7.506   6.417  16.073  0.2567 -0.0872 -0.2158
10396W        W25865   7.963  11.335   5.438  0.1096  0.1031 -0.0707
10397W        W25866   8.529   1.386   2.568  0.1393  0.0016  0.2811
10398W        W25867   6.976   1.238  16.081 -0.1592 -0.0622  0.2030
10399W        W25868  12.313  13.216   2.211  0.1917  0.1064 -0.1148
10400W        W25869   5.024   9.444  13.352 -0.1105  0.1369 -0.2000
10401W        W25870   8.764   3.093  13.150  0.1287 -0.1235  0.0303
10402W        W25871  11.057   1.789   6.224  0.0501 -0.3061  0.1051
10403W        W25872   2.484  12.542   4.290  0.0442 -0.0407 -0.0675
10404W        W25873  16.525   9.976  13.660  0.0372 -0.2058 -0.3061
10405W        W25874  14.716   7.766   0.850  0.0221  0.1808 -0.1712
10406W        W25875   9.104   9.515   4.930  0.2239 -0.1960  0.1712
10407W        W25876  14.258   5.481   0.084 -0.2208  0.1644 -0.1491
10408W        W25877  16.027  15.744   0.047  0.1330  0.2376  0.0366
10409W        W25878   2.404   1.877  12.546 -0.0933  0.1785  0.0555
10410W        W25879  13.405   2.790  14.355  0.0184 -0.0507  0.2141
10411W        W25880  13.686   7.828  12.079  0.0163 -0.0996 -0.1750
10412W        W25881   4.229   9.745   4.689  0.0129  0.2138  0.2092
10413W        W25882  11.804  12.631  12.691 -0.0700 -0.0956  0.1228
10414W        W25883   9.824  11.310   2.946 -0.1408  0.1685  0.0816
10415W        W25884  12.564  12.849  13.403 -0.0318 -0.3552  0.0116
10416W        W25885   2.152   3.585   3.046 -0.0840  0.3870  0.1865
10417W        W25886  16.439  12.787  12.892  0.0802 -0.2188 -0.4897
10418W        W25887   8.514  10.724   4.593  0.1798  0.0187  0.0513
10419W        W25888   0.649   0.225  12.533  0.0399  0.2216 -0.6289
10420W        W25889  17.237   9.823  16.181  0.2054 -0.1363 -0.1804
10421W        W25890   1.165  16.466  11.613  0.0063 -0.2090 -0.0068
10422W        W25891   1.598  17.421   0.039  0.2466 -0.1397 -0.0569
10423W        W25892   3.535  13.306  14.083  0.0033  0.0822  0.0668
10424W        W25893  13.169  11.853   3.300  0.0539 -0.1780 -0.0782
10425W        W25894  14.659   1.955  14.623 -0.0979  0.0235  0.3317
10426W        W25895   7.575   2.675  12.388  0.1411  0.0459  0.1182
10427W        W25896   3.966   1.408   2.688  0.0959  0.0493 -0.0858
10428W        W25897   0.913   7.296  13.015 -0.1460 -0.2138 -0.1064
10429W        W25898   8.550  10.639  14.681  0.1055  0.0964 -0.0329
10430W        W25899  13.667   8.024  16.204  0.0752 -0.3046 -0.1651
10431W        W25900   3.239   6.360  12.219 -0.0828  0.0643 -0.2333
10432W        W25901   0.152   5.606   5.159  0.2916 -0.0504 -0.2844
10433W        W25902  14.106  16.085   4.453 -0.2567 -0.3098  0.0894
10434W        W25903   8.154   7.093   5.753  0.1084  0.1360 -0.1953
10435W        W25904   9.300   4.509  15.486 -0.1234  0.1481 -0.2354
10436W        W25905  11.221   7.159  14.136  0.1245  0.0638 -0.1978
10437W        W25906  15.565   8.810   1.805 -0.2148 -0.0119  0.0718
10438W        W25907   3.692   0.962  10.359 -0.0500 -0.1319 -0.2363
10439W        W25908  13.442  16.768   5.380  0.1206  0.1089  0.2206
10440W        W25909  12.105  14.280   5.233  0.2988  0.0795 -0.2612
10441W        W25910   0.888  17.633   0.539  0.0233  0.1342 -0.0613
10442W        W25911   7.402  16.964   5.861  0.3929 -0.2476 -0.1586
10443W        W25912  15.606  16.163   2.893 -0.0189  0.0816  0.0310
10444W        W25913   1.446  14.558   2.440 -0.0236 -0.1134  0.1256
10445W        W25914  10.727   3.520  15.497 -0.1076 -0.1596 -0.1224
10446W        W25915  13.275   8.644   3.499  0.2140 -0.0113  0.0542
10447W        W25916   4.800   5.735  16.301 -0.3145 -0.0872  0.0134
10448W        W25917   5.453  12.027  15.141  0.0616  0.1053  0.1366
10449W        W25918   3.469  17.242  16.230  0.1329  0.3944 -0.0931
10450W        W25919  14.023   3.077  15.402  0.1717  0.0876 -0.0206
10451W        W25920   8.971   1.171   4.044  0.0451  0.1512 -0.0273
10452W        W25921  10.146  13.231  12.316 -0.0446  0.2111 -0.0524
10453W        W25922   2.404  16.471  15.284  0.1460 -0.0478 -0.0149
10454W        W25923   3.651   1.351  12.491 -0.1388  0.3598  0.1210
10455W        W25924   2.639  16.893  14.064 -0.0070  0.1584  0.0865
10456W        W25925   7.764   4.889   5.427  0.2293  0.2377  0.0417
10457W        W25926  11.894   1.923   2.767 -0.0312  0.0474 -0.1002
10458W        W25927   6.383  14.813  15.658  0.2320  0.3691 -0.2655
10459W        W25928   2.883  14.055   5.642 -0.0673  0.0285 -0.0159
10460W        W25929  15.911   3.736   3.245  0.2589  0.0709 -0.3731
10461W        W25930  16.044   1.660   1.344  0.1616  0.1253  0.0199
10462W        W25931  16.201   2.791  13.673  0.1066  0.0496 -0.1947
10463W        W25932  10.248  13.803  16.329  0.0555 -0.0187 -0.2804
10464W        W25933  10.913   2.238   2.284  0.0531  0.0688  0.1469
10465W        W25934   8.526  15.300   5.888  0.1229 -0.2276 -0.0241
10466W        W25935   2.009   1.240  12.938  0.1245  0.1852  0.0777
10467W        W25936   9.623   7.955  14.309  0.0407  0.0081 -0.2783
10468W        W25937   4.365  15.832   3.152 -0.1117 -0.1559  0.0959
10469W        W25938  16.231   0.547  14.458 -0.0829 -0.1950 -0.0871
10470W        W25939   3.508  14.511   3.309 -0.0489  0.1118 -0.1760
10471W        W25940  13.074  15.860  15.080  0.1752 -0.0904  0.4034
10472W        W25941   5.698  14.678  14.574 -0.0681 -0.0559  0.1993
10473W        W25942   3.368   6.822   2.078  0.0323 -0.0698 -0.2833
10474W        W25943   8.404   8.140   4.197  0.3285  0.2569 -0.1519
10475W        W25944  15.596   7.523  13.699  0.0267  0.0926  0.1117
10476W        W25945   8.330  11.611   1.320  0.4656 -0.0717  0.1039
10477W        W25946   7.101   9.253   5.643  0.0104  0.0706  0.0470
10478W        W25947   5.410   2.551   2.762 -0.2520  0.1029  0.0656
10479W        W25948  13.803   4.431   4.182  0.0564  0.2916 -0.0384
10480W        W25949   3.612  13.273  12.199  0.1331 -0.1442 -0.0856
10481W        W25950  17.269   7.591   4.940  0.0262 -0.3533  0.0608
10482W        W25951  14.160  13.360   2.527  0.2240 -0.1311  0.2076
10483W        W25952   0.446  13.897  16.482  0.1777  0.1327 -0.1537
10484W        W25953   6.046  11.635   0.143 -0.2924 -0.0638 -0.2674
10485W        W25954   0.353  15.469   4.002  0.0218  0.3315  0.0081
10486W        W25955  17.638   6.991  14.139 -0.0826  0.1888  0.1188
10487W        W25956   6.839  16.138   2.585 -0.0138 -0.1422  0.2414
10488W        W25957  10.412   5.442  14.797 -0.1101 -0.1260 -0.1522
10489W        W25958  16.360   0.723  16.843  0.1687 -0.1121  0.0963
10490W        W25959   2.204   6.451  14.335 -0.0546 -0.0338  0.2383
10491W        W25960  17.170   0.043   2.228 -0.1846  0.1106 -0.1963
10492W        W25961  17.306  14.549   3.857  0.3133  0.3733  0.2897
10493W        W25962  17.351  10.372   3.930  0.2702 -0.0388  0.0831
10494W        W25963   0.767   4.448  15.912 -0.2090  0.2387 -0.0438
10495W        W25964   9.053   5.443  14.472  0.1376 -0.2281  0.1104
10496W        W25965  12.211   9.121  14.690 -0.0210 -0.0599  0.0021
10497W        W25966   0.097   2.164  14.527 -0.0410  0.1318 -0.2569
10498W        W25967   3.178   1.107   4.400 -0.0087  0.0949  0.1488
10499W        W25968  13.890  10.256  15.691  0.0818  0.2708  0.1303
10500W        W25969   6.391  10.537   5.115  0.0457 -0.1022 -0.0028
10501W        W25970  15.064  12.370   1.708  0.2059  0.2319 -0.1580
10502W        W25971   2.806   1.491  13.362  0.2933 -0.0636  0.3154
10503W        W25972  10.528   4.734  13.967  0.0616 -0.2426 -0.1617
10504W        W25973   9.880   2.117   5.812 -0.1463  0.5358 -0.0477
10505W        W25974   1.155  14.447   3.161  0.1046  0.2229  0.1288
10506W        W25975  12.885   9.729  13.886 -0.0432  0.2697 -0.1546
10507W        W25976  14.082   0.925  13.623 -0.1175 -0.1267 -0.1415
10508W        W25977   2.788  14.105  15.386 -0.1605 -0.3663  0.0786
10509W        W25978  14.335  14.860  15.768  0.0132  0.0350 -0.1764
10510W        W25979   0.495   5.281  13.575  0.1922 -0.1195 -0.1204
10511W        W25980  12.288   0.619   5.606  0.0363 -0.0822 -0.0708
10512W        W25981   7.922   1.117  15.558  0.0570  0.0657 -0.0008
10513W        W25982   3.292   3.692   1.469 -0.2488 -0.0724 -0.1312
10514W        W25983   6.065  12.024  16.583  0.0209  0.0773  0.0932
10515W        W25984  13.390   4.237   2.355 -0.1934  0.2036 -0.0241
10516W        W25985  11.718   5.216   1.410 -0.0237 -0.1536 -0.1310
10517W        W25986   9.304   1.997   1.117  0.2353  0.0359  0.1768
10518W        W25987  12.139   1.769   1.091  0.0002  0.2034 -0.0622
10519W        W25988  11.529   4.528  13.925  0.1881  0.1141  0.0929
10520W        W25989  14.818   1.292   1.259 -0.1840  0.0642  0.2217
10521W        W25990   8.108   8.596   1.846  0.1646  0.0403  0.0492
10522W        W25991   6.863   1.304   0.539  0.0021  0.3017  0.2452
10523W        W25992  11.992   6.748  16.435 -0.0969  0.0609  0.0871
10524W        W25993  16.431   4.037  16.009  0.0273  0.1126 -0.0361
10525W        W25994   5.394   7.684  13.061  0.1776 -0.0106  0.0331
10526W        W25995   9.420   6.651  13.909 -0.2015 -0.0594  0.0271
10527W        W25996  10.891   0.365   3.269  0.4157 -0.1663  0.1736
10528W        W25997   0.759   6.231  13.931  0.4375  0.1788  0.2914
10529W        W25998  16.353  10.966  13.969  0.0816 -0.1172  0.1106
10530W        W25999   2.789   8.228   4.373 -0.1479 -0.3038  0.1467
10531W        W26000   6.475   2.075  15.731 -0.2461  0.1130  0.0334
10532W        W26001  11.212   2.215  12.588 -0.2104 -0.0063 -0.1698
10533W        W26002  11.549  10.952  13.626  0.0483 -0.0496 -0.0054
10534W        W26003  10.540   2.971  13.692  0.0677 -0.2639  0.2229
10535W        W26004   1.653  13.185  13.118 -0.0079  0.2302 -0.1371
10536W        W26005   7.528   7.331  12.104 -0.0528  0.1266  0.2611
10537W        W26006   5.031   6.921  13.899  0.3677  0.0321  0.0974
10538W        W26007   7.177   1.563  11.102  0.1823  0.3518  0.4092
10539W        W26008   1.306  16.166  13.656 -0.2547  0.2148 -0.1812
10540W        W26009  15.485  10.617   5.686 -0.1778 -0.1225  0.1875
10541W        W26010  11.964  16.159   0.146 -0.0580 -0.0632  0.0716
10542W        W26011   2.099   2.131   0.291 -0.1504  0.1130  0.0589
10543W        W26012  15.586   5.507  12.386  0.0142  0.1130  0.0604
10544W        W26013  16.526   7.102   5.839  0.1255 -0.2354 -0.2054
10545W        W26014   2.637  17.038  15.885  0.0497  0.0443 -0.0510
10546W        W26015   0.208  17.485   2.611 -0.0060 -0.2569 -0.0221
10547W        W26016   0.581   7.753   0.955  0.2496 -0.0432  0.2214
10548W        W26017  13.677   6.895   5.668  0.1119  0.0278  0.0898
10549W        W26018   8.286   6.316   1.367 -0.1509  0.1763 -0.0807
10550W        W26019   6.543   2.785   0.867 -0.2278 -0.1980 -0.2773
10551W        W26020  16.859  14.991  14.847 -0.0850 -0.1622 -0.3222
10552W        W26021   2.569   8.149  14.711  0.1502 -0.3809 -0.0362
10553W        W26022  11.512  12.850   2.285 -0.3242 -0.2985 -0.1492
10554W        W26023  12.769   1.756   2.355 -0.0105 -0.0978  0.3173
10555W        W26024  12.702  13.208   5.161 -0.5302 -0.1625 -0.1283
10556W        W26025  13.311   4.959  14.606  0.0673 -0.1726 -0.1718
10557W        W26026   7.101   0.812  14.467  0.0424 -0.1984 -0.2677
10558W        W26027  12.353  17.304   0.965  0.1116 -0.0059 -0.0953
10559W        W26028   7.749   4.065   3.231  0.1294 -0.1954 -0.1889
10560W        W26029  11.721  16.868  15.574 -0.0409  0.1081 -0.1734
10561W        W26030  17.610  10.060  14.966  0.1322  0.1592  0.0254
10562W        W26031  12.153   2.548   4.768 -0.3275  0.1202 -0.1552
10563W        W26032   8.372   3.617   2.915  0.0717  0.2240  0.0843
10564W        W26033  14.740   1.850  16.029  0.0728 -0.0053  0.1673
10565W        W26034   5.022   8.119   5.361 -0.0009  0.0475 -0.0340
10566W        W26035  15.187   6.978   2.511  0.1123  0.0623 -0.2704
10567W        W26036   9.124  12.418  14.657  0.2328 -0.0061  0.2048
10568W        W26037  16.142   7.651  11.684 -0.0565  0.1376  0.0324
10569W        W26038   8.208   6.747  13.162  0.1217 -0.0749  0.0299
10570W        W26039   6.971   4.274   3.418 -0.0313 -0.1617 -0.0376
10571W        W26040   0.838  13.131  11.740  0.0367 -0.1859  0.1285
10572W        W26041   3.928   0.101   3.115 -0.0245  0.3572 -0.0181
10573W        W26042  17.312   8.903  15.279 -0.1614  0.2144  0.2387
10574W        W26043   7.900  10.714   0.238  0.1393  0.2491  0.1966
10575W        W26044  12.050  13.150  14.115 -0.0146  0.1431  0.1043
10576W        W26045   4.525  10.370  13.612  0.1814 -0.0289  0.3523
10577W        W26046  13.854   8.788  15.606  0.0705 -0.0291 -0.1395
10578W        W26047  14.154  17.357  16.236 -0.0756 -0.0845 -0.1405
10579W        W26048  15.293   9.027   0.108 -0.0071 -0.0643  0.0878
10580W        W26049   8.204  12.231  14.714  0.3066 -0.2033  0.2384
10581W        W26050  12.799   8.739  12.208 -0.1156  0.1046 -0.1238
10582W        W26051  13.730   8.941   4.710  0.4332 -0.3044  0.2236
10583W        W26052   3.512   5.058   2.555  0.0101  0.1473 -0.1947
10584W        W26053  11.871  14.344   6.008 -0.1583 -0.3530  0.0237
10585W        W26054  11.085  14.939  11.751  0.1767  0.0365 -0.1505
10586W        W26055   2.012   5.559  11.337  0.0876  0.1936  0.1216
10587W        W26056   6.695  16.571   4.451 -0.1167 -0.2890 -0.1173
10588W        W26057   3.022  10.812   5.388  0.0931 -0.2317 -0.3472
10589W        W26058   9.174  14.179  13.776 -0.1022  0.0151 -0.0680
10590W        W26059   1.061   8.113   4.109 -0.0964 -0.3871 -0.0929
10591W        W26060   5.769   8.043   1.883  0.1073 -0.3469 -0.1247
10592W        W26061  10.979   5.260  11.981 -0.0394 -0.1303  0.0064
10593W        W26062   6.884   7.905   5.351  0.1213  0.1037 -0.2166
10594W        W26063  15.437   8.256   0.780 -0.1003 -0.0480 -0.1555
10595W        W26064   7.247   1.011  13.552  0.2582 -0.2114 -0.3220
10596W        W26065  12.188  14.103  12.267 -0.2174  0.1757  0.1236
10597W        W26066   4.651   7.594  14.909  0.2807 -0.2410  0.3711
10598W        W26067   3.847   2.939  15.918  0.0408  0.0685 -0.2871
10599W        W26068  11.178   1.519   0.262  0.0296  0.0915 -0.0752
10600W        W26069   5.786   2.835  16.566  0.1276 -0.2696 -0.2766
10601W        W26070  13.336   1.689   1.907  0.1040 -0.0595 -0.3794
10602W        W26071   3.530  15.406   2.162 -0.1125 -0.2909  0.1918
10603W        W26072   3.127   2.975   0.590 -0.6199  0.0490 -0.3950
10604W        W26073   1.873  10.833  14.167 -0.0588  0.1106  0.2565
10605W        W26074  14.311   1.706  13.755  0.2834  0.1020 -0.0510
10606W        W26075   0.531   9.286   0.622 -0.1743 -0.3036  0.0606
10607W        W26076  12.687   2.702   2.788 -0.0564 -0.0796  0.0523
10608W        W26077   4.950  16.327  12.936 -0.0127  0.4595 -0.3666
10609W        W26078   8.957  13.588  16.194  0.1493  0.1131 -0.1346
10610W        W26079  15.146   7.688   2.548  0.3921 -0.1061  0.0314
10611W        W26080  10.263   8.384  13.980 -0.0649 -0.3590  0.0090
10612W        W26081   4.721   3.021  12.656  0.0792 -0.1769  0.2389
10613W        W26082  10.915  14.827   6.621 -0.0511 -0.1945 -0.0012
10614W        W26083   0.775  16.975   0.012 -0.0449 -0.0186 -0.2130
10615W        W26084   1.760  11.279   1.309  0.0002 -0.0764  0.0712
10616W        W26085  11.168  10.264   5.989 -0.0492 -0.1533  0.2722
10617W        W26086   6.969   2.085  14.394 -0.5780  0.1386  0.1505
10618W        W26087  12.055   6.108   4.768  0.1254  0.1965 -0.1658
10619W        W26088  12.420   6.905   2.833 -0.0592  0.2382  0.2579
10620W        W26089   2.397   1.820  13.432 -0.0312  0.2682 -0.1384
10621W        W26090   6.460  16.690   5.920  0.4257 -0.0295 -0.4401
10622W        W26091  14.719   6.034   1.200  0.0274 -0.0154  0.0021
10623W        W26092   7.139  16.481   0.874  0.1193 -0.1494 -0.0136
10624W        W26093   1.721  11.366  13.411  0.5392 -0.1242 -0.0075
10625W        W26094  10.168  14.398   5.670  0.2847 -0.1881 -0.1560
10626W        W26095   3.292   9.243   2.304  0.3885  0.0414 -0.2687
10627W        W26096   9.320  13.045   2.985  0.2021  0.2478 -0.1580
10628W        W26097  12.932   6.760   3.605 -0.3055  0.0910 -0.0795
10629W        W26098  11.879  13.117  11.938 -0.0803  0.0398 -0.2477
10630W        W26099   1.159   4.128  10.565  0.1078 -0.0587 -0.1556
10631W        W26100  13.103  15.712   0.153 -0.0427  0.1342 -0.2591
10632W        W26101  13.919   0.863   4.851  0.1443 -0.0540 -0.1143
10633W        W26102   9.545  13.835  12.330 -0.1944 -0.1251  0.1547
10634W        W26103  16.920  12.889  12.736  0.0486 -0.0244 -0.0939
10635W        W26104   1.757   0.180  13.883 -0.2738  0.1898 -0.0471
10636W        W26105  12.715  12.000   2.176 -0.1707  0.0270 -0.0714
10637W        W26106  11.857   4.542  12.745 -0.0331  0.2408 -0.0454
10638W        W26107   8.891   7.327   4.678 -0.2253 -0.0776 -0.3665
10639W        W26108   1.112   3.758  14.943  0.0298  0.0783 -0.1959
10640W        W26109  14.634   0.312  12.036  0.3581 -0.1201  0.0335
10641W        W26110   8.590   0.979   6.107 -0.1695  0.2735 -0.1722
10642W        W26111  12.754   5.524   0.687  0.0414  0.0434  0.1431
10643W        W26112   0.240  16.299   4.079 -0.1863  0.0161 -0.2070
10644W        W26113  10.137  12.241   2.906 -0.0011  0.0793  0.4174
10645W        W26114   6.270   4.591  12.691 -0.2750 -0.2419  0.0672
10646W        W26115   3.315  17.541   2.441  0.3101  0.1498  0.0709
10647W        W26116   8.803  16.701  15.471 -0.2444 -0.2881 -0.3258
10648W        W26117   2.924  13.212  14.712 -0.0142  0.2240  0.1216
10649W        W26118   6.272  11.922   0.923 -0.2096 -0.1157  0.0729
10650W        W26119   8.100   6.190   3.420  0.0459  0.1604 -0.0143
10651W        W26120  17.560   1.742  16.051  0.2153 -0.1432 -0.1783
10652W        W26121   0.867  14.744  15.502  0.0430  0.1525  0.1862
10653W        W26122  13.609  16.600   4.898 -0.3540  0.2532 -0.0965
10654W        W26123  15.170  15.813   2.891  0.2537  0.0921 -0.0206
10655W        W26124  11.167   9.727  16.789 -0.2325  0.1331 -0.3242
10656W        W26125  16.934  14.922   5.657 -0.0712 -0.1036  0.1725
10657W        W26126  14.458   0.128   2.692  0.3387 -0.0877 -0.2055
10658W        W26127  10.587   2.797  16.185  0.1249  0.1241  0.2444
10659W        W26128  12.134  12.389  13.471 -0.0994 -0.2076  0.1689
10660W        W26129   3.057  16.433   4.325  0.0617 -0.2785  0.1645
10661W        W26130   0.715   9.683  14.090  0.2286  0.2557  0.2521
10662W        W26131  14.232   8.357   5.023 -0.3128  0.2462 -0.3567
10663W        W26132   2.235  10.727  13.386 -0.1805  0.0084 -0.1815
10664W        W26133  13.403  12.728   3.436 -0.0344 -0.0919  0.2044
10665W        W26134   6.463  16.474  16.677  0.1794  0.2659  0.2188
10666W        W26135   8.858  11.702   5.254  0.1287  0.0513 -0.0421
10667W        W26136  15.360   8.899  13.644 -0.2465  0.2832  0.0709
10668W        W26137  17.033   4.816   2.611 -0.1418  0.1083  0.1315
10669W        W26138   7.816   3.856  11.458  0.1811  0.1252  0.1143
10670W        W26139   8.293  14.117  12.893  0.0977  0.0064  0.0395
10671W        W26140   3.908  11.541   4.850 -0.0637  0.0300  0.0159
10672W        W26141  11.123  16.187   1.284  0.0322  0.0472 -0.1030
10673W        W26142   9.519  10.533   3.127  0.0654 -0.0670 -0.1485
10674W        W26143   7.122  15.182  15.085 -0.0892  0.1141  0.1188
10675W        W26144   6.501   5.217   2.760 -0.0281  0.1223 -0.1445
10676W        W26145  12.277  15.798  15.663  0.0124 -0.0770 -0.0832
10677W        W26146   8.148  16.523  12.207 -0.0514  0.0779  0.1831
10678W        W26147   2.855   6.111   4.814 -0.0819 -0.1506  0.0229
10679W        W26148   9.435   5.631   3.560  0.0552  0.1311  0.0615
10680W        W26149   0.851  11.089  11.033  0.1806 -0.2804  0.1118
10681W        W26150   3.979   4.131  16.484 -0.1164  0.3305  0.0733
10682W        W26151   3.966   7.580  12.692  0.0117  0.1231  0.2349
10683W        W26152  13.121   3.096  11.964  0.1588  0.2897 -0.1742
10684W        W26153   8.854  11.902   2.915  0.2156 -0.0031  0.0640
10685W        W26154   2.430  15.576  12.877  0.0013 -0.3776  0.2046
10686W        W26155   1.108   3.996  14.476  0.2152  0.0260 -0.0309
10687W        W26156   5.391  14.954   0.367  0.0744  0.0487  0.0203
10688W        W26157  13.527   1.382  14.037 -0.0229 -0.1344 -0.1893
10689W        W26158  11.108   0.591   4.681  0.0513  0.0497  0.0408
10690W        W26159   5.037   5.187   3.154  0.2553 -0.0319 -0.0895
10691W        W26160  11.275   1.395   4.046 -0.1723  0.0044 -0.3349
10692W        W26161   7.815   7.833   5.557  0.0663  0.1160  0.0141
10693W        W26162  12.931  17.185   0.491 -0.1885 -0.1295  0.0278
10694W        W26163   5.705   5.792   2.189  0.0709  0.1118 -0.0926
10695W        W26164  10.048   3.529  14.224  0.0880 -0.0517  0.1049
10696W        W26165  12.103  14.073  14.838 -0.3217 -0.0191  0.1850
10697W        W26166  12.756   3.379  13.254 -0.1271 -0.2133  0.1432
10698W        W26167   6.586   9.571   1.439  0.2374  0.1259  0.1210
10699W        W26168  12.075  10.862   0.148  0.0366  0.0665 -0.0545
10700W        W26169   8.778  14.850   6.004  0.0971 -0.0432  0.2062
10701W        W26170  15.874  17.588  14.475 -0.1462 -0.0090 -0.1772
10702W        W26171  10.632   8.773  15.625 -0.0577  0.1626 -0.1111
10703W        W26172  12.360  16.710  16.192 -0.1814 -0.0059 -0.0757
10704W        W26173   6.736  13.096  11.793  0.1978 -0.0152  0.2104
10705W        W26174   8.716   4.462  14.338  0.2455  0.2265  0.1309
10706W        W26175  15.045   5.285  16.337  0.0084  0.0974  0.0300
10707W        W26176   2.966   4.205  14.325  0.0225 -0.2853  0.0423
10708W        W26177   5.946  11.210  15.527 -0.3695  0.0300  0.0712
10709W        W26178  16.844  16.126  12.186  0.0531 -0.2609  0.0798
10710W        W26179   0.380   9.242   3.580  0.1052 -0.1100 -0.0547
10711W        W26180  15.285   5.022   0.128 -0.1853  0.2019  0.1221
10712W        W26181   7.874  15.394  15.982  0.2578  0.1097  0.1198
10713W        W26182  13.196  17.004  12.342  0.1221  0.1919 -0.1935
10714W        W26183  13.377   6.825   1.869  0.1108 -0.0055  0.0827
10715W        W26184   7.745  14.392  13.739 -0.0688  0.0908  0.1258
10716W        W26185  13.172  13.708   5.114 -0.2019 -0.0617 -0.0805
10717W        W26186   6.883   3.592  14.924  0.0591 -0.0159  0.2456
10718W        W26187  12.941   0.825   6.065  0.0659 -0.1358 -0.0386
10719W        W26188   2.924  11.350   4.186  0.0475 -0.0195  0.3443
10720W        W26189  17.241  14.688   1.476  0.1674 -0.0585  0.0012
10721W        W26190  10.759   6.242   4.388 -0.1035 -0.3474 -0.1870
10722W        W26191   3.510   4.115  16.270 -0.0794 -0.0742  0.0938
10723W        W26192  12.570   1.871  15.539 -0.0105 -0.0471 -0.1191
10724W        W26193  10.319   1.770   2.801 -0.3085  0.0225  0.0515
10725W        W26194   8.762  17.605  11.741  0.0604 -0.2347  0.0442
10726W        W26195  10.623  16.535  16.276  0.1379 -0.4025  0.0346
10727W        W26196  12.020   4.951   3.511 -0.2133 -0.2482  0.0401
10728W        W26197  13.533   7.929  16.683  0.0225 -0.0419  0.4182
10729W        W26198  10.006  14.552  14.244  0.1367  0.0430  0.3020
10730W        W26199  12.257   9.951  11.734 -0.3249 -0.1107  0.1385
10731W        W26200  13.641   6.257   4.931 -0.3051  0.0428  0.0744
10732W        W26201  16.590  13.823  11.760  0.1629 -0.3474 -0.2171
10733W        W26202   9.790  11.107  12.959  0.0754  0.0082 -0.0332
10734W        W26203  11.162   4.215   5.276 -0.0828  0.0334 -0.3659
10735W        W26204   5.375   9.127   1.939 -0.0221  0.2352  0.1693
10736W        W26205   2.918   3.930  13.584  0.2710  0.0498 -0.3285
10737W        W26206   0.637   5.787  13.716 -0.2972  0.2321 -0.2832
10738W        W26207   2.560  17.668  16.731  0.2937  0.0640 -0.2442
10739W        W26208   3.169   9.560   3.823  0.0298 -0.3354 -0.2712
10740W        W26209  10.497  11.896   0.190 -0.1535 -0.4286 -0.1333
10741W        W26210  10.195   8.623   1.589 -0.2514 -0.1618  0.0766
10742W        W26211  10.440  10.005  13.385  0.1565  0.2154  0.1543
10743W        W26212   0.308   6.958   4.607 -0.1180  0.2224  0.1511
10744W        W26213  11.003   4.919  13.596 -0.1208 -0.3740  0.0880
10745W        W26214  12.951   7.129  14.466 -0.0600 -0.0325  0.3721
10746W        W26215  17.050  14.905  11.882 -0.2279 -0.1951 -0.0854
10747W        W26216   6.813   1.217  13.798  0.5117 -0.0207  0.0099
10748W        W26217   7.165   2.219  13.094  0.2780 -0.0218 -0.1503
10749W        W26218   2.576  15.534  11.024 -0.0808  0.1603  0.2870
10750W        W26219  14.875   6.796   0.585 -0.0157  0.1673  0.0078
10751W        W26220   9.776   8.341  15.487 -0.1212 -0.0600  0.0947
10752W        W26221  14.912  17.497  13.573 -0.1493 -0.0920 -0.2489
10753W        W26222   5.780   4.313   2.878 -0.1089  0.0439 -0.0283
10754W        W26223   4.410  13.336  12.902  0.0312 -0.2423 -0.1501
10755W        W26224   2.235  13.453  12.112 -0.0737 -0.1345 -0.1110
10756W        W26225   9.771   4.371  15.382  0.0295  0.0496  0.0856
10757W        W26226   1.210   3.012  15.509  0.0279  0.2373  0.0394
10758W        W26227   6.399   1.176  12.418 -0.0548 -0.2219  0.1586
10759W        W26228   5.356   3.344  14.829  0.3010  0.1861 -0.2333
10760W        W26229   7.836   0.119   5.590  0.1771 -0.0151 -0.0720
10761W        W26230   6.173  11.824  16.115 -0.2062 -0.3076  0.1131
10762W        W26231   6.390   8.455   0.218 -0.0974  0.0841 -0.0705
10763W        W26232   9.873   3.439  16.485  0.2663  0.2648  0.2403
10764W        W26233   8.152  11.613  10.930 -0.2731  0.3415  0.1051
10765W        W26234  13.125   5.169   4.335 -0.0279 -0.0026  0.2018
10766W        W26235  11.899   9.301  15.339 -0.3321 -0.0528  0.1210
10767W        W26236  14.424   5.333  14.926  0.1489  0.0129 -0.1133
10768W        W26237   1.303  12.080   2.294  0.1000 -0.1134  0.2904
10769W        W26238   8.803  11.840   0.128 -0.0579 -0.2627 -0.1510
10770W        W26239   8.314   9.902  15.946 -0.2520 -0.1491 -0.2950
10771W        W26240   5.166  14.516  12.095  0.3335  0.3795 -0.2102
10772W        W26241  12.541  17.626  12.155 -0.0694  0.0100  0.2421
10773W        W26242   5.587  15.844   0.881  0.0836 -0.2051  0.1468
10774W        W26243   9.754   7.683  12.472 -0.1283 -0.0562  0.0063
10775W        W26244  16.960   3.989  14.855  0.0372  0.0471 -0.2436
10776W        W26245   8.020   2.422   2.293 -0.1960  0.0942 -0.3063
10777W        W26246   4.781  10.136   3.315 -0.1031 -0.1233 -0.3518
10778W        W26247   2.140  13.405   1.676 -0.3511 -0.1288 -0.1919
10779W        W26248   6.831  14.206   2.141 -0.2624 -0.1360  0.2297
10780W        W26249  14.979   7.497   1.238 -0.1856  0.0407  0.1141
10781W        W26250   6.224   8.418   4.151  0.4424 -0.0505  0.2673
10782W        W26251  17.520   6.925   3.844  0.2577 -0.0222  0.1913
10783W        W26252   4.990   1.635  14.292  0.3300 -0.2973 -0.2400
10784W        W26253  17.617   8.873  12.665  0.2718 -0.0876 -0.2526
10785W        W26254   2.696   4.785   4.303  0.0504  0.0832  0.1712
10786W        W26255   0.827   1.436  13.515 -0.0478  0.1500 -0.1759
10787W        W26256  12.763   1.469  12.345  0.1412 -0.2038 -0.2108
10788W        W26257   2.028  15.713   4.725 -0.1083 -0.2673 -0.1319
10789W        W26258   7.782   6.566   0.768 -0.2653 -0.1210 -0.0637
10790W        W26259   7.736   7.621   3.068 -0.0421  0.0137  0.0939
10791W        W26260  16.441   1.626  15.421  0.1427  0.3435 -0.0209
10792W        W26261   9.773   2.496  10.897 -0.1913  0.2418  0.0632
10793W        W26262   9.416   1.536  11.689  0.1672  0.0694  0.1634
10794W        W26263   6.264  15.987  16.541  0.2532  0.0292 -0.2378
10795W        W26264  15.235   2.535  16.666  0.0856  0.0172  0.1482
10796W        W26265   2.429  13.018  16.170  0.1174 -0.2676  0.1577
10797W        W26266   0.491  10.540  16.400 -0.0339 -0.1916 -0.0169
10798W        W26267   4.568   7.091  15.168 -0.0652 -0.1349 -0.3366
10799W        W26268   4.807   1.360  14.655  0.0830 -0.0382 -0.0594
10800W        W26269   6.788   5.192   5.403  0.0001  0.4373 -0.0771
10801W        W26270   7.330   5.890  13.790  0.1977 -0.1621  0.0387
10802W        W26271  17.309   4.843  11.920  0.1135 -0.2089  0.0942
10803W        W26272   3.419  11.020   1.352  0.1205 -0.0494  0.3276
10804W        W26273  13.384  14.791   3.484  0.0184 -0.0268  0.3594
10805W        W26274  14.433   1.282  11.467 -0.0806  0.2312 -0.1336
10806W        W26275   6.793  12.160   5.282 -0.0484  0.0062 -0.0013
10807W        W26276  15.177  12.707  14.269  0.1376  0.1416 -0.0785
10808W        W26277   4.642   7.887   0.518  0.1782 -0.0991  0.1764
10809W        W26278   8.005   0.527   2.693 -0.1203  0.2547  0.0423
10810W        W26279   1.175   0.794   5.060  0.0598 -0.1956 -0.1796
10811W        W26280   8.601   3.959   3.303  0.0901  0.1811  0.2839
10812W        W26281   0.729   9.276  13.681  0.0298  0.0125  0.0626
10813W        W26282   3.985   8.883   5.142 -0.0960 -0.1474  0.1856
10814W        W26283   9.858   2.704  12.524 -0.3118 -0.2036 -0.0900
10815W        W26284   4.849   7.898  12.471  0.0411  0.1404  0.2922
10816W        W26285  11.960   2.768  13.362 -0.0862 -0.1219 -0.0029
10817W        W26286  11.622   1.080   3.688 -0.2702  0.1109  0.4169
10818W        W26287  16.240   1.791   3.315  0.1429 -0.1929 -0.0389
10819W        W26288   7.646   4.064  15.393  0.0479  0.0180 -0.2262
10820W        W26289  12.342  14.532  11.371  0.0544  0.0559 -0.1015
10821W        W26290  15.266   0.838  16.694  0.0159  0.0864  0.2825
10822W        W26291  12.556  10.570   0.991  0.1348 -0.2472 -0.0807
10823W        W26292  14.443  13.081   5.547  0.0854 -0.2951 -0.0810
10824W        W26293  12.411   5.014   2.122 -0.1769 -0.1068  0.2218
10825W        W26294   1.995   9.878  15.901 -0.0046 -0.0679 -0.0423
10826W        W26295   0.824   3.904  11.452 -0.0047  0.2611 -0.1738
10827W        W26296  12.399   9.527   5.028 -0.4053 -0.1903  0.1339
10828W        W26297  14.030  16.009  11.468 -0.2043  0.2661  0.0016
10829W        W26298   7.735  10.706  13.685 -0.5288  0.1504 -0.2323
10830W        W26299  15.012   0.648  12.159 -0.0089 -0.1295  0.2551
10831W        W26300  12.926   8.974   3.327 -0.0538  0.0930 -0.1632
10832W        W26301   1.595  13.331  11.904 -0.0952  0.1377  0.1825
10833W        W26302  12.362   9.074   4.975 -0.1717 -0.3710  0.0674
10834W        W26303   1.931  14.680   1.231  0.0118  0.1276  0.2526
10835W        W26304   5.648   7.738   4.767 -0.0795 -0.0662  0.0072
10836W        W26305   6.695   3.114  12.955  0.1197  0.1779 -0.1364
10837W        W26306   0.706   6.037  12.857 -0.2402  0.4669 -0.3016
10838W        W26307   5.057   1.090  14.364 -0.1870 -0.1670 -0.2009
10839W        W26308  14.936   0.479  15.275  0.0764  0.0757 -0.0145
10840W        W26309  16.193   5.668   1.071  0.2238  0.0063  0.1120
10841W        W26310  11.086  12.433  16.371 -0.1275  0.0626  0.0245
10842W        W26311  13.413   8.821   5.581  0.0839  0.1082 -0.1614
10843W        W26312  12.877  14.676   4.573  0.1177  0.1354 -0.1364
10844W        W26313  15.836  16.330  13.794  0.1077 -0.1830  0.0753
10845W        W26314  15.263   9.411  13.386  0.0679 -0.0816  0.3801
10846W        W26315   9.343  17.454   0.934  0.0258  0.4081  0.2047
10847W        W26316   3.964   6.501   5.713  0.1749  0.0878 -0.0336
10848W        W26317   7.185   2.301  16.216 -0.2185  0.1679  0.0587
10849W        W26318   6.351   4.430  15.788  0.0765  0.2587  0.0130
10850W        W26319  13.458  14.909  13.960  0.2388 -0.1257 -0.0212
10851W        W26320   1.761  15.697   3.764  0.1748  0.0192 -0.0238
10852W        W26321   7.153   3.808  12.364 -0.2850 -0.1155  0.1680
10853W        W26322  16.404   9.922  13.113 -0.1463 -0.0854  0.1959
10854W        W26323  16.075   4.612   2.362  0.0310  0.0005 -0.2196
10855W        W26324  13.171   5.388  14.331 -0.2218 -0.1130  0.1196
10856W        W26325   1.163  17.580   2.571  0.0664  0.0955  0.3358
10857W        W26326   0.358  17.738  12.903 -0.0213  0.1399 -0.1330
10858W        W26327  12.736  16.040  13.178 -0.1428  0.0989  0.1027
10859W        W26328   3.508  15.294  16.191  0.1903  0.1940  0.1449
10860W        W26329   2.682  11.922  12.276 -0.0681  0.0510  0.2008
10861W        W26330   4.849  13.482   1.790  0.0418 -0.2058 -0.1114
10862W        W26331   9.048   6.642  15.673 -0.0995 -0.5180  0.1309
10863W        W26332  16.056   5.358   0.777  0.1836  0.2301 -0.0325
10864W        W26333  12.133   3.761  13.736  0.0157  0.0545  0.1587
10865W        W26334  17.215  17.209  16.601 -0.3911 -0.1396  0.0087
10866W        W26335   1.095  12.144   4.105  0.1125 -0.0996 -0.3460
10867W        W26336   9.659   6.699   1.190  0.1316 -0.1541 -0.2231
10868W        W26337  14.530  12.016  16.497  0.3348  0.0146 -0.1050
10869W        W26338   9.151   7.521   2.196 -0.0105 -0.0630  0.0054
10870W        W26339   5.714   8.461   2.806 -0.3714  0.0846  0.0507
10871W        W26340   3.766   0.574   2.692 -0.1145  0.0562  0.1113
10872W        W26341   2.758  16.031  16.651 -0.1904  0.3300 -0.1205
10873W        W26342   1.707   9.361  16.433 -0.4651  0.2921  0.1064
10874W        W26343   1.723   3.212   5.479  0.1575  0.2417  0.1495
10875W        W26344   7.384   4.961   4.152  0.0725 -0.2666 -0.0673
10876W        W26345   5.833  14.153  16.815  0.1152 -0.2020 -0.3096
10877W        W26346  16.025   9.869   4.600 -0.1239  0.1758 -0.1664
10878W        W26347   5.045  14.949   2.053 -0.0866 -0.0686  0.1357
10879W        W26348   6.128   6.164  15.733  0.0459 -0.0735 -0.1719
10880W        W26349   3.239  14.375  13.431  0.0947  0.0228 -0.3734
10881W        W26350   4.460  16.838  16.197 -0.1215 -0.0976  0.2350
10882W        W26351  16.625   8.886  15.175 -0.2223 -0.0419  0.3781
10883W        W26352   6.623   5.737  12.601  0.0479 -0.2549  0.1059
10884W        W26353   6.571   8.694   0.714 -0.0267  0.1000  0.0766
10885W        W26354   3.064   3.385  10.354  0.0261 -0.2782 -0.3474
10886W        W26355  10.764  16.487  11.722  0.0681 -0.2238  0.1386
10887W        W26356  10.980   1.376   2.442 -0.2162  0.3153  0.0919
10888W        W26357   7.933  11.940  11.262 -0.0448  0.0877  0.1633
10889W        W26358   0.790   5.197  13.109  0.0969 -0.0114 -0.3821
10890W        W26359  11.123  14.663  13.688 -0.0174  0.0406  0.2521
10891W        W26360   1.618   8.707  15.353 -0.2084 -0.2416 -0.3351
10892W        W26361  13.394  15.944   1.318  0.0509 -0.1856  0.4290
10893W        W26362  10.952   3.373   5.221  0.2265 -0.0945  0.2912
10894W        W26363  11.096  13.136   2.408  0.0769  0.0527  0.0423
10895W        W26364  16.021  12.318  15.746 -0.0663  0.2610  0.1584
10896W        W26365   3.671   3.663  15.521  0.0338 -0.3902 -0.0361
10897W        W26366   1.578  14.693  11.285 -0.2881  0.2962  0.1261
10898W        W26367  17.258   5.116  15.511  0.0177 -0.0196  0.3696
10899W        W26368   1.014   5.072  11.476  0.0081  0.0696  0.0422
10900W        W26369   1.553   7.302  11.203 -0.2312  0.0459 -0.0678
10901W        W26370   5.267   1.389  12.310 -0.1082  0.1284  0.1251
10902W        W26371   5.851  11.979  14.813  0.1847 -0.1595  0.0744
10903W        W26372  16.040   1.337   3.300 -0.0580  0.0631  0.0052
10904W        W26373   6.638  16.895  14.706  0.0691 -0.0144  0.0053
10905W        W26374  13.810   2.929  16.166  0.1031  0.2506  0.1279
10906W        W26375   3.865   0.000   1.186  0.1502  0.3505 -0.1135
10907W        W26376   8.020  12.762  12.906  0.0760 -0.3716 -0.2338
10908W        W26377   1.776   3.871   3.003 -0.2208  0.0052 -0.1659
10909W        W26378   4.318   4.720  15.396  0.0047 -0.4675 -0.1564
10910W        W26379  17.030   1.543   1.829  0.0649  0.1722 -0.1218
10911W        W26380  13.691   8.733   4.289 -0.3637  0.3663  0.2876
10912W        W26381  15.396   3.032   5.829 -0.3183 -0.1337  0.1014
10913W        W26382   7.103  13.109  12.101  0.3040 -0.1045 -0.0051
10914W        W26383  15.731   6.613  16.140  0.0054  0.1646  0.1751
10915W        W26384  13.131  12.924   1.280  0.2137 -0.0805  0.0484
10916W        W26385   0.529   2.859   3.213 -0.0537 -0.1750 -0.1493
10917W        W26386  17.212  15.498   0.423 -0.0686 -0.2274 -0.1985
10918W        W26387   7.299   4.135  13.568  0.1205 -0.1726 -0.2023
10919W        W26388   5.254   1.098   3.803 -0.0776 -0.1565  0.0498
10920W        W26389  12.793   9.550   6.151  0.1175 -0.2720 -0.0565
10921W        W26390  15.966  13.996   4.639 -0.0293 -0.1106  0.3023
10922W        W26391   1.101  10.060  15.413  0.0127 -0.0898  0.0055
10923W        W26392  10.484   9.541  13.539 -0.0828 -0.0684 -0.1907
10924W        W26393   8.066   8.146  14.103 -0.1302  0.0815  0.0338
10925W        W26394   6.919  10.634   3.973  0.1001  0.3254  0.1237
10926W        W26395   4.522   0.852   2.212 -0.3209  0.0962 -0.1716
10927W        W26396  17.417   6.795  11.234 -0.1568 -0.1823  0.1267
10928W        W26397  11.165  17.171   2.180  0.0322 -0.0041 -0.0371
10929W        W26398   5.782  13.870  16.424 -0.1584 -0.0791 -0.0310
10930W        W26399   8.522   4.986  15.965  0.0820  0.1393  0.0021
10931W        W26400   5.304  11.164  15.104  0.0696  0.1703  0.4117
10932W        W26401  16.085  17.664  11.962 -0.1465 -0.0085  0.0653
10933W        W26402  14.250  16.855  13.936 -0.1439  0.1866  0.2286
10934W        W26403   8.663   4.911   1.934  0.0313  0.0090 -0.0170
10935W        W26404  14.789  14.143  11.540 -0.0225 -0.0487 -0.1636
10936W        W26405  10.007  13.204   5.275 -0.0674 -0.0681  0.1321
10937W        W26406   4.481   2.875   1.398  0.1776  0.0224  0.2645
10938W        W26407  16.096   3.974  10.217 -0.0169  0.0449  0.1685
10939W        W26408  14.986   7.558   4.476 -0.0821  0.4126  0.2443
10940W        W26409   2.971  15.200   2.369  0.2756 -0.0900 -0.1058
10941W        W26410   1.964   6.946  11.200  0.0013 -0.2750  0.2441
10942W        W26411  15.758   9.252   1.630 -0.0015  0.3520 -0.3061
10943W        W26412  13.887  12.217   3.489 -0.3726 -0.0737 -0.0743
10944W        W26413  10.715  12.776   4.674  0.2473 -0.3295  0.4645
10945W        W26414   4.456   6.618  16.387 -0.1854 -0.3428  0.0992
10946W        W26415  12.859  17.157   2.940  0.0618 -0.2018  0.1744
10947W        W26416   4.129   1.319  16.532 -0.1515 -0.0443 -0.1847
10948W        W26417  12.703  10.994   4.904  0.1265 -0.0005  0.0551
10949W        W26418  12.323  14.614   3.786  0.4873 -0.3516  0.0842
10950W        W26419   0.093   0.730   1.596 -0.2340  0.0157 -0.1913
10951W        W26420  17.029  12.782  14.159 -0.2727 -0.1687 -0.0759
10952W        W26421  16.116  10.085  14.137 -0.0682  0.0813  0.0950
10953W        W26422  14.482  10.856   1.036 -0.1362  0.2071  0.4067
10954W        W26423   2.921   2.062   4.270  0.0038 -0.0745  0.0779
10955W        W26424   8.845  13.530   0.355 -0.0092 -0.2248  0.1738
10956W        W26425  13.292  17.543   1.913 -0.1103 -0.0862 -0.0182
10957W        W26426   2.538   1.245  16.803  0.1316 -0.0412  0.1714
10958W        W26427  11.561   8.541   3.526  0.1153  0.0158  0.1023
10959W        W26428  16.197   9.210  14.115  0.0217  0.0323 -0.1168
10960W        W26429   4.022  10.794  16.266  0.1476 -0.2404  0.2096
10961W        W26430  16.902   4.781  16.241  0.0439  0.2324 -0.1096
10962W        W26431  12.271  12.157   2.437  0.5386  0.2399 -0.2217
10963W        W26432   4.280  16.984   5.346 -0.1457 -0.0547  0.2571
10964W        W26433  12.224   7.623  12.848  0.0289 -0.1006 -0.2039
10965W        W26434   7.542  11.388   0.882 -0.0964  0.0337 -0.0602
10966W        W26435   9.787  11.477  11.958  0.1909 -0.1864 -0.0150
10967W        W26436   7.787  10.077   6.060 -0.3197  0.0074 -0.1534
10968W        W26437  16.552  15.939  14.025 -0.2286  0.0499  0.2147
10969W        W26438  14.235   4.806   3.237  0.1320  0.0353 -0.1085
10970W        W26439  12.300  13.393  16.230  0.2590 -0.0152  0.2466
10971W        W26440   6.940   0.194   3.897  0.1737  0.2341 -0.1465
10972W        W26441   9.520   3.537   0.026 -0.1513  0.0715  0.0580
10973W        W26442  14.759   6.566  13.475 -0.2337  0.1158  0.0197
10974W        W26443   3.628   9.581  14.869 -0.0136 -0.0353 -0.0758
10975W        W26444   9.836  14.006   5.484  0.0410 -0.5345 -0.1532
10976W        W26445  17.262  11.067   5.170 -0.1137  0.3605 -0.1039
10977W        W26446  15.212   4.769  15.574  0.2735  0.0079  0.0472
10978W        W26447  12.966   5.154   5.219  0.1397  0.3020 -0.1717
10979W        W26448   3.532   8.922  14.321 -0.0899  0.1439  0.1492
10980W        W26449  15.979  16.383  11.682 -0.3722  0.1670  0.2467
10981W        W26450   4.934   2.259  14.247  0.0208 -0.0413 -0.0029
10982W        W26451  16.237   3.356  15.418 -0.0934 -0.1943 -0.2774
10983W        W26452   0.795  16.535   5.481  0.1987  0.0417  0.1115
10984W        W26453   2.392  17.557  13.337  0.1726 -0.1248  0.1342
10985W        W26454   2.503  11.642   2.083 -0.1281  0.0430 -0.1840
10986W        W26455   4.742  11.645  13.575 -0.1484 -0.0592  0.1328
10987W        W26456  10.351  16.646   0.981 -0.0616 -0.2454  0.2304
10988W        W26457   9.261  11.941  12.356  0.2604  0.0949  0.2477
10989W        W26458   3.264   4.729  11.142 -0.0916 -0.0035  0.0515
10990W        W26459   6.554   4.354  13.114  0.0785  0.1483  0.1490
10991W        W26460   3.997  13.697   6.174 -0.0934 -0.1095 -0.0506
10992W        W26461  14.122   7.067  13.088  0.1943  0.0382  0.0446
10993W        W26462  12.973  11.021  11.989  0.4334  0.3881  0.0230
10994W        W26463  11.979   1.081  14.909  0.0829 -0.0253  0.0863
10995W        W26464   4.159  12.736  15.543 -0.0252  0.0596 -0.2995
10996W        W26465   7.524  16.815  11.989 -0.1332 -0.0441  0.2381
10997W        W26466  10.586   3.833  12.693 -0.0492  0.1268  0.0923
10998W        W26467   3.772  11.790   4.012  0.1473  0.2991 -0.2435
10999W        W26468  13.255  10.651  12.689  0.0982  0.0706  0.3590
11000W        W26469   9.013   1.803   6.203 -0.0511  0.0209  0.4730
11001W        W26470   9.293   2.507  14.425 -0.1889 -0.1246  0.0813
11002W        W26471   7.785  13.360  14.905 -0.2239 -0.1421  0.0794
11003W        W26472  16.319  13.607  11.243 -0.0052  0.0477 -0.1110
11004W        W26473  11.504   3.415   2.357  0.0791  0.3698  0.0291
11005W        W26474  16.342  17.038   4.299  0.0140  0.0051  0.1140
11006W        W26475   4.040  16.539   1.803 -0.1550  0.0692  0.0660
11007W        W26476  13.731   9.238  15.463  0.1002 -0.3369  0.3080
11008W        W26477   2.237   5.839   3.002  0.1475  0.3566 -0.1540
11009W        W26478  17.079   4.386   2.376 -0.0190  0.2170 -0.0776
11010W        W26479  10.483   0.203   5.993  0.0355  0.0770  0.0117
11011W        W26480  11.393   6.982  15.344  0.2829  0.1962 -0.0699
11012W        W26481   7.760   9.959  16.718  0.0470 -0.1815  0.3496
11013W        W26482   8.579  16.468  14.970 -0.0070  0.0541  0.3234
11014W        W26483  10.922  14.271  14.008  0.1525 -0.2214  0.1778
11015W        W26484   3.235   1.159  14.168  0.1024  0.0058 -0.1486
11016W        W26485  15.370   0.721  14.786 -0.1115  0.0604  0.0367
11017W        W26486   2.962  17.651   5.272  0.1029 -0.0714 -0.0007
11018W        W26487  10.294  11.823   1.082 -0.1088  0.1856 -0.1850
11019W        W26488  16.487  10.368   0.863 -0.0201 -0.2521 -0.1789
11020W        W26489  10.270  12.847  15.815 -0.0257 -0.1963  0.0408
11021W        W26490   0.617   8.059   2.900  0.0785 -0.0739  0.2213
11022W        W26491   0.061   0.617   2.585  0.0826 -0.4202  0.1608
11023W        W26492  11.761  11.325  14.755 -0.0285 -0.2227  0.0711
11024W        W26493   5.705   8.687   3.782 -0.4180  0.0734  0.0199
11025W        W26494   9.290   3.358   0.788 -0.0958  0.2054 -0.0875
11026W        W26495   8.921   1.288  14.074  0.0778  0.1544  0.1183
11027W        W26496   7.742   4.567   5.024 -0.1713 -0.2646  0.1726
11028W        W26497  15.654  17.230   0.552  0.1736 -0.0800 -0.1194
11029W        W26498  14.327   8.686  13.606 -0.2274  0.0267  0.1452
11030W        W26499  12.774   4.135   6.326  0.0103 -0.4429 -0.2998
11031W        W26500  12.307   5.406  12.420 -0.0420  0.0324  0.2632
11032W        W26501  13.628   8.924   2.210  0.0778 -0.1720  0.0813
11033W        W26502   4.526  10.859   2.554 -0.4245 -0.3260 -0.2182
11034W        W26503   4.704  17.155  15.418  0.1271  0.0872  0.0265
11035W        W26504   4.527  16.447  16.480 -0.1522  0.0729  0.0486
11036W        W26505   4.438   3.405  11.785 -0.0569  0.2069  0.2438
11037W        W26506   2.027   4.662  10.528  0.1220 -0.0302  0.0457
11038W        W26507  11.084   7.248   2.723  0.0549 -0.2565 -0.0679
11039W        W26508  16.764  17.651   2.520  0.0604 -0.1050  0.0228
11040W        W26509  10.234  11.413   2.688  0.3464  0.0237 -0.1713
11041W        W26510   4.009   8.322  12.323 -0.0615  0.0127 -0.2288
11042W        W26511   5.306   7.387  12.537 -0.0281  0.0052 -0.0269
11043W        W26512  16.430  16.265  15.082 -0.1092  0.2609  0.3233
11044W        W26513  11.612  14.167   0.524 -0.0193  0.2073  0.2140
11045W        W26514   0.872   4.809  12.658  0.1278 -0.0022 -0.0883
11046W        W26515  13.189   0.959  14.147  0.3674 -0.1830  0.0924
11047W        W26516   9.637  17.768   4.281 -0.0227  0.0973 -0.1571
11048W        W26517  17.213   7.309   1.267 -0.3875  0.3231 -0.0767
11049W        W26518  17.333   1.200   4.138  0.0712 -0.0528  0.4355
11050W        W26519   8.085  14.473   1.999 -0.1755  0.1616 -0.1316
11051W        W26520   3.583   7.567  13.157 -0.0760  0.1824 -0.1686
11052W        W26521   3.067   1.608   4.278  0.2352  0.0332 -0.1127
11053W        W26522   9.906  10.675   2.772 -0.1986  0.2148 -0.2938
11054W        W26523   1.699   2.415  15.233  0.0162  0.3390  0.2700
11055W        W26524  10.088   5.212  13.215  0.1961  0.1018 -0.1961
11056W        W26525  15.697   7.028  13.665  0.2611 -0.1048 -0.2033
11057W        W26526   4.775   5.349   5.146 -0.0976 -0.0222  0.1009
11058W        W26527   4.876   4.710  10.909  0.1540  0.3982  0.1528
11059W        W26528   9.094  16.912   2.157 -0.2373 -0.1928 -0.0275
11060W        W26529   1.322  16.830  15.735 -0.0313  0.0254  0.1430
11061W        W26530  17.489  17.742  11.207 -0.0350 -0.1343  0.2127
11062W        W26531   6.510   7.679  16.043 -0.2343  0.0451  0.1132
11063W        W26532  12.933   5.183  16.300 -0.2143 -0.1167  0.1187
11064W        W26533   6.407   7.020  13.716 -0.3136 -0.0049  0.1956
11065W        W26534   3.312  17.763   3.670  0.1189 -0.0947  0.0864
11066W        W26535   5.282   4.063   2.685 -0.0508 -0.3619 -0.2487
11067W        W26536  14.245   7.608   0.923  0.0689  0.3672 -0.0463
11068W        W26537   1.151   4.309   2.202  0.0025 -0.2493 -0.2555
11069W        W26538   1.214  14.827   0.614 -0.1698  0.0319  0.0352
11070W        W26539  13.633   3.847   1.332  0.2166 -0.3149 -0.1051
11071W        W26540  14.933  13.563  14.401 -0.4149 -0.1349  0.1353
11072W        W26541   0.022   3.345  14.096 -0.2958  0.1723 -0.0859
11073W        W26542   9.893   0.228  15.930  0.0240 -0.1057 -0.3637
11074W        W26543  17.448  10.541  13.892  0.1652  0.2278  0.3235
11075W        W26544  17.395   4.080  14.632  0.2447 -0.0515 -0.3561
11076W        W26545   4.599   3.902  12.946  0.1393 -0.0091  0.0896
11077W        W26546   1.026  10.927  15.177  0.0901 -0.0906  0.2126
11078W        W26547  12.229   8.218  13.911  0.0372  0.2587  0.1114
11079W        W26548   0.479  10.778  11.620 -0.3534  0.0094  0.2072
11080W        W26549   5.468   6.255  14.148  0.0879  0.2010  0.2590
11081W        W26550   0.545  14.108   1.693 -0.1384  0.1057 -0.0686
11082W        W26551   0.770  14.819   5.328 -0.1422  0.3346  0.1366
11083W        W26552  17.207   5.006   1.589 -0.0032  0.0707 -0.2910
11084W        W26553  13.425  10.505   2.725  0.0957  0.0972 -0.0440
11085W        W26554   9.462  10.874   4.934 -0.1037  0.3490  0.3293
11086W        W26555  13.845   0.146   3.914 -0.2110 -0.1424 -0.2783
11087W        W26556   3.991  17.394  14.571 -0.2347 -0.1525  0.0433
11088W        W26557   0.518  12.538  13.725 -0.1090  0.0836 -0.0195
11089W        W26558  16.809  11.055   3.068  0.0704 -0.0331 -0.0817
11090W        W26559   5.403   5.528  13.504  0.0498 -0.0179  0.0847
11091W        W26560   5.284   6.237   4.575 -0.0613  0.0689 -0.1613
11092W        W26561  12.162  10.719  12.340  0.0003  0.0318 -0.0980
11093W        W26562   5.866   9.659  12.149 -0.3533  0.2449  0.2439
11094W        W26563  14.814   0.702  16.477 -0.2318 -0.0605 -0.0175
11095W        W26564  16.176   0.025   3.525  0.1853  0.0085 -0.0641
11096W        W26565  16.291  11.874  16.711 -0.1155  0.1555 -0.1338
11097W        W26566  13.791   7.820   4.164 -0.0532 -0.0512  0.2554
11098W        W26567   6.874   4.260   4.228 -0.0715  0.3146 -0.0001
11099W        W26568  11.937   1.077   2.751 -0.0673 -0.1590  0.0496
11100W        W26569  13.693  12.530  16.252  0.2652  0.0760  0.2699
11101W        W26570  15.155  16.649   3.189 -0.1943 -0.1485 -0.2286
11102W        W26571  14.835  16.003  16.415  0.1139 -0.1135  0.0703
11103W        W26572   2.854   5.881  13.147  0.1598 -0.0241 -0.0499
11104W        W26573  12.097   6.693  14.651  0.0969 -0.2951  0.0654
11105W        W26574  11.813  11.862  16.733  0.0874  0.0023 -0.2820
11106W        W26575  11.505  12.471  14.519 -0.0430 -0.0740 -0.1402
11107W        W26576   3.174  13.589   6.350  0.1477 -0.2112  0.2617
11108W        W26577   6.222   2.397   1.460  0.0890 -0.2357 -0.1098
11109W        W26578  12.825   9.524  12.461 -0.2643 -0.0634  0.0957
11110W        W26579   8.453   8.681  15.001  0.0451 -0.1452  0.0141
11111W        W26580   1.675  15.347  15.716 -0.1162 -0.4174 -0.0793
11112W        W26581   0.735  15.656  10.474  0.1124  0.3615  0.0284
11113W        W26582  12.087  15.910  14.621 -0.0303 -0.1485  0.2846
11114W        W26583   4.646   3.521   1.996 -0.1880 -0.0127 -0.0442
11115W        W26584  12.821   4.563   3.851 -0.0475  0.3663 -0.1101
11116W        W26585  13.755   3.452  12.757 -0.3802 -0.2615  0.2512
11117W        W26586   4.805  13.324   0.809  0.1910  0.2235  0.0778
11118W        W26587  16.288   2.080   5.380  0.0060  0.0325  0.1357
11119W        W26588   0.580   2.337  11.030  0.2350 -0.0229 -0.0454
11120W        W26589  11.775  17.300   4.130 -0.2178 -0.2113  0.2579
11121W        W26590  17.621   9.611  12.715  0.0679  0.1870  0.0395
11122W        W26591  12.230  11.861   2.826  0.0899 -0.0782 -0.0591
11123W        W26592   9.503   5.864   0.219  0.2203 -0.0970 -0.1805
11124W        W26593   3.789   3.864  14.526  0.3702 -0.1740 -0.4332
11125W        W26594  16.866   5.907  14.159 -0.1291 -0.2822  0.0324
11126W        W26595   9.357   7.856  10.922 -0.3867 -0.2118  0.0827
11127W        W26596   3.819   2.758  16.389  0.2336  0.0841  0.2277
11128W        W26597   7.747   1.273  12.539 -0.0385  0.0646  0.2274
11129W        W26598  10.787   8.390  10.649 -0.1034 -0.2125  0.1681
11130W        W26599   2.013  10.954   2.013 -0.0846 -0.3472 -0.2112
11131W        W26600  14.811  12.795   1.538 -0.1778 -0.2627 -0.1265
11132W        W26601   7.149  12.817   0.402 -0.0628 -0.2825 -0.1768
11133W        W26602   8.997   3.020  11.321 -0.1586  0.0628  0.0985
11134W        W26603   2.829  13.193   3.721  0.0858 -0.2774 -0.3382
11135W        W26604   0.644   2.137   4.075  0.1140  0.1025  0.1392
11136W        W26605  10.391  16.007   3.053  0.0847 -0.0940 -0.0037
11137W        W26606   9.654  13.794   2.852 -0.1000 -0.1247  0.0250
11138W        W26607   4.119  12.339   0.113 -0.1473  0.0861  0.1154
11139W        W26608  12.294  12.790  11.338 -0.0470 -0.1130  0.1359
11140W        W26609   5.876   7.676  13.162 -0.2804 -0.0929 -0.1917
11141W        W26610  15.054  13.611  16.366  0.1711 -0.0348  0.2626
11142W        W26611   5.392   5.347   6.293  0.2414  0.1244  0.0299
11143W        W26612   7.226   6.861   1.385  0.2901  0.2123  0.0269
11144W        W26613   9.418   0.406   3.995  0.0024  0.1244 -0.1116
11145W        W26614  15.807   6.835   2.488  0.0457  0.0913  0.0853
11146W        W26615   8.983   0.421  14.517 -0.1728  0.0035  0.0054
11147W        W26616  13.650  17.174   5.574  0.0895 -0.0145 -0.2642
11148W        W26617  16.879  14.843   2.260 -0.2646  0.0052  0.1215
11149W        W26618   9.966  10.637  16.528 -0.0103 -0.0360 -0.1589
11150W        W26619  10.671   8.123  15.698 -0.1683  0.0060  0.1472
11151W        W26620   1.164   6.259   1.282  0.0371  0.1025 -0.2794
11152W        W26621  16.835  11.653  10.647 -0.2857  0.0362 -0.3663
11153W        W26622   0.733   0.788  16.752  0.0025  0.3266 -0.2607
11154W        W26623   3.267  16.219  15.039  0.3929  0.0154  0.1548
11155W        W26624   4.465   5.700   5.542 -0.0928 -0.1509  0.0396
11156W        W26625   6.079   7.290   0.416  0.0814  0.1246  0.1337
11157W        W26626  10.382   6.796   3.073 -0.0744  0.0890 -0.3206
11158W        W26627   6.884  10.696  15.630  0.0004  0.0480 -0.2738
11159W        W26628   0.648   1.670  12.755 -0.2424  0.4249  0.0905
11160W        W26629   2.978  14.489   1.965  0.2364  0.0021  0.0071
11161W        W26630  12.493   9.864   5.856  0.4687 -0.0640  0.2323
11162W        W26631  13.191  13.454   0.369  0.0311  0.3268  0.1012
11163W        W26632   6.819  10.037   3.474 -0.2961  0.0924 -0.2504
11164W        W26633   9.808  13.329   2.820  0.1491  0.1103  0.3111
11165W        W26634   9.715   6.644   5.655 -0.2112  0.1234  0.0799
11166W        W26635  17.641  10.769   3.858  0.0471  0.1271  0.0921
11167W        W26636  17.404   5.685  13.556  0.1221  0.0335 -0.3527
11168W        W26637   8.753   1.164  13.552  0.0510 -0.1819  0.0510
11169W        W26638   4.923  15.990   1.990  0.0073 -0.3243  0.1415
11170W        W26639   8.099   5.164   5.688 -0.0776  0.1335  0.1039
11171W        W26640   6.351   6.803   0.909 -0.0755  0.1879 -0.0173
11172W        W26641   0.003   5.345  13.534 -0.0787 -0.1627 -0.0250
11173W        W26642  12.399  11.670   2.424  0.0080 -0.0111  0.1052
11174W        W26643  12.261  16.389  14.780 -0.1428  0.0318 -0.0574
11175W        W26644  16.948  11.028  13.722 -0.1266 -0.1051  0.0806
11176W        W26645  17.299  10.355   0.005 -0.2118  0.0059  0.1612
11177W        W26646  10.903  10.757  14.600 -0.0317  0.2496  0.1292
11178W        W26647  12.048   1.458   5.211  0.0887 -0.1418 -0.0110
11179W        W26648   5.885   8.830   4.206 -0.1345  0.1288 -0.0244
11180W        W26649   4.181  16.707  15.751 -0.0525 -0.0672 -0.3627
11181W        W26650  15.585   5.272  16.308  0.1185  0.2546 -0.1194
11182W        W26651  14.824   7.556  13.654 -0.0260  0.3215  0.1413
11183W        W26652   2.503  17.628   5.061 -0.0012 -0.0331  0.1225
11184W        W26653  10.151  13.236  12.809  0.0308  0.1278  0.1448
11185W        W26654  16.959   0.207  11.964 -0.0759 -0.4392 -0.1476
11186W        W26655  17.716   0.390  14.242 -0.0938 -0.1904 -0.0450
11187W        W26656  16.021   4.161   2.025  0.1073 -0.4189 -0.2909
11188W        W26657   0.537  11.386   2.000 -0.1994  0.3773  0.4169
11189W        W26658   5.529  14.337   4.323  0.0152 -0.0025  0.0712
11190W        W26659   1.920   6.003  14.307 -0.1917 -0.3086  0.0133
11191W        W26660   0.494   5.409   1.075  0.1227 -0.2639  0.0118
11192W        W26661   2.413   3.343   3.463 -0.1012 -0.1429 -0.3213
11193W        W26662  16.989  16.171   1.187 -0.1002  0.0939  0.1542
11194W        W26663  15.754   3.429  14.094  0.0641 -0.1599  0.3683
11195W        W26664  13.978   4.072   4.495  0.1609 -0.2242 -0.0109
11196W        W26665  15.908  16.460  15.145  0.1568  0.1427  0.1077
11197W        W26666  11.815   7.314  12.998  0.0884  0.0509  0.0348
11198W        W26667  14.971   7.564   3.589  0.4380 -0.3183  0.0861
11199W        W26668  17.058   3.356   1.384 -0.0306 -0.1908 -0.1084
11200W        W26669   1.942  15.955  16.378  0.1772  0.2765 -0.2050
11201W        W26670   8.863   2.604   1.375  0.2573 -0.2082 -0.0866
11202W        W26671  12.305  13.907   4.890 -0.2038 -0.0315  0.0305
11203W        W26672  10.645  16.585   5.637  0.0881  0.3462  0.1180
11204W        W26673  13.081   9.632   4.012  0.4352 -0.2826  0.0900
11205W        W26674   4.423  12.050  15.785 -0.1135 -0.1168  0.2709
11206W        W26675  13.112   8.900   1.314 -0.3105 -0.1629 -0.1848
11207W        W26676  13.495  14.688   0.720 -0.0141 -0.2014  0.0945
11208W        W26677  16.009  10.915  13.503 -0.3300  0.2670  0.0641
11209W        W26678   8.895  11.950  15.821 -0.1973  0.1111  0.3559
11210W        W26679   3.200   5.997   6.152  0.0758 -0.1126 -0.1496
11211W        W26680  17.022  12.599   3.849 -0.0750  0.1723  0.0356
11212W        W26681   4.735  15.430  12.925  0.2417  0.3042 -0.0296
11213W        W26682  10.407   6.218   5.437  0.1212 -0.0186  0.1454
11214W        W26683   4.947   3.727  15.862 -0.3110 -0.1805 -0.0836
11215W        W26684  15.129   8.930  15.207  0.1131 -0.2346  0.3959
11216W        W26685  17.139  15.665   1.044 -0.1300  0.0540  0.0376
11217W        W26686  10.964  11.729   0.512 -0.0855  0.1166  0.1314
11218W        W26687   9.910   3.439   1.073  0.0152 -0.0221  0.0730
11219W        W26688   9.036   4.470  16.573 -0.1295 -0.1094 -0.2185
11220W        W26689   8.940  16.192   2.707  0.0389  0.0543  0.3490
11221W        W26690  14.811  10.484  13.456  0.0553 -0.2796 -0.1503
11222W        W26691   3.936  13.104  12.786 -0.0553 -0.3439 -0.5012
11223W        W26692   6.384   9.785  13.897  0.2116 -0.1022  0.0742
11224W        W26693   7.452   1.203   2.250  0.0590  0.1092 -0.0261
11225W        W26694  11.106  10.577   3.060  0.2447  0.2456  0.3237
11226W        W26695  11.612   9.599  13.073  0.0694  0.0454 -0.2495
11227W        W26696  14.905  17.412  14.108 -0.1162  0.3524 -0.0981
11228W        W26697  17.557  14.253   2.479 -0.0591 -0.1191 -0.0869
11229W        W26698   6.215  10.501   4.690 -0.1630 -0.3256  0.0354
11230W        W26699  17.312  13.126  13.771  0.1387  0.0740 -0.0898
11231W        W26700   4.390   0.786  12.061 -0.1592  0.0734 -0.1796
11232W        W26701  14.202  15.478  14.145 -0.0160 -0.2991 -0.1330
11233W        W26702  13.287  14.634  15.982  0.2726  0.0739  0.0102
11234W        W26703   1.586  11.488   3.862 -0.0136  0.1192  0.0075
11235W        W26704   1.510  14.267   5.098 -0.0645  0.1428  0.2474
11236W        W26705   7.663   5.399   3.816  0.3190  0.2727  0.1083
11237W        W26706   5.749   8.599  11.986 -0.1881 -0.2127 -0.1341
11238W        W26707  11.647   6.982  11.542  0.4359 -0.2218  0.0228
11239W        W26708   2.223  16.289  11.993 -0.1201 -0.2866  0.3338
11240W        W26709   6.385   2.456  13.663 -0.2475 -0.1383 -0.2469
11241W        W26710  14.111  10.440   0.232  0.1837  0.2371 -0.0266
11242W        W26711  12.704   5.929  12.720  0.3407 -0.1300 -0.0520
11243W        W26712   6.337   2.458   2.622  0.1246  0.0995  0.1104
11244W        W26713   1.801  10.042  11.729  0.1135 -0.1817 -0.0545
11245W        W26714   8.842   2.688  14.593  0.1378  0.2579  0.4079
11246W        W26715  16.554   2.253   2.467 -0.0515 -0.4419 -0.2271
11247W        W26716  17.546   7.732  13.785  0.1616 -0.0043 -0.1867
11248W        W26717   0.943  12.934   5.042 -0.1018 -0.0597  0.1932
11249W        W26718   3.754   5.664  14.372  0.1689  0.0262 -0.1431
11250W        W26719  15.711   4.839   6.162  0.0777  0.0027  0.0449
11251W        W26720  13.206  16.491   1.618  0.0316  0.0212 -0.0512
11252W        W26721   3.170   9.464   1.299  0.2154 -0.0205 -0.1908
11253W        W26722   1.679  15.364  15.225 -0.0407 -0.1758  0.0927
11254W        W26723   2.940   4.767  10.162  0.2535 -0.0679  0.0512
11255W        W26724  16.826  17.695   0.031 -0.1200  0.1178  0.1018
11256W        W26725  14.977  17.208  12.270  0.0399  0.2227  0.2063
11257W        W26726  12.781   7.071  10.876 -0.2219 -0.1188  0.0378
11258W        W26727  13.929  10.902  16.465  0.2090  0.1396  0.0424
11259W        W26728  11.799  12.595   1.194 -0.2213  0.2980  0.1924
11260W        W26729  10.380  12.030   3.942  0.1318 -0.0304  0.0892
11261W        W26730   1.143   8.195  16.596 -0.0231  0.1479 -0.0206
11262W        W26731   6.206   4.929  14.848 -0.2648  0.1474 -0.0940
11263W        W26732  16.989  15.436  11.986  0.3882  0.1213  0.2596
11264W        W26733  10.605   1.971   5.206 -0.3056  0.1358 -0.1082
11265W        W26734   3.150  17.277   3.460  0.0618 -0.0297  0.0336
11266W        W26735   5.297   5.776  14.046  0.0753  0.3940 -0.2611
11267W        W26736   2.367  15.148  11.425  0.0219  0.2652 -0.3316
11268W        W26737   7.941   2.900  15.594  0.0431 -0.2409  0.6295
11269W        W26738  12.522  16.838   1.164  0.0107 -0.2483 -0.2015
11270W        W26739   2.846  10.021   2.069  0.3175  0.3432  0.1042
11271W        W26740  13.231  13.950   0.147  0.3028  0.1071 -0.3352
11272W        W26741   2.646  13.449   0.564  0.0648  0.0183  0.1619
11273W        W26742   1.430  15.617  16.062 -0.1136 -0.0489 -0.1307
11274W        W26743   6.901  11.104   3.250  0.1968  0.0650  0.1922
11275W        W26744   7.374   1.824   4.488 -0.1905 -0.0238  0.0890
11276W        W26745   5.496  10.000  11.297  0.1957 -0.0949 -0.2352
11277W        W26746  17.186   1.046   4.638  0.1213 -0.0686  0.3664
11278W        W26747  14.241   0.704   3.160  0.3190  0.5405  0.3095
11279W        W26748   1.216  14.251  14.892  0.1415 -0.0281  0.0348
11280W        W26749   3.354  14.174  14.152  0.0325 -0.0215 -0.0278
11281W        W26750  11.910   4.651   5.706  0.1988 -0.1794  0.0815
11282W        W26751  12.934   5.224  13.057 -0.1502  0.1636 -0.1164
11283W        W26752   4.809   3.004   2.139 -0.2513 -0.1057 -0.2062
11284W        W26753   5.227  13.521  15.432 -0.4420 -0.2251 -0.1310
11285W        W26754  12.341  12.585   2.858  0.0204 -0.2142 -0.4456
11286W        W26755  14.037  15.616  13.611  0.0805 -0.2898 -0.0748
11287W        W26756   0.357  16.935   1.417 -0.0350 -0.0973  0.0815
11288W        W26757   7.245   4.144  15.756  0.1072 -0.1581 -0.1646
11289W        W26758  14.193   7.956   6.115 -0.0985 -0.0499 -0.0600
11290W        W26759  11.642   6.966   3.982  0.2367  0.1815  0.2197
11291W        W26760   0.117  14.489   4.161 -0.0529 -0.2023  0.0057
11292W        W26761   4.675   1.513  12.273 -0.2528  0.0161  0.0671
11293W        W26762   4.063   5.017   0.212 -0.0007 -0.1424  0.0345
11294W        W26763  14.483   5.675  12.052  0.1016  0.2652  0.0115
11295W        W26764  15.920   4.134   2.529 -0.0735 -0.1895  0.0192
11296W        W26765  13.951   8.733   6.406 -0.0278 -0.0782 -0.2851
11297W        W26766  15.122   0.680  11.662  0.1731  0.0953  0.1137
11298W        W26767   8.370  14.043  16.368 -0.1142 -0.3826 -0.1769
11299W        W26768  14.330  14.367  12.772  0.0172  0.1467  0.1218
11300W        W26769   9.502   4.270   1.200  0.1751  0.1510  0.1856
11301W        W26770  16.535   2.741   1.729  0.1156  0.0385  0.0433
11302W        W26771  10.441   8.914  14.525 -0.0555 -0.3108  0.1602
11303W        W26772   8.901  10.048  13.617  0.2985 -0.0016  0.0248
11304W        W26773   3.859  16.779   5.109  0.0674 -0.1976 -0.0493
11305W        W26774  14.006   0.152  15.717  0.0227 -0.0938 -0.0465
11306W        W26775   3.829   6.017   6.222  0.0357 -0.0989 -0.1624
11307W        W26776  15.806   2.158   6.015  0.1855 -0.3297  0.1289
11308W        W26777  14.015  15.297   1.859 -0.0180 -0.0753  0.0754
11309W        W26778  13.322   8.197   2.294  0.0245  0.0854 -0.0839
11310W        W26779  16.894  13.395  13.894  0.1149 -0.0108  0.2104
11311W        W26780   3.602   5.750  12.933  0.0271  0.2500  0.1170
11312W        W26781  15.085   0.296  16.645 -0.0839  0.3662 -0.0504
11313W        W26782  14.894   8.231   0.885  0.3396  0.0078 -0.1762
11314W        W26783  10.036   0.609  13.379 -0.0097  0.3629 -0.4317
11315W        W26784   5.580   1.621   1.763  0.1504 -0.1283 -0.1514
11316W        W26785  16.015  10.067  13.630 -0.0640 -0.0482 -0.1656
11317W        W26786   7.279   6.786   6.214  0.0632 -0.0873  0.0229
11318W        W26787  15.843  11.101   1.220 -0.3558  0.1614 -0.1735
11319W        W26788   7.631  15.403   0.051  0.0096  0.2231 -0.1648
11320W        W26789  13.103   6.628  16.472  0.1378 -0.1508 -0.0560
11321W        W26790   7.156  10.129  12.122 -0.3216 -0.0521 -0.2860
11322W        W26791  12.604   4.658  16.842  0.2612 -0.2109 -0.0281
11323W        W26792   3.455   3.677   4.364  0.2110  0.0303 -0.3259
11324W        W26793  15.837  17.411  12.738 -0.3324 -0.1564  0.2276
11325W        W26794   6.808   0.914  12.464  0.0647 -0.0507  0.0667
11326W        W26795  17.108  16.711   6.217  0.1705  0.2616 -0.0887
11327W        W26796   1.990   0.301  12.561 -0.0028 -0.3906 -0.0922
11328W        W26797  15.026  16.717   2.339  0.0149 -0.2380 -0.0965
11329W        W26798   2.022   9.252  12.008 -0.0203 -0.0013 -0.0234
11330W        W26799   4.210   9.652   0.370 -0.0034 -0.2064 -0.1246
11331W        W26800  14.109   1.364  15.023  0.1193  0.1928  0.0339
11332W        W26801   5.919   2.270   3.426  0.0701  0.1560  0.3734
11333W        W26802  11.484  12.211  13.451 -0.2745  0.1021 -0.0945
11334W        W26803   6.083   9.188   2.897  0.0707 -0.3140  0.0153
11335W        W26804   9.595   3.691  13.422 -0.2337 -0.1066 -0.0449
11336W        W26805   3.830  11.789  13.745 -0.3827 -0.0452 -0.1882
11337W        W26806  11.597   5.538   3.330  0.1060 -0.1737 -0.0132
11338W        W26807   5.363   7.168  13.001 -0.1353 -0.3203  0.0970
11339W        W26808   0.224   4.816  15.872 -0.0563 -0.4259 -0.2508
11340W        W26809  10.951   5.884  12.008  0.1176 -0.0152 -0.0126
11341W        W26810  11.558  17.422   4.538  0.4488  0.3778  0.0499
11342W        W26811   6.993   7.064  10.724  0.4069 -0.0640  0.0663
11343W        W26812  15.432   0.205   4.471 -0.0557  0.3262  0.0118
11344W        W26813  17.397   6.872  15.279  0.1247  0.0160 -0.0970
11345W        W26814   4.041   3.925  10.449 -0.0601  0.2117  0.1615
11346W        W26815  15.946  11.514   2.991 -0.0983  0.3695 -0.2692
11347W        W26816   9.347   7.639   0.783  0.1102  0.0946  0.2094
11348W        W26817  17.427   0.915   5.033  0.0555 -0.1597  0.1629
11349W        W26818  16.855   1.098   3.905  0.0688  0.0248  0.2595
11350W        W26819   3.794  10.769   3.827 -0.2430 -0.2326  0.1725
11351W        W26820  14.091   9.288   4.665 -0.1110 -0.3138 -0.3058
11352W        W26821   6.107   9.677   2.717 -0.1529  0.1924  0.0750
11353W        W26822   8.742   4.067  14.778 -0.1742  0.0699 -0.0926
11354W        W26823  10.663  12.997   0.450 -0.1037  0.1625 -0.0541
11355W        W26824   3.944  17.063  16.054 -0.1657  0.1946 -0.3137
11356W        W26825  11.035  17.733  16.255  0.0432 -0.2698 -0.1315
11357W        W26826   0.587  13.293   4.821 -0.0632 -0.1020 -0.1760
11358W        W26827   8.395  13.330  13.934 -0.0158  0.1414  0.1757
11359W        W26828   8.160   1.905  16.131 -0.0182  0.0572 -0.4133
11360W        W26829  14.287   4.223  14.583  0.1365 -0.3262  0.1070
11361W        W26830   2.392   4.289  14.180  0.0894  0.0143  0.0499
11362W        W26831   2.910  10.052  14.546 -0.1993  0.1187 -0.1085
11363W        W26832   2.962  12.772   4.518  0.1723 -0.0354  0.1057
11364W        W26833   0.007   3.853   4.889  0.2036  0.1016  0.0905
11365W        W26834  12.608  15.562   1.295 -0.0479  0.1046 -0.1362
11366W        W26835   9.825   7.423   0.873 -0.0309 -0.0951 -0.0346
11367W        W26836   0.585  15.866   4.296  0.0593 -0.3552 -0.2286
11368W        W26837   3.992  17.536   2.369 -0.0186  0.0144 -0.0426
11369W        W26838   1.486   1.171   2.181  0.3013 -0.0905  0.1660
11370W        W26839  13.785  17.041  14.892  0.1321  0.0549 -0.0155
11371W        W26840   4.654  14.395   5.117  0.1582 -0.0852 -0.1099
11372W        W26841   2.347   3.949   4.598 -0.1967 -0.0013 -0.2145
11373W        W26842   4.860  13.300   2.263 -0.0092  0.2874  0.0965
11374W        W26843   2.646   6.933  13.787 -0.1310  0.2990  0.0173
11375W        W26844   6.777  14.297  15.148  0.1356  0.0312 -0.0017
11376W        W26845   4.706   9.440   4.957  0.0957 -0.0217  0.3302
11377W        W26846  16.472  13.745   1.590  0.1604 -0.3409 -0.1403
11378W        W26847  10.942  12.585   1.341  0.2914  0.0322  0.1351
11379W        W26848  14.877   5.209   4.597 -0.1609 -0.2693 -0.2930
11380W        W26849   6.993   7.016  14.632 -0.1753  0.0076 -0.0635
11381W        W26850  16.754   3.977   1.423  0.0825  0.2067  0.0098
11382W        W26851   0.330  14.588  14.054  0.0358 -0.1165 -0.0770
11383W        W26852   1.229   9.048  15.104  0.0690  0.0282  0.2525
11384W        W26853   5.330  11.864   2.527  0.2802  0.3153  0.4888
11385W        W26854   8.589   4.232   1.406 -0.1785 -0.4290 -0.1403
11386W        W26855  12.227   0.937  12.198 -0.0555  0.3368  0.0144
11387W        W26856   8.522  15.834  13.751 -0.2102  0.1599 -0.2606
11388W        W26857   0.552   7.163   3.315 -0.1884  0.1710  0.1266
11389W        W26858  14.069  17.273  11.985  0.0063  0.1249 -0.0166
11390W        W26859  14.290  10.893   3.482  0.1738  0.0918 -0.0902
11391W        W26860  10.763  17.393   4.796  0.0371  0.1592  0.1398
11392W        W26861  16.338   8.054  14.874  0.0078  0.3931  0.0634
11393W        W26862   0.227   0.675   2.089 -0.0219 -0.0295 -0.0786
11394W        W26863  14.441   6.992  14.831  0.1142  0.1414  0.4202
11395W        W26864  14.754   3.997  14.400  0.0295  0.1961 -0.0239
11396W        W26865  15.502  16.919   5.863  0.0939 -0.0274 -0.0510
11397W        W26866  12.659   4.268  13.205  0.0487 -0.2377 -0.0338
11398W        W26867  13.462   8.543   4.677 -0.0772 -0.1136 -0.0693
11399W        W26868  14.974  12.557  11.557 -0.3485 -0.2076  0.2371
11400W        W26869   2.000   8.052   2.625 -0.0802  0.2969 -0.2604
11401W        W26870  12.402  16.495   4.878  0.0801 -0.0696  0.4027
11402W        W26871  11.243   6.684   1.384  0.3225 -0.1713 -0.3355
11403W        W26872   6.182   0.498  14.785 -0.1592 -0.1699 -0.2095
11404W        W26873   0.954  11.708   2.097 -0.0409 -0.3094 -0.0117
11405W        W26874   2.079  10.893   0.474  0.1462 -0.1167  0.1808
11406W        W26875  16.050   1.772  12.699 -0.3622 -0.0173  0.0212
11407W        W26876  14.145  16.428   1.180  0.0823 -0.0396 -0.0507
11408W        W26877  11.246  15.292  12.541 -0.0223  0.2464 -0.2136
11409W        W26878  15.453   8.223   1.709 -0.3135 -0.0848 -0.0945
11410W        W26879   8.842   1.089   0.421  0.3717  0.0307 -0.0150
11411W        W26880   9.820   9.548  16.181  0.2323  0.1655  0.1995
11412W        W26881  15.975  12.144   0.092  0.0202 -0.2081 -0.1255
11413W        W26882   0.084  15.652  11.141 -0.0398 -0.1312  0.1996
11414W        W26883  17.702   1.856  13.289 -0.2210 -0.2742  0.0307
11415W        W26884  12.606   9.179  16.807 -0.1536  0.1028 -0.0457
11416W        W26885   9.281   0.483   5.134  0.1519 -0.0418  0.2954
11417W        W26886   8.679   7.797  12.673  0.2933 -0.0603 -0.2451
11418W        W26887  14.903   4.595   2.870 -0.1887  0.2147  0.0423
11419W        W26888  12.255  15.052  13.140  0.1374  0.1933 -0.0878
11420W        W26889  13.786   2.023  14.347  0.1977 -0.1997  0.0396
11421W        W26890  11.038   8.444  14.807  0.1156  0.2458  0.2665
11422W        W26891   1.086  16.053   4.843  0.0551  0.1084 -0.0883
11423W        W26892   0.977   5.313   0.990  0.0591 -0.0624 -0.1955
11424W        W26893   7.222   7.333  15.505 -0.2691  0.1181 -0.3783
11425W        W26894   3.697  12.710  15.825  0.0796 -0.2044  0.0994
11426W        W26895   8.308   9.563  14.873  0.1003  0.1299  0.1204
11427W        W26896   0.673  12.878   4.560  0.0220  0.1103  0.1185
11428W        W26897  11.196   3.087   3.319  0.3035  0.1845  0.3377
11429W        W26898  15.112   3.579   3.607  0.2231 -0.1613  0.2697
11430W        W26899  13.786   1.301   4.260  0.2222 -0.2206  0.1827
11431W        W26900   5.207   4.998  14.497  0.3043  0.2217  0.2183
11432W        W26901  11.311   5.693  13.267  0.1283  0.0962  0.0295
11433W        W26902   4.928   8.632   5.342 -0.0837 -0.2589  0.0111
11434W        W26903   0.184   6.656  10.940  0.0290  0.1613  0.3049
11435W        W26904   7.909   2.463  15.729  0.2746  0.0131  0.0532
11436W        W26905  13.188   1.036  12.782  0.1320 -0.2201  0.1740
11437W        W26906   9.527   8.582   4.666  0.0545  0.2325  0.2161
11438W        W26907   9.573  14.061  15.844  0.2300  0.1596  0.1184
11439W        W26908   2.128  10.483   2.149  0.1283  0.0966 -0.3076
11440W        W26909   4.304   7.681   5.246 -0.0714 -0.2718 -0.0975
11441W        W26910  14.579  13.721  16.291  0.1471 -0.0481 -0.0093
11442W        W26911  10.053   6.484  15.148 -0.1578 -0.3335 -0.2942
11443W        W26912   0.458  15.917  11.395 -0.2263  0.0548  0.0392
11444W        W26913   3.196   1.930  15.162 -0.0177  0.2658 -0.0691
11445W        W26914   1.968   4.589   2.111 -0.1592 -0.2965 -0.1221
11446W        W26915  15.865   5.147  14.975 -0.0296 -0.0403 -0.2613
11447W        W26916   6.690   8.458  12.343 -0.2333 -0.4600  0.1447
11448W        W26917   6.991  11.933  16.822  0.2083 -0.1056 -0.0415
11449W        W26918  10.342   0.059   3.981  0.0251  0.1831 -0.0332
11450W        W26919  15.730  14.207  15.323 -0.1234  0.0752  0.0226
11451W        W26920   1.377   7.932  12.211  0.1422  0.3194 -0.0659
11452W        W26921   1.718  14.887  14.321  0.2607 -0.3200  0.1158
11453W        W26922   5.561   8.053  13.540  0.2271  0.0490 -0.1451
11454W        W26923  13.232  13.240   1.730  0.0575  0.0658  0.3948
11455W        W26924   6.518  13.913   1.444  0.3405  0.1285 -0.0507
11456W        W26925  13.328  10.691   1.348 -0.1318  0.0704 -0.0312
11457W        W26926  15.778  11.389   5.038 -0.0700  0.1349 -0.1146
11458W        W26927  13.786  11.801   2.580  0.2153 -0.1199  0.1443
11459W        W26928   7.693   4.016   6.091  0.1221  0.0354  0.0329
11460W        W26929   0.010   7.448  11.969  0.1220  0.1123  0.0032
11461W        W26930   3.413  17.026  15.153  0.0170 -0.0222  0.0223
11462W        W26931  15.971   9.191  11.546  0.1349  0.1005 -0.0324
11463W        W26932   8.841  11.508  16.116 -0.3087  0.1130 -0.0441
11464W        W26933  11.325  12.520  12.577  0.0282  0.1562 -0.0997
11465W        W26934   3.974  12.849  14.555  0.1212 -0.0383  0.2574
11466W        W26935   1.382  12.569   9.931 -0.1379 -0.1533  0.0469
11467W        W26936   9.598  13.586  14.211  0.1781 -0.1535  0.2173
11468W        W26937  13.173   8.221  10.878  0.0997  0.2362 -0.2304
11469W        W26938   8.428   1.359   3.511 -0.0828 -0.1318 -0.3331
11470W        W26939  13.867  14.899   3.661 -0.4125 -0.0135 -0.2436
11471W        W26940  10.547   5.142   2.702 -0.2295  0.0834 -0.0488
11472W        W26941  11.067   3.386  16.347  0.0564  0.4641  0.0426
11473W        W26942   5.348   8.856   4.122 -0.1147 -0.2875 -0.0077
11474W        W26943   1.635   8.400   2.765 -0.1771 -0.4616  0.1152
11475W        W26944  10.871   3.053   2.157  0.1355  0.0839 -0.1137
11476W        W26945  12.537  11.456  12.870  0.3085  0.1072 -0.2415
11477W        W26946   2.080   4.208  11.781  0.0240 -0.1256  0.0713
11478W        W26947   2.368   9.570   3.743 -0.1702 -0.0760  0.1053
11479W        W26948  16.353   2.583   3.789 -0.0658 -0.1226 -0.0079
11480W        W26949  17.112  12.405   3.387 -0.1198  0.2998  0.3460
11481W        W26950  10.424  13.256   6.139 -0.1011  0.0181  0.0640
11482W        W26951   6.978   5.636   4.411  0.0758 -0.0013  0.0510
11483W        W26952   9.413  17.426   4.607  0.2203  0.0267 -0.4416
11484W        W26953   0.363  13.205  11.902 -0.1411  0.0531  0.0111
11485W        W26954   0.071   2.231   1.889  0.2420 -0.1626 -0.0732
11486W        W26955   2.574   6.376  12.473  0.0294  0.0267  0.0661
11487W        W26956   3.264   4.713   2.245 -0.2774 -0.0338 -0.2690
11488W        W26957   4.280  11.098  13.889 -0.0352 -0.1419 -0.0287
11489W        W26958   3.090  15.877  12.388  0.0106 -0.1731 -0.2559
11490W        W26959   5.172   0.197  14.958  0.4035  0.0301  0.0352
11491W        W26960  16.204   5.187   4.861  0.1981 -0.1536  0.0375
11492W        W26961   5.211   7.453  10.711 -0.2533  0.0825  0.1608
11493W        W26962   4.354   4.540   5.898  0.1981 -0.0747  0.0231
11494W        W26963   8.329   1.686  15.437 -0.0531  0.1885 -0.0304
11495W        W26964  12.161   3.986  14.361 -0.0261 -0.0031  0.0173
11496W        W26965  12.960  12.094   0.880 -0.1378  0.2734  0.2033
11497W        W26966  11.074  12.085  13.747  0.2348  0.3520  0.0593
11498W        W26967  17.509   3.012   5.141 -0.0520 -0.1810 -0.1335
11499W        W26968   0.876  15.090   3.501  0.1488 -0.3900 -0.2898
11500W        W26969  17.202  15.445   5.590  0.4198  0.1659  0.0375
11501W        W26970   8.289   5.698  15.230 -0.1120 -0.3904  0.1457
11502W        W26971   8.044  15.493   2.970 -0.4333  0.0961  0.0979
11503W        W26972  17.725   8.844   1.400 -0.0938 -0.0712  0.1559
11504W        W26973   5.167  16.778   2.816  0.0730  0.1964 -0.1050
11505W        W26974  16.797  15.857  15.150 -0.1398  0.1297 -0.0555
11506W        W26975  16.821   2.153  10.416  0.1830  0.1580 -0.0325
11507W        W26976  17.726   9.656  15.320 -0.0848  0.1669  0.2123
11508W        W26977  10.286   9.645   1.641  0.1917  0.0546  0.1093
11509W        W26978   1.103   4.894   0.019  0.0877 -0.0917  0.0466
11510W        W26979   9.153   8.636  15.047 -0.1176 -0.0374  0.0769
11511W        W26980   9.394   4.386  12.059 -0.1309 -0.0484  0.1453
11512W        W26981   2.846  15.347  13.030 -0.0304  0.1120 -0.0625
11513W        W26982   6.941   6.379  15.286 -0.0752  0.2456 -0.0962
11514W        W26983  12.094  15.270   3.213  0.1891  0.0418 -0.0333
11515W        W26984  16.242   6.595   2.764 -0.0088 -0.0522 -0.1438
11516W        W26985   2.623   5.861  16.482 -0.0002  0.0145 -0.0145
11517W        W26986  14.066  12.943   0.518 -0.0356  0.3902 -0.1186
11518W        W26987  14.594   1.183  16.712 -0.1645  0.0418  0.2712
11519W        W26988  10.824  16.653   3.617  0.2334  0.1759  0.0348
11520W        W26989   9.238  12.845   4.561  0.1158  0.1332 -0.0899
11521W        W26990   4.149  17.339  16.502 -0.3957  0.0471  0.2735
11522W        W26991  16.839   2.594  14.764 -0.4015 -0.0917  0.2692
11523W        W26992   8.519  11.944  14.990  0.2070  0.1948 -0.0025
11524W        W26993   7.156   9.873   2.022  0.1805 -0.0591 -0.2210
11525W        W26994   3.574   7.999  12.682 -0.1888 -0.1403 -0.3019
11526W        W26995   2.184  15.777   0.324 -0.0422 -0.0282 -0.3880
11527W        W26996   4.281  15.282   5.000  0.0106  0.0226  0.3286
11528W        W26997   9.483   2.501   1.102 -0.0860  0.5697  0.0591
11529W        W26998  14.719  16.427   4.116  0.1238  0.0032  0.0131
11530W        W26999  16.008   8.169  11.212  0.1745  0.1460  0.0681
11531W        W27000  10.919  13.626  16.267  0.0615 -0.0165 -0.1287
11532W        W27001  10.258  17.159   1.871  0.2437 -0.0103 -0.0801
11533W        W27002  12.570   3.191  15.745  0.0711 -0.2367  0.2667
11534W        W27003   3.684   7.802   3.467 -0.1138  0.0691  0.0034
11535W        W27004   8.960   1.903  13.270 -0.1205 -0.0448 -0.4829
11536W        W27005  14.979   7.159  16.595  0.1529 -0.1580  0.3085
11537W        W27006   5.343  16.704   0.743 -0.2289 -0.1939  0.0614
11538W        W27007   3.045  15.814   0.142  0.0068 -0.3125 -0.1312
11539W        W27008  11.671   4.764  11.532  0.2287 -0.0202 -0.0105
11540W        W27009   3.030  10.851   1.087 -0.3032  0.0352 -0.2805
11541W        W27010  17.504   0.322   5.213  0.0841  0.0933  0.0906
11542W        W27011  17.717   0.302  14.896 -0.1608 -0.1244 -0.3349
11543W        W27012  12.688   2.774  12.114  0.0856  0.1093  0.2303
11544W        W27013   9.335  12.779   3.538  0.3175 -0.1224 -0.0404
11545W        W27014   9.066   2.786  15.811  0.1490 -0.1912 -0.0856
11546W        W27015  16.284   4.191  13.585 -0.0548  0.1701  0.0082
11547W        W27016   0.000  15.130  16.078 -0.1146 -0.1396 -0.2115
11548W        W27017  13.414  11.297   3.360  0.0772 -0.2705 -0.0653
11549W        W27018   7.152  13.464   2.898 -0.2321 -0.0064  0.0431
11550W        W27019   6.323  15.045   2.926 -0.0053  0.1535  0.0571
11551W        W27020  12.361  14.068  11.595  0.2260  0.2236 -0.1902
11552W        W27021   6.310  15.792   4.166 -0.1627 -0.2194  0.0491
11553W        W27022  12.553  11.417  13.357  0.1054  0.2642 -0.1199
11554W        W27023   5.968  14.792   6.043  0.1563 -0.1638 -0.2288
11555W        W27024   2.563   8.213  16.331 -0.2448  0.3204 -0.1771
11556W        W27025   3.109  14.471  12.315  0.4214 -0.0524  0.2904
11557W        W27026   2.758  11.346  16.790 -0.1061 -0.2695  0.3206
11558W        W27027  15.157   4.783  11.915 -0.2962  0.1298 -0.1632
11559W        W27028   6.828   9.243  13.397 -0.0926 -0.0214 -0.3146
11560W        W27029  13.765  15.064   0.995 -0.0786 -0.0973 -0.0380
11561W        W27030   0.861   5.579  12.774  0.1636 -0.2272  0.0293
11562W        W27031   1.454  16.858   2.999 -0.1326 -0.0399 -0.0391
11563W        W27032  14.141  14.295  13.637  0.1916 -0.1149 -0.0885
11564W        W27033   0.591   1.210   5.116  0.0019  0.0191 -0.1633
11565W        W27034   6.966   9.687  16.031  0.2205  0.3929 -0.0738
11566W        W27035   2.185  14.187   1.186  0.0111 -0.2090 -0.4536
11567W        W27036   6.480   9.374   3.155  0.2406  0.0435  0.1524
11568W        W27037   3.546   2.535   2.552  0.1537  0.3076  0.0816
11569W        W27038  14.799   7.533  16.045 -0.1099 -0.2752 -0.1427
11570W        W27039   4.948  11.941   4.017  0.1492 -0.1477 -0.0625
11571W        W27040   6.479  16.850  16.328  0.0262  0.0692  0.2724
11572W        W27041  10.038  16.219   3.533  0.1589  0.0116 -0.1030
11573W        W27042  12.051  17.106  15.274  0.0785  0.0760 -0.1610
11574W        W27043   3.027   7.323  14.911  0.2051  0.0966 -0.0261
11575W        W27044  16.459   1.510   2.888 -0.0564  0.0605 -0.0147
11576W        W27045  11.915  14.577   1.530 -0.0823 -0.0137  0.1674
11577W        W27046   8.580  17.500   2.651 -0.1763 -0.3849 -0.0148
11578W        W27047  14.366  17.485  15.647  0.1335 -0.2656 -0.2640
11579W        W27048   9.140  10.356   5.846  0.1607  0.0046 -0.1388
11580W        W27049   2.137  12.454  12.911  0.1505 -0.0068 -0.2110
11581W        W27050  14.797   2.021  12.081  0.3533  0.0311  0.0087
11582W        W27051  10.723   0.876   3.470  0.2494 -0.1236 -0.0256
11583W        W27052   7.658   0.319   4.132 -0.0178 -0.1112 -0.0073
11584W        W27053   6.621   0.741   1.771 -0.2894 -0.0889  0.0673
11585W        W27054  10.193   3.880   2.407  0.1405  0.1318  0.2862
11586W        W27055   5.944  12.307   0.703  0.0545 -0.0405  0.2263
11587W        W27056  12.728   0.451  13.560  0.1850 -0.1570 -0.0940
11588W        W27057  14.514   2.864  15.089  0.0448 -0.2107  0.0080
11589W        W27058  16.103   0.711   2.753 -0.1918 -0.3587  0.1824
11590W        W27059  12.890   4.326   1.755  0.1192  0.1454 -0.1590
11591W        W27060   3.178   6.874   4.416 -0.3600  0.5529  0.0982
11592W        W27061  15.690  14.989  11.837 -0.0232 -0.1613  0.1371
11593W        W27062   7.213  14.533  15.277  0.1721 -0.3737 -0.0306
11594W        W27063   6.136   4.053  12.329 -0.0474 -0.3590  0.2127
11595W        W27064  13.970   0.835  16.307 -0.0377  0.0280 -0.0543
11596W        W27065  10.015   4.095  15.939  0.0445  0.1666 -0.2691
11597W        W27066  16.587  11.699  12.457 -0.0840  0.0004  0.0879
11598W        W27067   3.372   8.946   0.757 -0.0556 -0.1145 -0.0425
11599W        W27068   6.522   3.258   1.723 -0.1260 -0.1643 -0.2142
11600W        W27069   5.843   2.660   0.424 -0.1188  0.3088 -0.0666
11601W        W27070   5.933   9.040   4.678 -0.1103  0.0619 -0.2053
11602W        W27071   7.807  14.718  16.003  0.1184  0.1001 -0.1054
11603W        W27072  14.885  14.802  13.448  0.0482  0.0380  0.0548
11604W        W27073  11.475  13.582   4.999  0.1038  0.0622 -0.1123
11605W        W27074  11.072   0.566   0.376 -0.1632  0.1144 -0.2361
11606W        W27075  12.713   2.791  15.449 -0.0382 -0.1507  0.0413
11607W        W27076  11.187   9.365   2.123 -0.3286 -0.1755  0.1561
11608W        W27077   5.562  10.117   2.637  0.1501 -0.1505  0.0244
11609W        W27078  12.225  13.331   4.169  0.4553 -0.2227  0.2214
11610W        W27079   6.088  17.722   4.638 -0.1256  0.2348 -0.2023
11611W        W27080  16.212   2.276  12.365  0.0322 -0.0097  0.2768
11612W        W27081   6.196  15.267   4.894  0.0100  0.1913 -0.0286
11613W        W27082   1.002   4.534   4.315  0.4233  0.1645 -0.0554
11614W        W27083  11.764   4.400  14.780  0.1738 -0.1127  0.1779
11615W        W27084  12.762   9.197  12.060 -0.1669 -0.0925  0.0985
11616W        W27085   5.589  13.942   2.628  0.2784 -0.1863  0.0142
11617W        W27086   0.166   7.482  15.961  0.0331  0.1104 -0.0364
11618W        W27087   9.176   6.177  12.410  0.2948  0.1942 -0.2298
11619W        W27088   0.317   7.045   1.445 -0.1554  0.1569  0.0387
11620W        W27089  13.203  10.472   0.805 -0.2846 -0.3951 -0.0434
11621W        W27090   9.921   8.429   5.865  0.1855  0.3097 -0.3149
11622W        W27091   2.449  13.016  14.919  0.0471  0.1166 -0.0925
11623W        W27092  11.131   6.823   2.281 -0.0311 -0.2000  0.0053
11624W        W27093  15.074   5.226   0.590  0.0664  0.2105  0.1425
11625W        W27094   6.857  14.990   4.271 -0.2292  0.0325 -0.1207
11626W        W27095  15.119   2.167  13.589 -0.2718 -0.0668  0.1188
11627W        W27096   2.491   4.898  14.786  0.0626  0.0329  0.0864
11628W        W27097   9.424   1.002   5.559 -0.3157 -0.0584 -0.1148
11629W        W27098   2.580  11.235   1.761  0.2930 -0.2387 -0.1719
11630W        W27099  12.256  10.808   4.858 -0.1004  0.0755 -0.1181
11631W        W27100   4.701   1.259  13.374  0.2732  0.2174 -0.1115
11632W        W27101   6.382  17.167   3.940  0.1707  0.0237  0.2190
11633W        W27102   7.343   9.298  14.844 -0.2355 -0.4464 -0.3055
11634W        W27103   7.171   3.906  10.814 -0.1958 -0.1949  0.0752
11635W        W27104   0.955   4.109  15.457 -0.0750 -0.0131 -0.0701
11636W        W27105   2.773  13.937   2.126  0.3265  0.0777 -0.0985
11637W        W27106   1.381  17.307  16.421 -0.0601 -0.2371  0.2447
11638W        W27107  11.546  15.012   2.454  0.1113  0.2168  0.6096
11639W        W27108   3.080   2.671  13.480  0.3381  0.1227 -0.0130
11640W        W27109  10.280  14.515   4.933  0.1281 -0.2567 -0.0720
11641W        W27110  10.551   8.329   3.999  0.1037  0.0588  0.0368
11642W        W27111  16.278   4.552   0.735 -0.0626 -0.0513  0.1959
11643W        W27112   7.969   8.685  15.256 -0.2348 -0.0779  0.0836
11644W        W27113   6.777   6.905   2.556 -0.3196  0.1762  0.0143
11645W        W27114   7.945  11.561   0.504 -0.0240  0.0884 -0.3316
11646W        W27115  11.630   0.723   0.326 -0.2351  0.5135  0.0436
11647W        W27116  11.710   5.246   4.570  0.0480 -0.0163  0.2537
11648W        W27117  13.555  13.762   0.543  0.0302  0.1424  0.1213
11649W        W27118   7.306   6.542   0.527 -0.1059  0.2507  0.0101
11650W        W27119   4.835  16.128   3.292  0.1797  0.0389  0.0387
11651W        W27120   4.943  17.041   0.937  0.0365 -0.0971 -0.2184
11652W        W27121  10.545   6.134   5.979  0.0402  0.0973 -0.1658
11653W        W27122  13.668  14.189   0.845 -0.0622 -0.2055 -0.0184
11654W        W27123   1.680  15.040  12.086 -0.0111  0.0432  0.1502
11655W        W27124   8.439  13.284  16.221 -0.0540 -0.0795  0.0038
11656W        W27125  13.361   6.862  12.827 -0.4290 -0.0068  0.0059
11657W        W27126  14.401   3.146   5.960  0.1560 -0.1945  0.1305
11658W        W27127  16.016   9.489   4.990  0.1815 -0.0296 -0.0667
11659W        W27128   4.989   8.938  13.329  0.2572  0.2164  0.0570
11660W        W27129   7.149   7.827   0.039 -0.0898 -0.2119  0.0284
11661W        W27130  12.641   0.960  13.666 -0.0024  0.2243 -0.3572
11662W        W27131  17.610  16.776  14.319 -0.0866 -0.0007  0.0492
11663W        W27132  13.037  13.901  11.835  0.0446  0.3225  0.2357
11664W        W27133  13.072   0.161  12.719 -0.1034  0.1769  0.1678
11665W        W27134  16.082  13.459  15.628  0.0547 -0.3232 -0.0830
11666W        W27135   0.757  16.451   1.006  0.0981 -0.1433 -0.1117
11667W        W27136  10.354   1.137   3.132  0.0306 -0.1873  0.1881
11668W        W27137   8.166   4.211   3.997  0.0158  0.0395 -0.1833
11669W        W27138   4.629   9.947  10.353  0.2454  0.4671  0.1209
11670W        W27139  15.334  11.214  15.828 -0.2200  0.0041 -0.2427
11671W        W27140   2.029  11.857   3.261 -0.2858  0.1515 -0.0704
11672W        W27141  11.832   0.042  15.866 -0.0712  0.2348 -0.0886
11673W        W27142  14.094   2.123  13.892  0.2036  0.0455 -0.3014
11674W        W27143  17.545  17.625   5.119  0.1105  0.0115  0.2065
11675W        W27144   0.770  17.747   1.503  0.1029 -0.0303 -0.0296
11676W        W27145   2.998  17.109   3.968 -0.0590 -0.2079  0.3104
11677W        W27146   0.648   0.725   5.170 -0.0073 -0.1102 -0.0082
11678W        W27147  16.726   2.837  14.142 -0.1619  0.0349  0.0798
11679W        W27148  16.937  13.807   3.556 -0.0665  0.3146 -0.2641
11680W        W27149   9.108  17.637  12.170  0.0408 -0.0315  0.1913
11681W        W27150   1.051   9.078  10.693  0.2995 -0.1592  0.1367
11682W        W27151   2.921   9.804  14.093  0.0205  0.1278  0.2684
11683W        W27152  14.950   8.348   1.660 -0.2271 -0.0995  0.1679
11684W        W27153  17.059   4.204   3.086  0.0045 -0.2915 -0.0742
11685W        W27154   9.129  14.680  12.787 -0.1584  0.2890 -0.1097
11686W        W27155   0.709   8.438   2.482  0.3274  0.1628 -0.1828
11687W        W27156   9.136  10.890   3.172  0.1021 -0.2849  0.0762
11688W        W27157  17.183   9.855   1.592  0.1765 -0.1467  0.3009
11689W        W27158   9.069   3.858   3.433 -0.0211  0.0639 -0.3155
11690W        W27159   7.714   9.417   4.408  0.1182 -0.1136 -0.0885
11691W        W27160   2.680   6.019   3.744 -0.0904 -0.0127  0.0919
11692W        W27161  16.644  10.375   2.593 -0.0105  0.0384  0.3732
11693W        W27162   4.448  14.792   1.345  0.1156  0.1663  0.1340
11694W        W27163  13.575  17.492  13.095 -0.2549 -0.1115 -0.2346
11695W        W27164   1.920   7.442   0.577  0.0247  0.1509 -0.0391
11696W        W27165  10.057   6.700   0.330 -0.0708  0.0627 -0.1160
11697W        W27166   5.909   5.637  14.844 -0.2923  0.1817  0.2437
11698W        W27167  13.548   3.026  11.563  0.0367 -0.1296 -0.0290
11699W        W27168   3.280   5.757   0.425  0.1072 -0.2713 -0.0562
11700W        W27169   6.415   2.679  14.942  0.0766 -0.0291  0.1595
11701W        W27170   0.608   9.301  15.902 -0.1583  0.1655 -0.0947
11702W        W27171  16.430  16.038  12.538 -0.2123  0.2268 -0.0618
11703W        W27172   5.300  14.426   5.855 -0.2528  0.0457  0.2726
11704W        W27173  14.689  15.082   4.671 -0.1144 -0.0906 -0.2057
11705W        W27174  17.514   4.192   0.616  0.2145 -0.2435 -0.0013
11706W        W27175  15.755   9.360  12.611 -0.0293 -0.4573 -0.0078
11707W        W27176   7.670  16.375  14.753  0.4133  0.2818 -0.1119
11708W        W27177   5.949   4.757  15.819  0.1615  0.4413 -0.0876
11709W        W27178  11.791  14.812  12.841 -0.0226  0.0830  0.3008
11710W        W27179   3.127   5.781  15.802 -0.2454 -0.0152 -0.1915
11711W        W27180   2.828   7.438  15.795  0.1193  0.3503  0.0479
11712W        W27181   1.335   6.330   5.801 -0.0369 -0.0706  0.3003
11713W        W27182   7.444   7.344  16.052 -0.0842  0.1822  0.0333
11714W        W27183  15.681   4.244  11.510 -0.2000 -0.0187 -0.0049
11715W        W27184   5.660   9.753  10.902 -0.0124 -0.0905 -0.2156
11716W        W27185   7.452  13.611  12.173  0.0336 -0.2491  0.2591
11717W        W27186   0.005   7.700   1.844 -0.1431 -0.0462 -0.1778
11718W        W27187  13.643  16.009   3.930 -0.0835 -0.0048  0.1291
11719W        W27188   8.439  10.194  13.807  0.0567 -0.3160  0.1583
11720W        W27189   5.665   2.220   0.610 -0.0003 -0.3695 -0.0718
11721W        W27190   7.839  11.476  15.399  0.1899 -0.1853 -0.0585
11722W        W27191  14.727   1.443   5.541  0.0182 -0.3005 -0.2026
11723W        W27192   9.081  14.272  14.695 -0.0479 -0.2164  0.0422
11724W        W27193   1.250  14.746  14.701  0.1665 -0.0018  0.1459
11725W        W27194   8.812   9.562  14.749 -0.0606 -0.2008 -0.1814
11726W        W27195  11.981  17.614   2.696  0.0643  0.1817 -0.2511
11727W        W27196   1.991   5.563  13.996  0.3980 -0.0891 -0.0200
11728W        W27197  16.078   5.353  13.437 -0.1176 -0.0529 -0.1986
11729W        W27198  14.186   4.651   2.325  0.0614  0.2710 -0.0110
11730W        W27199  17.329   8.079   2.829  0.0487 -0.2176 -0.3210
11731W        W27200   8.892   7.014   5.352  0.0184 -0.0885 -0.2290
11732W        W27201   8.415  13.657  13.063 -0.1033 -0.2860 -0.0488
11733W        W27202  15.673   5.049  13.193  0.1440  0.5246  0.2117
11734W        W27203  12.035  10.179  13.786 -0.2340  0.1081  0.2449
11735W        W27204  13.910  17.086   1.837 -0.2600  0.1769 -0.0035
11736W        W27205   0.634   7.741  12.878  0.0568  0.2251  0.0310
11737W        W27206   5.046   9.862   4.225  0.0614 -0.1171  0.0873
11738W        W27207  17.019  13.064   4.848 -0.1216  0.0023 -0.1946
11739W        W27208   4.071   2.694   0.606  0.2812  0.1950  0.0238
11740W        W27209   4.127  13.603   1.217  0.0665 -0.1013 -0.1011
11741W        W27210   7.414   7.491   2.732  0.2283 -0.2819 -0.2200
11742W        W27211  11.515   6.682   5.933  0.0054  0.0283  0.1407
11743W        W27212   2.553  14.486   5.501  0.0419 -0.0714  0.0202
11744W        W27213  17.328  14.202   4.829 -0.1157 -0.0082  0.0359
11745W        W27214   6.313   1.657  15.471 -0.2345  0.1211 -0.1376
11746W        W27215  12.143   4.770  16.725 -0.0582 -0.2577 -0.2097
11747W        W27216   3.448   6.766  15.629 -0.0321  0.2584  0.0135
11748W        W27217   3.465   2.190   0.737 -0.2621 -0.0339 -0.1037
11749W        W27218   6.106  15.700   1.076  0.2099  0.1267  0.0726
11750W        W27219   3.378  12.689   1.001  0.1664  0.1699 -0.1317
11751W        W27220  12.650   7.187  11.317  0.0307  0.1289 -0.3241
11752W        W27221   2.023  13.776  15.462  0.1272  0.2069  0.0263
11753W        W27222   9.839  10.590  12.932  0.0998  0.0521 -0.0229
11754W        W27223  14.573  11.658  14.251 -0.2341  0.0933 -0.0046
11755W        W27224   0.462   3.116  14.174  0.2938  0.3689  0.0791
11756W        W27225  16.201   1.043  16.420 -0.0627 -0.0726  0.0710
11757W        W27226   7.035  15.869  12.131  0.1254 -0.4231 -0.1468
11758W        W27227   1.163   7.138  12.453  0.0575 -0.2933 -0.2705
11759W        W27228  10.754  17.692  14.393  0.1049 -0.1387 -0.0721
11760W        W27229  13.970  11.447   4.256  0.4328  0.1474 -0.0124
11761W        W27230   0.236   4.429  14.161 -0.0344  0.1175  0.1686
11762W        W27231  17.585   0.292  15.876 -0.0933  0.2456  0.2692
11763W        W27232   6.174  13.834  11.928 -0.0423  0.1338  0.0932
11764W        W27233   2.270   1.330  12.528 -0.1195  0.0784  0.0808
11765W        W27234   8.914   3.618   3.038  0.0837 -0.0158 -0.2489
11766W        W27235   3.791   2.826   4.412 -0.1068 -0.0696 -0.1666
11767W        W27236   8.696   9.170  16.511  0.1373  0.0330 -0.3035
11768W        W27237  10.922   1.653   2.827  0.2078 -0.0872 -0.0212
11769W        W27238   1.708  13.473   3.593  0.1590  0.1457  0.2998
11770W        W27239   5.882   6.791   5.594  0.2749  0.1973  0.1376
11771W        W27240  12.075   1.144   4.802  0.3710 -0.3044  0.0159
11772W        W27241   1.134  14.434  11.049 -0.0254  0.0585  0.1172
11773W        W27242   4.467   7.120   0.923 -0.0384 -0.0853 -0.0393
11774W        W27243   3.534   4.445  11.943 -0.1777 -0.1164  0.1056
11775W        W27244   9.534   9.119   3.002 -0.1123 -0.2010 -0.1064
11776W        W27245   4.133  15.587   4.137 -0.0852  0.1471  0.2015
11777W        W27246  17.118   8.169   3.332  0.0475 -0.0782 -0.0156
11778W        W27247   2.835   5.204  12.930 -0.1779  0.0549 -0.1997
11779W        W27248   1.000   7.099  14.092 -0.1261 -0.3023 -0.0294
11780W        W27249   5.790   3.952   0.108  0.0952 -0.0802  0.1080
11781W        W27250   5.353   4.386   3.192 -0.1313  0.1611  0.1394
11782W        W27251   4.893   9.191   1.722 -0.0124  0.2723 -0.0976
11783W        W27252   3.612   3.696   1.057 -0.1423 -0.1539  0.2453
11784W        W27253   4.546   0.548   3.832 -0.0298 -0.0177 -0.1551
11785W        W27254   7.205   8.292  13.064 -0.0853 -0.0980 -0.0003
11786W        W27255   5.148   4.945   2.288 -0.2694 -0.0909  0.1156
11787W        W27256   9.914  14.080   1.169 -0.2189  0.2008  0.0244
11788W        W27257   4.956  10.202   2.747 -0.0338  0.2191 -0.0172
11789W        W27258   9.704  14.745  12.345  0.1046 -0.0858 -0.1487
11790W        W27259   6.074   3.388   2.997 -0.0197 -0.2068 -0.3614
11791W        W27260   1.212  14.638   4.925  0.2028  0.0704 -0.2137
11792W        W27261  15.054  11.401   2.461 -0.0100  0.1138 -0.0760
11793W        W27262   1.483  17.314  11.735 -0.3795  0.2262  0.0714
11794W        W27263   5.318   4.332  12.699 -0.0060 -0.2104  0.4188
11795W        W27264  15.523   6.797  12.961 -0.0543  0.0130 -0.1797
11796W        W27265   0.637   8.312   2.000  0.2415 -0.1194  0.2504
11797W        W27266   4.183   5.615  13.725 -0.1030  0.0523 -0.0981
11798W        W27267   4.397   8.401  11.997  0.4672  0.1547 -0.2855
11799W        W27268   3.764  11.681  12.079 -0.3322  0.0016 -0.1337
11800W        W27269  10.287   1.822  12.141  0.0298 -0.1561  0.0584
11801W        W27270   1.018  12.361   0.027  0.0402 -0.1942 -0.1833
11802W        W27271   4.643   9.909   0.338  0.0418  0.0078  0.1671
11803W        W27272  13.452   4.151   4.454  0.0528 -0.0510  0.3350
11804W        W27273  15.184   2.662   3.581 -0.1923 -0.0258  0.2595
11805W        W27274  14.055   3.358  13.146 -0.0081  0.2503  0.1998
11806W        W27275  13.017   0.136  15.740 -0.1323 -0.0055 -0.0626
11807W        W27276   3.313   4.148  12.266  0.0254 -0.1355 -0.1971
11808W        W27277  13.915  10.598  12.183  0.2351  0.3422  0.0607
11809W        W27278   3.817   4.680  15.281  0.2940 -0.0796 -0.0379
11810W        W27279   3.894   9.528   4.355 -0.1300  0.0161  0.0612
11811W        W27280   8.760   3.975  15.970 -0.0475  0.2169 -0.1509
11812W        W27281   1.534  11.310  12.290 -0.1622 -0.2691 -0.0436
11813W        W27282   4.309  12.934   3.785 -0.3659  0.1165 -0.0597
11814W        W27283   0.658  17.489   0.104 -0.1106  0.0723 -0.3756
11815W        W27284  15.407  17.455  12.202  0.2209 -0.0126 -0.0968
11816W        W27285   9.565   9.934  15.314  0.1527 -0.1394 -0.1118
11817W        W27286   0.480  11.026  13.907 -0.4614  0.0230  0.1976
11818W        W27287   5.951   1.840  12.601 -0.0860 -0.0310  0.1437
11819W        W27288  11.681   0.136   2.440  0.0307 -0.1817 -0.0721
11820W        W27289   5.421  17.336   1.172 -0.2965  0.1024  0.0781
11821W        W27290  14.779   0.918  15.383 -0.2243 -0.0613  0.0212
11822W        W27291   6.036  13.410   3.813  0.2136 -0.2464 -0.1955
11823W        W27292  15.922  12.632   0.165 -0.1731 -0.2251 -0.0993
11824W        W27293   9.169  17.031   2.955 -0.1759  0.0162  0.0427
11825W        W27294  11.530  15.647  16.044 -0.0322 -0.1559 -0.1670
11826W        W27295  10.922  14.233   1.097 -0.2321 -0.3269 -0.2470
11827W        W27296  13.667   4.639   2.306  0.1190  0.1775 -0.1398
11828W        W27297  16.369   3.851   2.330  0.0059 -0.1438  0.0274
11829W        W27298  14.022   5.590  11.729  0.1064  0.0369  0.3269
11830W        W27299  16.893  14.475   3.197  0.0636 -0.2018 -0.2029
11831W        W27300   0.513  14.373  16.384  0.0418 -0.0148  0.1881
11832W        W27301   7.301  13.198   1.283  0.2229 -0.0499  0.1774
11833W        W27302   2.745  17.480   3.724  0.0503 -0.1552  0.1836
11834W        W27303  17.445   4.915   3.441 -0.0154  0.2535 -0.2171
11835W        W27304  10.573   2.462  13.433  0.3102 -0.0085 -0.2136
11836W        W27305   9.890   6.100  16.066 -0.1103  0.1099  0.0039
11837W        W27306  13.707   2.463  14.100 -0.0161 -0.0447  0.2280
11838W        W27307   5.534   8.549  11.472 -0.2035  0.1505 -0.2038
11839W        W27308  17.573   1.943   0.929 -0.1455  0.2435 -0.2418
11840W        W27309   0.889  11.070  11.569 -0.3695  0.2004 -0.1195
11841W        W27310  16.793  16.969  12.500  0.1976 -0.2702 -0.0537
11842W        W27311  14.882   3.927  10.969  0.3072  0.0451  0.1534
11843W        W27312  12.624  13.053   4.023  0.1460 -0.1387 -0.2207
11844W        W27313  10.963   4.814  11.671  0.0818 -0.1157 -0.0876
11845W        W27314   9.187  11.028  15.991 -0.1675 -0.1905  0.0713
11846W        W27315   6.468   5.470   2.131 -0.1136 -0.2222 -0.0968
11847W        W27316   8.642   2.102  12.892 -0.3777 -0.0299 -0.0795
11848W        W27317   6.360   5.189   5.845  0.0366 -0.0690 -0.0950
11849W        W27318  15.542  13.872  16.391  0.0138  0.1059  0.3522
11850W        W27319   1.519  15.251  16.796 -0.1580  0.1607 -0.2299
11851W        W27320  16.811   5.325  12.821  0.0876  0.0060  0.1654
11852W        W27321   1.025   7.834   5.856 -0.1840  0.1480  0.0182
11853W        W27322   6.979   4.923   2.634 -0.3273 -0.1233  0.0375
11854W        W27323   7.988  15.910  14.767 -0.2172  0.1366  0.0045
11855W        W27324   9.564  17.462   1.382 -0.0431 -0.0880  0.0413
11856W        W27325  10.263  11.091  15.146  0.1778 -0.1259 -0.1339
11857W        W27326  15.002   8.223   2.446 -0.0041 -0.0940 -0.2086
11858W        W27327  10.999  15.320   5.438  0.2034  0.1418 -0.2043
11859W        W27328  11.331  17.659  13.574 -0.0960  0.1928 -0.2509
11860W        W27329  13.314  17.161  12.811 -0.1661  0.0463 -0.1837
11861W        W27330  16.674   2.522   4.210  0.1532 -0.1921 -0.3208
11862W        W27331  15.188   5.413   4.987  0.1023  0.2214  0.1866
11863W        W27332   3.564  13.747  14.987  0.0198  0.0061  0.2882
11864W        W27333   6.171   4.654  13.191  0.1453 -0.0792  0.4007
11865W        W27334   2.448  13.989   1.717 -0.1160  0.1708 -0.0161
11866W        W27335  11.241  15.477   5.898 -0.1280  0.1119  0.1001
11867W        W27336  14.930   1.761  14.988 -0.3641 -0.0558  0.1139
11868W        W27337   5.218   5.875  16.680  0.1034 -0.0404 -0.0239
11869W        W27338   5.636   7.168  14.958  0.0876 -0.2586 -0.3935
11870W        W27339  17.230   6.281  10.066 -0.3010  0.2571 -0.1597
11871W        W27340  16.469  17.088   3.765 -0.3799  0.1409 -0.2553
11872W        W27341   3.488  13.091   3.083  0.2154 -0.3337 -0.1246
11873W        W27342   6.562  10.682   2.012  0.1483  0.1420 -0.1252
11874W        W27343   9.206   3.729  15.924 -0.2749  0.0969  0.0841
11875W        W27344   5.028   3.355  12.402 -0.0156  0.3779  0.2388
11876W        W27345  10.413   0.783   1.981 -0.0640 -0.0248  0.0577
11877W        W27346  15.531   6.041  14.727 -0.1936  0.0003  0.1159
11878W        W27347  16.311  16.845  12.432 -0.2292  0.0492  0.0765
11879W        W27348   1.312  17.310   5.211 -0.1156 -0.0425 -0.1290
11880W        W27349  11.981   2.580  14.817 -0.1124 -0.1124 -0.1135
11881W        W27350  14.466   6.436   2.317  0.1841  0.4018  0.1331
11882W        W27351  11.429   0.647   1.148  0.0169 -0.1751 -0.0494
11883W        W27352  11.100   0.507  13.690  0.3730 -0.1399 -0.1528
11884W        W27353  15.358   2.246  14.043 -0.0580 -0.2289  0.0154
11885W        W27354   6.639   8.033   3.062  0.2758 -0.1676 -0.0898
11886W        W27355  10.588  16.114   5.613 -0.2390  0.1199 -0.1137
11887W        W27356  15.847  15.513   4.220 -0.3726 -0.2065 -0.1669
11888W        W27357   9.759   9.484   1.710  0.1993  0.0232 -0.0014
11889W        W27358  16.196   0.165  15.259 -0.0188 -0.3015 -0.0943
11890W        W27359  14.653  16.240  14.439  0.0966  0.1787 -0.2788
11891W        W27360  11.023   4.336  13.034  0.1538  0.2040  0.1078
11892W        W27361   7.893   8.091   4.451  0.0954  0.1119 -0.1335
11893W        W27362  16.879  16.205  16.718  0.0420 -0.0787  0.0443
11894W        W27363   3.042   9.435  15.667  0.0629 -0.3316 -0.2536
11895W        W27364  10.655  11.575  14.479  0.0349 -0.0066  0.3078
11896W        W27365  11.776  14.300   2.480  0.0632 -0.1348  0.6170
11897W        W27366   6.601   9.859   0.947  0.1299  0.1388 -0.1456
11898W        W27367   0.830  12.851  16.528 -0.2020 -0.1213  0.1180
11899W        W27368   2.784   6.272   1.803 -0.0114 -0.0731  0.1771
11900W        W27369   2.997  17.778  13.597 -0.1367  0.1326 -0.1355
11901W        W27370   5.978   1.537  16.574  0.2061 -0.1408 -0.0943
11902W        W27371  14.817  16.240  13.736 -0.1847 -0.1687  0.0570
11903W        W27372  13.443   0.242  12.306  0.2189  0.1919 -0.3214
11904W        W27373  11.198  13.633   4.239 -0.3178 -0.1273  0.3385
11905W        W27374  10.323   6.736  15.582 -0.2284 -0.0936  0.1318
11906W        W27375  14.654   8.400  13.937 -0.1271 -0.3231  0.2485
11907W        W27376   4.169   1.444   0.191  0.1271  0.0709  0.0526
11908W        W27377   2.165  11.620   1.247  0.3189  0.1097  0.0482
11909W        W27378   4.258  13.956  14.374  0.2867  0.1900 -0.2415
11910W        W27379   1.308   3.536  11.373 -0.0957  0.0334  0.3766
11911W        W27380  13.689   7.554  16.224 -0.0372 -0.0539  0.1902
11912W        W27381  12.903   5.793   3.394  0.0266  0.2858  0.1331
11913W        W27382   6.569   4.863   4.418 -0.1648  0.0112  0.1836
11914W        W27383   9.418   0.863   4.091 -0.2118  0.0393  0.1614
11915W        W27384   5.897   7.176  13.112  0.4717  0.0724 -0.2420
11916W        W27385   2.932  16.044   2.097  0.2876 -0.1573  0.1997
11917W        W27386   9.069   7.695  13.007  0.2448  0.0044 -0.1588
11918W        W27387   6.273  11.044   5.221 -0.3355  0.0413 -0.1778
11919W        W27388  10.877  17.207  15.087  0.1692  0.0140 -0.0335
11920W        W27389   6.237  10.198  14.517 -0.2334  0.0174  0.0972
11921W        W27390  16.521  10.417   3.412  0.0831  0.1913  0.0418
11922W        W27391  15.147  11.098  13.099  0.0733 -0.1298  0.0853
11923W        W27392  13.553  16.652  12.191  0.0312  0.2192 -0.0755
11924W        W27393   3.417   7.156  10.234  0.1842 -0.1012  0.0470
11925W        W27394  16.531  10.137   2.163 -0.0344 -0.1843  0.1143
11926W        W27395  14.802  10.108  16.546  0.0244 -0.3458  0.1998
11927W        W27396   2.552   1.422  13.825 -0.0772 -0.0676 -0.2197
11928W        W27397  17.325   6.764   1.141  0.0662  0.0374  0.1982
11929W        W27398   3.545  12.325   5.217  0.0410  0.0271  0.1055
11930W        W27399   0.307   9.539  12.428 -0.0231 -0.2030 -0.1189
11931W        W27400  10.438   0.585  16.456  0.1566  0.2324  0.2893
11932W        W27401   6.022   5.667   3.319 -0.2538 -0.0759  0.0538
11933W        W27402  16.886  12.611   4.453  0.1211  0.2693 -0.0801
11934W        W27403  11.070   9.786   0.734 -0.2794 -0.0586  0.1512
11935W        W27404  10.701   8.507   5.713 -0.0104 -0.0681  0.0427
11936W        W27405  10.912  10.293  14.277  0.0709 -0.1986 -0.2597
11937W        W27406  14.044  14.835  15.387  0.0510 -0.3495 -0.0491
11938W        W27407   1.857  13.813   0.901 -0.4078 -0.0466 -0.1327
11939W        W27408   8.480  10.371  15.160  0.3743  0.2868 -0.1526
11940W        W27409   5.889   4.913   6.344 -0.0516 -0.0234 -0.0554
11941W        W27410   5.513   3.600   3.601 -0.0293  0.0533  0.1406
11942W        W27411  11.962  12.976  16.690 -0.0559  0.0994  0.0908
11943W        W27412   8.936   3.330   3.519  0.0486 -0.1051 -0.1837
11944W        W27413  10.021  14.459  16.454 -0.3220  0.2183  0.0093
11945W        W27414  10.851   3.381   3.025 -0.0611  0.2175 -0.4565
11946W        W27415   0.627  13.931  15.826 -0.0472 -0.0664 -0.1882
11947W        W27416  12.367   6.088  13.453 -0.1323  0.1025  0.1081
11948W        W27417   5.070  14.111   5.248 -0.0052  0.1511  0.2710
11949W        W27418   3.007  16.440  11.743 -0.0601  0.2198 -0.2301
11950W        W27419  17.129  10.929  12.817  0.1306 -0.0208  0.2832
11951W        W27420   8.125  12.928   4.297 -0.1642  0.0081 -0.1299
11952W        W27421  15.229  13.418  15.544  0.1531 -0.0613  0.0570
11953W        W27422  17.764  17.575  15.943 -0.2740  0.2204  0.1863
11954W        W27423   4.623  14.830   5.495  0.0300 -0.1066  0.2665
11955W        W27424   7.838   7.764  10.611  0.2303  0.1169 -0.1472
11956W        W27425   6.063   8.648   5.958  0.1936 -0.1650  0.1987
11957W        W27426   5.891  17.761  15.198 -0.1371 -0.1973  0.0801
11958W        W27427   7.795   3.961  12.840 -0.1028 -0.2464  0.0934
11959W        W27428  14.306   3.170  11.874 -0.0942  0.1707  0.0716
11960W        W27429  12.594  17.228   4.406  0.0025  0.0998  0.0195
11961W        W27430   1.070   3.340   3.756 -0.0993  0.0094 -0.0645
11962W        W27431  17.513  11.467   4.351  0.1124 -0.1894 -0.0509
11963W        W27432   3.592   2.580  13.207 -0.1071  0.0807  0.0908
11964W        W27433   3.879  11.998   1.186 -0.1275 -0.0532 -0.0139
11965W        W27434   0.377   8.481   3.032 -0.1200 -0.0835  0.2113
11966W        W27435   2.201   8.952   5.000  0.2987 -0.3722  0.0074
11967W        W27436   9.297  13.209  12.783  0.0258 -0.1616 -0.0803
11968W        W27437   0.298  16.974   0.028  0.3742  0.0438 -0.0997
11969W        W27438  16.399  13.368  11.744 -0.1689 -0.3531 -0.0860
11970W        W27439  14.114   0.481   4.530 -0.1961 -0.0801 -0.0189
11971W        W27440   5.742   5.946   3.894 -0.2980 -0.1898  0.0121
11972W        W27441   1.019  13.473  11.327  0.2341 -0.3330 -0.0843
11973W        W27442   7.927   3.465  12.758 -0.1564  0.1738  0.0657
11974W        W27443  16.041  15.324   1.406  0.2789  0.0048  0.0598
11975W        W27444  15.590   0.184   5.386 -0.2382  0.0875 -0.0889
11976W        W27445  16.621   6.186  12.897 -0.0070 -0.1732  0.2164
11977W        W27446   5.257   2.179  12.122  0.0295 -0.1148  0.0478
11978W        W27447   2.627  11.167  13.223  0.2195 -0.3418 -0.0421
11979W        W27448   5.730  17.663  13.709  0.3267  0.1820  0.0800
11980W        W27449  17.759  17.116   3.693 -0.0799  0.0177  0.0696
11981W        W27450  14.916   9.287   5.341  0.3074 -0.2079  0.0200
11982W        W27451  14.247   2.754   6.212  0.0424 -0.1202  0.2943
11983W        W27452   4.015  16.417  11.756 -0.4977 -0.1589  0.0465
11984W        W27453   3.833  10.465  10.143 -0.3646  0.2829 -0.1638
11985W        W27454  14.023   9.283  15.859 -0.0102  0.2417 -0.0811
11986W        W27455  11.987  17.081  13.469  0.0174 -0.1284  0.0681
11987W        W27456   3.980  13.027   4.252  0.4536  0.0818  0.0585
11988W        W27457   5.581  15.053  13.634  0.3105 -0.1178  0.3136
11989W        W27458  11.443  11.463  12.829 -0.0118  0.2352  0.1832
11990W        W27459   1.898  13.730  16.045  0.0622  0.2490 -0.0139
11991W        W27460   1.985   0.268  12.048 -0.2030  0.1160 -0.2093
11992W        W27461   2.807  13.546   5.504 -0.0982 -0.0247 -0.3449
11993W        W27462   2.387   1.704  14.225  0.3104  0.0710 -0.1292
11994W        W27463   4.229  12.009   5.079  0.0248  0.1985 -0.2854
11995W        W27464   2.308   0.836   1.905  0.4492 -0.1573  0.1493
11996W        W27465   9.297  14.930   4.326 -0.0607  0.0846  0.3429
11997W        W27466  12.051   4.634  13.731 -0.2170  0.0255  0.3390
11998W        W27467  13.242  15.988   4.324  0.1420  0.0783  0.1556
11999W        W27468   8.336   5.599   0.763 -0.1300  0.0955  0.2755
12000W        W27469   0.345   9.692  13.716  0.1105 -0.1621 -0.1035
12001W        W27470   6.507  14.793   3.445  0.1773  0.0376 -0.0940
12002W        W27471   1.682  10.159   0.085  0.4647  0.0795  0.0716
12003W        W27472   8.033  12.220  15.212  0.0637  0.0667 -0.0887
12004W        W27473  15.864   0.795  15.144  0.0716 -0.2747  0.1642
12005W        W27474   9.462   3.086  12.659  0.2335 -0.1025 -0.3033
12006W        W27475  17.657  13.935  15.536 -0.0384 -0.1443 -0.0270
12007W        W27476   5.082  10.499  16.824 -0.0536  0.3480 -0.0242
12008W        W27477   3.062   7.290  12.554  0.1234  0.1312  0.1789
12009W        W27478   4.143   8.745   1.951  0.0917  0.0786 -0.2706
12010W        W27479  13.398   3.207  16.117 -0.1112  0.1674  0.0797
12011W        W27480   5.099   3.867  12.752 -0.0402  0.1119  0.1113
12012W        W27481   6.299   8.220   5.857 -0.3167 -0.0546 -0.2882
12013W        W27482  11.965  12.435  16.449 -0.1792 -0.3136  0.1268
12014W        W27483  11.967   3.939  14.861  0.1461  0.1828 -0.0399
12015W        W27484   5.685  16.467  14.546  0.1327 -0.1680 -0.0610
12016W        W27485  12.539  13.319   1.126  0.0333  0.2406 -0.0881
12017W        W27486   9.294   6.678  13.417 -0.2550  0.1252  0.2134
12018W        W27487  10.782  12.833   5.193 -0.0242  0.0121  0.0045
12019W        W27488  10.215  13.563   1.069 -0.1349 -0.2100  0.1222
12020W        W27489  15.451   9.415  14.875 -0.0582  0.0795 -0.0003
12021W        W27490  17.097   8.152   0.678 -0.3368  0.0280 -0.1352
12022W        W27491   9.372  11.573  15.233 -0.1885 -0.0517 -0.0885
12023W        W27492   4.507   9.153  13.613  0.0970  0.0345 -0.2122
12024W        W27493   8.864   6.397   3.649 -0.0569  0.1739  0.0669
12025W        W27494  10.139   1.107   2.259  0.1772 -0.2881 -0.2080
12026W        W27495  12.388  16.040   3.097  0.1330 -0.1371  0.2462
12027W        W27496   3.232   1.792  11.146 -0.0057 -0.0931  0.2259
12028W        W27497  12.202   4.556  14.546 -0.0792 -0.0227 -0.2049
12029W        W27498  10.973   9.217   5.901 -0.2537  0.1120 -0.4614
12030W        W27499  11.567   6.223  14.024 -0.1394 -0.0952 -0.0918
12031W        W27500  14.457   1.001  16.186  0.2777 -0.1484 -0.2178
12032W        W27501   1.636   5.612  15.548  0.0082  0.0548  0.1428
12033W        W27502  17.427   7.825   1.520  0.1345 -0.0603 -0.1336
12034W        W27503   4.166  11.452  16.380 -0.1626 -0.1174  0.0469
12035W        W27504   1.875  10.471  12.211 -0.2180 -0.0475 -0.2060
12036W        W27505  10.408  17.109   0.596  0.1383 -0.0123  0.1256
12037W        W27506   7.189   7.922  14.759 -0.2754 -0.1728  0.0532
12038W        W27507  13.685   8.440  13.459 -0.0940 -0.0995 -0.1991
12039W        W27508   3.844   9.843  12.864 -0.1546  0.1964  0.0980
12040W        W27509  15.192  11.446  15.155  0.0919  0.1409  0.1839
12041W        W27510  14.831  10.234   1.965 -0.1346  0.0793 -0.1104
12042W        W27511  10.291  15.153  14.808 -0.1440 -0.2510 -0.0215
12043W        W27512   3.525   4.622  15.719  0.3343  0.0884 -0.0665
12044W        W27513   6.476  16.613   0.335 -0.1872 -0.1988 -0.2740
12045W        W27514  10.195   3.583   1.869  0.2465 -0.0973 -0.1801
12046W        W27515   1.432  10.674  12.291  0.1018  0.1816 -0.3015
12047W        W27516   3.064   4.647  11.599 -0.2957 -0.0895  0.2576
12048W        W27517   8.969   3.551   6.011  0.3524 -0.0204 -0.1206
12049W        W27518  11.479   8.207   1.611  0.2050 -0.0149  0.0439
12050W        W27519  16.952   0.592  13.020 -0.1557  0.1070  0.2269
12051W        W27520   9.616  14.912  14.334  0.1621 -0.2741 -0.2461
12052W        W27521   3.257  10.535  15.272 -0.2854 -0.3353  0.1881
12053W        W27522  16.024   3.693   0.109 -0.0248 -0.1222  0.0733
12054W        W27523   6.719   4.617  15.432 -0.0000  0.0224 -0.1884
12055W        W27524  17.469   2.828   5.724 -0.0209  0.2955 -0.0566
12056W        W27525   1.603   9.583   1.501 -0.2952  0.0871  0.4689
12057W        W27526   2.822  13.138   2.285 -0.0428  0.1952 -0.1216
12058W        W27527  15.868  15.250   2.399  0.0330 -0.0584  0.0233
12059W        W27528   8.467   7.172  14.990 -0.2297 -0.0127  0.1551
12060W        W27529  16.848  14.308   3.682 -0.1442 -0.0376  0.0111
12061W        W27530   0.408  16.273   5.126  0.1519  0.1369  0.1221
12062W        W27531   8.500  13.016   5.646  0.2056  0.2467  0.1174
12063W        W27532  17.324  14.437  11.988 -0.2012  0.0575  0.0718
12064W        W27533  16.453   2.418   5.068 -0.1861 -0.3804  0.1977
12065W        W27534   7.928  15.428  15.069  0.2205  0.2245  0.0772
12066W        W27535  11.944  17.044   0.508 -0.0008  0.1256 -0.1002
12067W        W27536   6.003   5.399   2.407 -0.0859  0.2497 -0.0799
12068W        W27537   7.235   4.553  13.058  0.0630 -0.1241 -0.2514
12069W        W27538  15.991   8.896  14.936 -0.1363 -0.3349 -0.1996
12070W        W27539  11.141   3.237   0.517  0.0683  0.2127 -0.1995
12071W        W27540   1.113   9.246  15.976  0.0760  0.1958  0.0903
12072W        W27541   8.553   1.769   1.503  0.1983  0.0269  0.1444
12073W        W27542   7.017   3.684   0.722 -0.1695  0.0229 -0.1603
12074W        W27543   5.655  15.055  16.520 -0.0868 -0.2419 -0.2781
12075W        W27544  14.874   9.423  14.277  0.0449  0.0736  0.1215
12076W        W27545  13.297  13.994   4.718 -0.3033  0.1378 -0.1011
12077W        W27546   6.998   0.782  15.334  0.3805 -0.0979  0.1849
12078W        W27547   4.887   9.972   2.157 -0.1518 -0.0493 -0.0849
12079W        W27548   9.343   7.749   4.989  0.2372  0.0137  0.1805
12080W        W27549   8.742   8.784  12.368 -0.1637  0.0537 -0.1622
12081W        W27550   9.513  11.491  16.825 -0.1246 -0.0184  0.1314
12082W        W27551   4.645   0.045   4.095  0.1610  0.0211 -0.2806
12083W        W27552   3.980   5.566   6.017  0.0868 -0.0817  0.0543
12084W        W27553   5.367   4.615   1.019  0.1879  0.0438  0.0590
12085W        W27554   8.709   8.053  14.403  0.1272 -0.0792 -0.2352
12086W        W27555  11.132   2.725   0.756  0.2012 -0.1901 -0.0764
12087W        W27556   6.777   6.534  13.127  0.0104  0.3514  0.0922
12088W        W27557   9.920   4.733   5.742  0.1388  0.0709  0.1015
12089W        W27558   4.124   1.557  12.690  0.1232  0.1086 -0.2123
12090W        W27559   7.916   6.952  16.684 -0.2203  0.2555  0.1284
12091W        W27560   9.246  12.122  11.869  0.2560 -0.3884  0.0542
12092W        W27561  13.263  15.736  11.924  0.1498 -0.0281 -0.3708
12093W        W27562   5.554   7.476  16.424  0.0652 -0.1405 -0.1270
12094W        W27563   2.757   7.413  16.328 -0.1854  0.0013 -0.0486
12095W        W27564   0.947  10.768  12.481 -0.0110 -0.1957  0.0696
12096W        W27565   7.637  14.729   0.733  0.2109  0.1123  0.0021
12097W        W27566  17.676  17.176  15.476  0.2905 -0.0878 -0.0120
12098W        W27567  16.720   3.454   2.333  0.0178  0.2579  0.1516
12099W        W27568   5.281   1.432  13.541  0.1475 -0.0037 -0.2387
12100W        W27569   9.420   5.173   3.823  0.0067 -0.0287 -0.3113
12101W        W27570   8.031   9.884  13.746 -0.3499  0.0358 -0.1006
12102W        W27571  16.215  10.639  11.752 -0.1917  0.0148  0.1388
12103W        W27572   2.260   9.529   2.826  0.3016 -0.0913 -0.0386
12104W        W27573  15.420   1.503   5.132 -0.0701  0.1698  0.1956
12105W        W27574   0.460  15.815   0.531  0.4453 -0.2394  0.2316
12106W        W27575   9.291  17.342  16.234  0.4958  0.2225  0.0610
12107W        W27576   5.664   1.451   4.612  0.1856  0.0133 -0.1137
12108W        W27577  12.301   1.593   2.132  0.3719 -0.3586 -0.1492
12109W        W27578   3.115  12.277  11.780 -0.1494 -0.1448  0.2047
12110W        W27579  11.917   2.715   3.949  0.1036  0.1056  0.0906
12111W        W27580   1.787  13.556  12.375 -0.1267  0.2310 -0.1349
12112W        W27581   5.415   5.073   1.322  0.0565 -0.0403  0.0688
12113W        W27582  12.676   6.368   3.884 -0.0453 -0.0937  0.0856
12114W        W27583   4.116   7.249  13.472  0.1066  0.2907  0.1582
12115W        W27584   8.465  15.121  14.871 -0.2621 -0.2979  0.0386
12116W        W27585   0.073  11.488   3.420  0.1055  0.1772 -0.0426
12117W        W27586   2.572   2.322  12.288  0.1507 -0.1456  0.0260
12118W        W27587   2.032   5.681  11.834  0.2127  0.2697  0.2861
12119W        W27588  15.232  13.821   5.089 -0.4503  0.2038  0.2035
12120W        W27589  16.343   9.157   4.172 -0.0056 -0.1469  0.0180
12121W        W27590  14.667   5.454   4.212 -0.2787 -0.0918  0.2992
12122W        W27591  12.273  10.860  11.598  0.3779 -0.0148  0.1483
12123W        W27592  15.496   2.387   0.456  0.0251  0.1158 -0.1362
12124W        W27593   6.132  13.292  12.578  0.1922  0.1078 -0.1673
12125W        W27594   8.965  12.361   4.606 -0.1607  0.2115  0.3547
12126W        W27595  15.857   6.124  15.590  0.0481  0.3031 -0.0588
12127W        W27596  10.143   2.576   0.993 -0.1572 -0.0319 -0.0675
12128W        W27597   1.312  12.728   0.104 -0.1000 -0.3146 -0.1087
12129W        W27598   4.586  10.235  14.154  0.1945 -0.2619 -0.1319
12130W        W27599  13.791  14.051  16.265  0.1235  0.2752  0.0676
12131W        W27600   6.636  10.210  12.066  0.1951 -0.0572  0.1880
12132W        W27601   8.222   3.880   1.927  0.3093  0.1408 -0.0220
12133W        W27602  10.584  15.564   5.499  0.2176  0.0027  0.1958
12134W        W27603  10.608   5.803  11.614  0.1283  0.1578  0.0018
12135W        W27604  16.165   5.539  14.867  0.1418 -0.1445 -0.0644
12136W        W27605  11.927   1.973  14.879  0.2082 -0.2499  0.0339
12137W        W27606   6.972  11.777  14.543  0.1822  0.0028  0.2665
12138W        W27607  12.220  16.830  15.686  0.1216 -0.3892  0.2486
12139W        W27608   1.686   5.184  11.563 -0.0641  0.5450 -0.1236
12140W        W27609  12.792   9.074   6.133  0.1407  0.1801  0.2255
12141W        W27610  17.083  16.853  13.393  0.2914  0.0429  0.1278
12142W        W27611  10.814   1.699  13.951 -0.3541  0.1038 -0.2161
12143W        W27612   7.285  15.443   5.103  0.4891  0.2171  0.0639
12144W        W27613   4.053  12.005  11.737  0.1111 -0.0438 -0.0455
12145W        W27614  14.169   9.137  11.765  0.0439  0.2267  0.1090
12146W        W27615  13.310  14.417   4.440  0.0314 -0.2757  0.0718
12147W        W27616  15.549  11.463  10.858 -0.1996  0.0034 -0.0117
12148W        W27617  11.363   6.629   5.010  0.2439 -0.2267 -0.1578
12149W        W27618  14.933   8.950   1.907 -0.2187  0.1472  0.3390
12150W        W27619   3.926   5.339  12.699 -0.2575  0.2237  0.2053
12151W        W27620   6.611  17.716  13.558  0.0157 -0.3653 -0.3133
12152W        W27621  12.101  13.552   3.691  0.1454 -0.1212 -0.4086
12153W        W27622  12.548   1.952  12.240 -0.0335 -0.3248 -0.0506
12154W        W27623  11.242  12.021  12.085 -0.1944 -0.0624 -0.0529
12155W        W27624  16.238   9.189   1.395  0.1666 -0.0028  0.2593
12156W        W27625   6.875  10.920  11.463  0.0991  0.0277  0.2018
12157W        W27626   7.436   8.270  12.187  0.1392  0.2831 -0.0413
12158W        W27627  10.778  10.995   3.016 -0.2461  0.0391  0.1089
12159W        W27628   0.671  13.990  13.030 -0.1870 -0.1884 -0.2258
12160W        W27629  16.058  10.646  16.212  0.0509 -0.0157  0.0269
12161W        W27630   1.125  17.340   0.168 -0.3090  0.0689  0.0156
12162W        W27631  13.365   9.686   3.508 -0.1959 -0.0997 -0.1033
12163W        W27632   2.939  15.392  12.515 -0.2289 -0.1485  0.0887
12164W        W27633  12.657   3.493   0.883 -0.0821  0.1846  0.2452
12165W        W27634   5.843  16.790   4.887 -0.0976 -0.1962 -0.1489
12166W        W27635   2.030   8.885  15.585  0.0977 -0.2001  0.0068
12167W        W27636  12.323  15.026  11.567 -0.2702  0.1378  0.0598
12168W        W27637   6.088   1.260   3.124 -0.0764 -0.0189 -0.3654
12169W        W27638  12.368  13.987  14.135 -0.1196 -0.1516 -0.1534
12170W        W27639   6.061   8.990   5.197  0.2685 -0.0156 -0.2424
12171W        W27640   3.228   2.275  12.520  0.0345 -0.4738  0.1162
12172W        W27641   4.621  14.134  13.137  0.1658 -0.1528  0.0783
12173W        W27642  14.097  14.939   2.772  0.3006  0.0031  0.0916
12174W        W27643  15.269   9.437   0.360  0.3152  0.1245 -0.2547
12175W        W27644   7.834   4.197   0.625 -0.0751 -0.1277  0.1580
12176W        W27645  10.700  10.415   4.754  0.0812  0.0669 -0.0104
12177W        W27646   4.539   1.062  13.795 -0.1017  0.0561 -0.1727
12178W        W27647   7.844   7.219   0.306 -0.0396 -0.0817  0.1691
12179W        W27648  16.991   8.445  14.204  0.0167  0.0897  0.1818
12180W        W27649   1.097   0.302   1.783 -0.1258 -0.0118  0.0006
12181W        W27650   8.222  16.373   1.914 -0.1108  0.1495 -0.2293
12182W        W27651   0.695   6.328  16.798  0.1223  0.0105 -0.2446
12183W        W27652  10.238   3.611  16.781  0.1066  0.1270  0.1310
12184W        W27653   8.505  11.630   2.646 -0.1385 -0.2608  0.0863
12185W        W27654   0.834   9.460   3.464 -0.1865  0.0517 -0.0566
12186W        W27655   8.688   8.921   1.228 -0.1743 -0.0353  0.0101
12187W        W27656  14.944  12.575  13.850  0.0576 -0.0291  0.0733
12188W        W27657   6.608   5.588   4.049 -0.3362  0.4054 -0.4265
12189W        W27658   4.066  12.214   0.601  0.2692 -0.0398 -0.0102
12190W        W27659  14.634  13.940  16.792  0.2422 -0.1460  0.1356
12191W        W27660   6.275  11.552  12.596 -0.0097  0.3260 -0.2354
12192W        W27661   3.556  13.714   5.429 -0.1142  0.2158  0.0495
12193W        W27662   5.012  10.993  11.998 -0.0816  0.0231 -0.2112
12194W        W27663  13.063   1.735   1.072 -0.2579  0.1876  0.3342
12195W        W27664   2.323  15.390   0.718 -0.1614  0.0448  0.2455
12196W        W27665   4.551  14.354   2.859  0.0177  0.0303 -0.0804
12197W        W27666  15.470  13.147   3.086  0.2266 -0.0187  0.0758
12198W        W27667  13.748   4.923  12.860 -0.1899 -0.0015 -0.2005
12199W        W27668  15.976   4.314   6.015 -0.1450 -0.0009  0.2947
12200W        W27669   2.309  10.786  15.605 -0.1160  0.1732 -0.2632
12201W        W27670  17.363  12.191   5.442 -0.1300  0.0410  0.2995
12202W        W27671  15.616  15.746   2.592 -0.0720 -0.2091  0.2730
12203W        W27672  16.572   1.490  16.259 -0.1096 -0.2378  0.0621
12204W        W27673   7.518   6.976  10.849 -0.0368  0.1391  0.0874
12205W        W27674   2.073  15.869   0.876  0.0835 -0.0611  0.0449
12206W        W27675  17.461  10.700   2.919  0.3105 -0.2180 -0.2089
12207W        W27676  12.382   4.958  12.827  0.0159 -0.2345  0.0780
12208W        W27677   7.536  17.583  14.813  0.0325  0.3066  0.1330
12209W        W27678   8.436  13.809   3.851  0.1902 -0.0496 -0.0050
12210W        W27679  11.255   1.548  16.537 -0.1597  0.0169  0.1164
12211W        W27680   3.218   6.296  10.209 -0.1206  0.1564 -0.5411
12212W        W27681   4.591   6.148  14.310  0.0322  0.0180 -0.0165
12213W        W27682  17.366  11.517   0.845 -0.0200 -0.1955  0.1365
12214W        W27683   2.553  13.168   1.815  0.1281 -0.1474  0.0732
12215W        W27684   9.337  12.273  14.221  0.1812 -0.1155 -0.1180
12216W        W27685   3.326   9.244   5.081 -0.1706  0.0094  0.0613
12217W        W27686   8.276   8.136  13.587  0.2461 -0.2795  0.0781
12218W        W27687   5.325   1.515  15.948  0.1742  0.1193  0.2722
12219W        W27688   7.087   7.887  12.823  0.1461 -0.0103 -0.2411
12220W        W27689   1.224  17.443   4.681  0.0404 -0.0189 -0.1061
12221W        W27690   9.877  17.527   4.649 -0.2196 -0.0024  0.3842
12222W        W27691  16.100   6.628  12.528  0.1710  0.0933  0.1204
12223W        W27692  16.799  14.440   2.655  0.0904 -0.1050  0.1055
12224W        W27693   4.378   8.817   3.685  0.1171  0.1962  0.1030
12225W        W27694   7.630   2.611  11.849  0.0557 -0.1261 -0.0338
12226W        W27695  13.846   9.898   1.230 -0.0449 -0.0001 -0.2105
12227W        W27696   0.791   8.759   4.951  0.1227 -0.0605  0.0078
12228W        W27697   5.362   6.249   1.592  0.0443 -0.1634 -0.1036
12229W        W27698   9.477   1.858   5.043  0.0641 -0.2542  0.0874
12230W        W27699  17.634   6.107  15.584  0.2008  0.1199  0.1592
12231W        W27700   5.479  17.088   2.589 -0.1490 -0.1342  0.2943
12232W        W27701   0.060  15.860   5.019  0.0577 -0.1151  0.2267
12233W        W27702  14.054  11.228   1.042  0.4371 -0.0368 -0.0447
12234W        W27703  14.594   7.794  12.166  0.0575  0.2481 -0.1223
12235W        W27704   2.323   8.818   0.006  0.2311 -0.2901 -0.1018
12236W        W27705  15.819  15.990   5.503 -0.1260 -0.1946  0.3345
12237W        W27706  11.415   0.852  13.900 -0.0258 -0.1015  0.1387
12238W        W27707   7.835   6.447  12.627  0.0727 -0.1247  0.0631
12239W        W27708  14.710  17.544  16.359 -0.0376 -0.1433  0.0528
12240W        W27709   4.061   8.170   3.773 -0.2130 -0.0121 -0.3096
12241W        W27710  15.680   9.902  12.610 -0.1565 -0.1643  0.1913
12242W        W27711   7.992   9.572   2.807  0.1384 -0.0796  0.0624
12243W        W27712  11.743   5.319  13.896 -0.2607 -0.0930  0.1932
12244W        W27713   9.924   8.736   2.945 -0.0608  0.0970  0.1542
12245W        W27714   2.757   3.915   5.392  0.1618  0.0366  0.0571
12246W        W27715   9.386  17.423   2.754 -0.1537 -0.1970  0.3317
12247W        W27716   2.655  15.331   3.642  0.1216  0.0882  0.0015
12248W        W27717  17.695  10.901  15.178  0.1465 -0.1801  0.0738
12249W        W27718  17.472  13.278   2.929 -0.1371 -0.0286  0.0160
12250W        W27719  12.076   7.468  14.706 -0.0148  0.0988 -0.1857
12251W        W27720  15.940   8.975  15.715  0.0748 -0.3015 -0.1464
12252W        W27721   3.751   7.537  14.189  0.0761  0.0568 -0.0401
12253W        W27722   1.834   4.201  15.019  0.2576  0.2934 -0.0691
12254W        W27723   2.508  10.429  16.754  0.0786  0.0732 -0.0970
12255W        W27724  11.036   1.954   0.061 -0.0703 -0.0384 -0.0455
12256W        W27725   1.343  14.613   1.963  0.2434 -0.0739  0.0532
12257W        W27726   7.186   1.786  14.005 -0.3152 -0.0204  0.1237
12258W        W27727   5.683  10.954   3.603  0.1125 -0.1010 -0.1216
12259W        W27728   8.157   4.454   3.329  0.2247  0.0365  0.6060
12260W        W27729  13.331  11.884  12.428 -0.2331 -0.1644  0.1885
12261W        W27730   7.334   6.014   4.062 -0.0215  0.1655 -0.0866
12262W        W27731  17.073  14.082   2.951 -0.0483  0.0006 -0.0481
12263W        W27732  11.995   8.122   1.375  0.1079  0.0442  0.0402
12264W        W27733   9.069   7.146  13.292  0.0568 -0.2200 -0.0910
12265W        W27734  10.941   9.359  13.701  0.1392  0.2402 -0.1315
12266W        W27735  16.247   5.055  14.020  0.0601  0.2306  0.1916
12267W        W27736   3.889  12.711   3.854 -0.1290 -0.1182  0.0174
12268W        W27737   0.301   9.914   1.492 -0.0996  0.0221 -0.1793
12269W        W27738   4.637  14.088  13.634  0.0827 -0.0402 -0.2302
12270W        W27739  12.936   7.860   6.133 -0.2173 -0.0447 -0.1826
12271W        W27740  10.520   0.151  11.291  0.1548  0.0637  0.3165
12272W        W27741   7.923   3.277   2.202 -0.5392  0.3724  0.2137
12273W        W27742   2.416   7.569  14.846 -0.0447 -0.0722 -0.2672
12274W        W27743  13.297   2.843  13.464 -0.1342 -0.1481 -0.1346
12275W        W27744   0.829  14.262  15.286 -0.1007  0.0570 -0.3160
12276W        W27745   0.225   2.966  12.376  0.1835  0.0379 -0.1194
12277W        W27746  14.329   4.402  16.504 -0.0040  0.2596 -0.2056
12278W        W27747   8.995  12.798   6.540 -0.0585 -0.1873  0.0743
12279W        W27748   9.835   5.299  15.652 -0.1428  0.1937 -0.1274
12280W        W27749   0.650   6.734  16.190 -0.0418 -0.1921  0.0090
12281W        W27750   5.711  10.626   5.665  0.0401  0.1540  0.0026
12282W        W27751   3.255   2.939   5.465  0.3348  0.2431 -0.0412
12283W        W27752  15.979   9.780  16.016 -0.0636  0.3781  0.1039
12284W        W27753   2.594  11.596  15.919 -0.2348  0.0609 -0.0746
12285W        W27754  14.455  13.284  10.461  0.3134 -0.3610  0.0307
12286W        W27755   1.122  10.541  15.527 -0.0483 -0.0071  0.2502
12287W        W27756  12.832  12.021  16.445  0.1481 -0.1547  0.1928
12288W        W27757   5.428   9.591   5.911 -0.2595 -0.1169  0.0030
12289W        W27758   6.677  17.123   6.014  0.0257  0.4827 -0.2038
12290W        W27759  16.170   4.286  14.655  0.0324 -0.0124 -0.0882
12291W        W27760   6.772   2.748   4.129  0.1481 -0.0183  0.0682
12292W        W27761   7.967  12.368   2.787 -0.0704  0.0226 -0.0013
12293W        W27762   7.402  13.198   0.212 -0.0880 -0.2823 -0.3351
12294W        W27763   4.757   2.154  11.950 -0.1028  0.0495 -0.1787
12295W        W27764  16.725   6.951  14.081  0.0821 -0.2750  0.0763
12296W        W27765   9.076   7.940   2.526  0.1106  0.0866  0.0979
12297W        W27766   9.000   3.096   1.591  0.1088  0.0860 -0.2232
12298W        W27767  13.604   6.999   4.465  0.0137  0.1027 -0.0897
12299W        W27768  11.479   4.873   2.604 -0.0481 -0.0194 -0.3045
12300W        W27769   2.149   8.441  16.507  0.0368 -0.0821 -0.1712
12301W        W27770   3.594  10.721   0.923  0.1363  0.2965  0.0397
12302W        W27771  12.704  11.943  13.117 -0.1353 -0.1271 -0.0057
12303W        W27772   5.780   0.459   1.913 -0.0165 -0.0548 -0.0908
12304W        W27773   4.067  12.366  15.935  0.1768 -0.3507  0.0194
12305W        W27774  13.102  13.247   6.259  0.0348 -0.1640  0.2249
12306W        W27775  15.796  10.864  12.584 -0.1081 -0.0364  0.1983
12307W        W27776   5.762   2.320  12.127 -0.1699  0.0165 -0.0686
12308W        W27777   3.122   8.138  11.908  0.1083  0.2244 -0.1918
12309W        W27778   4.891   6.995  12.914  0.3678 -0.1080 -0.0681
12310W        W27779   0.529   6.341   5.354  0.2198 -0.0125 -0.1439
12311W        W27780   0.105  17.097   3.036  0.1183  0.1232 -0.1050
12312W        W27781   2.646   2.894   3.718  0.1072 -0.1928 -0.2683
12313W        W27782   2.787   9.439   2.306  0.1189 -0.3692 -0.0227
12314W        W27783   3.749   7.250   2.119  0.3809  0.4399  0.0395
12315W        W27784   6.164  16.467  14.588 -0.0921 -0.3408  0.1442
12316W        W27785  15.249  17.429   1.195 -0.0401  0.1719  0.1698
12317W        W27786  17.357   3.306   3.134  0.1320 -0.1439  0.1957
12318W        W27787  15.838   6.371   5.044  0.1551  0.0751 -0.0285
12319W        W27788   7.392  15.485  14.288 -0.2298  0.0405  0.1451
12320W        W27789  14.366   0.273  14.296  0.0113  0.0905  0.2125
12321W        W27790   9.471   8.747  15.422  0.0268 -0.0426  0.0580
12322W        W27791   1.084   1.991   2.278  0.0884  0.2257 -0.3839
12323W        W27792   2.034  11.327   5.497  0.1063  0.1226 -0.0240
12324W        W27793  17.168  16.004   0.589 -0.2154  0.0329  0.0216
12325W        W27794   5.236   5.285  14.048  0.5628 -0.2210 -0.1401
12326W        W27795   9.944   8.669  12.804  0.4423  0.0415  0.1477
12327W        W27796  11.060   4.556   0.510  0.2169 -0.0866  0.1191
12328W        W27797   3.110  17.653  15.085 -0.1454  0.1129 -0.2068
12329W        W27798   8.846   4.034  16.611  0.2126 -0.3308 -0.0228
12330W        W27799   5.019   6.197  13.999 -0.4122  0.2429 -0.1861
12331W        W27800   9.564   1.873  16.375  0.0013 -0.1302  0.1572
12332W        W27801   3.154   2.162   1.795 -0.1536  0.0951  0.0880
12333W        W27802  14.915   5.204   5.408 -0.0112  0.2795  0.2126
12334W        W27803  15.820   3.245  16.721 -0.0625 -0.0300  0.2191
12335W        W27804   5.832   3.067  14.156  0.0194 -0.1263 -0.0728
12336W        W27805   2.213   7.246  12.260 -0.1779  0.0450  0.0660
12337W        W27806   0.184  17.028  12.307  0.0101  0.1553  0.0222
12338W        W27807   7.066   7.424  13.117  0.2117 -0.2232  0.1287
12339W        W27808  10.975  13.197  15.911  0.1729 -0.4872 -0.0596
12340W        W27809  11.076   9.020   1.696  0.3193  0.3144 -0.2434
12341W        W27810  16.888   3.531   0.479 -0.0188 -0.0484 -0.1251
12342W        W27811   8.943   8.087   0.903 -0.4876  0.1496 -0.1240
12343W        W27812  12.114   8.226  16.149 -0.1045  0.0188 -0.3329
12344W        W27813  11.606   9.418  16.574  0.1211 -0.0032  0.0428
12345W        W27814   1.179   7.510   0.921 -0.0360  0.0497  0.1061
12346W        W27815  15.399   0.148   3.033 -0.1789  0.1278 -0.1174
12347W        W27816   2.923  11.862   4.413  0.1903 -0.0254 -0.0738
12348W        W27817  16.114  13.556   3.856  0.0445  0.1087  0.1074
12349W        W27818  11.833   8.587   1.460  0.1338 -0.0645 -0.0656
12350W        W27819  10.605  17.106  13.345  0.2391  0.0267 -0.2240
12351W        W27820   5.038  14.431  13.536 -0.1948  0.3128 -0.1769
12352W        W27821  13.539  11.722  15.664 -0.2096  0.0432  0.0935
12353W        W27822   8.597  17.050   4.317  0.0117  0.4302  0.1713
12354W        W27823   7.493  15.896  14.639  0.2251 -0.2692 -0.2639
12355W        W27824  17.628   1.045   0.132  0.1165  0.2031  0.1374
12356W        W27825  12.669   6.805   1.963  0.1881 -0.0463 -0.2552
12357W        W27826  10.840  10.712   2.496  0.0012 -0.1819 -0.1032
12358W        W27827   7.657   4.051   3.784 -0.0356 -0.0036  0.0645
12359W        W27828  13.386   7.742  11.067 -0.1856 -0.0195  0.0383
12360W        W27829   3.362   8.322  13.066  0.0441 -0.1792  0.2421
12361W        W27830   6.008   6.135  14.736  0.1761 -0.2370 -0.2018
12362W        W27831  13.200   9.782  14.786 -0.1086 -0.0120  0.1807
12363W        W27832   9.608   2.400  15.148 -0.1151  0.2151  0.0768
12364W        W27833   7.061  11.066   4.873 -0.0458 -0.2309 -0.0970
12365W        W27834  16.227  12.201  15.230  0.4658 -0.3389 -0.2110
12366W        W27835  15.471  11.470  16.460  0.0004  0.1533  0.3439
12367W        W27836   7.634   0.213  15.098  0.3052  0.0705 -0.1977
12368W        W27837  15.734   8.652   2.277  0.2537 -0.1778 -0.0115
12369W        W27838  13.001   6.088  16.119  0.0756  0.1327 -0.1207
12370W        W27839   9.230   4.730  10.874 -0.0930  0.2270  0.0520
12371W        W27840  14.365  16.778   4.049 -0.3600  0.0215  0.0111
12372W        W27841   1.384   4.980  10.980  0.2517  0.2230  0.1746
12373W        W27842   4.315   8.989  15.453 -0.0035  0.1401  0.3232
12374W        W27843  16.826  14.075   4.232 -0.0841 -0.3024 -0.1757
12375W        W27844   9.913   1.533   1.304 -0.0151 -0.2119 -0.0355
12376W        W27845   4.198   8.231   0.658 -0.2078  0.0982 -0.2091
12377W        W27846   2.504   8.935  14.984 -0.0526  0.1136  0.2380
12378W        W27847  14.358   8.108   0.954 -0.1494  0.0895 -0.0513
12379W        W27848   0.036   7.201   2.994 -0.0610  0.1630 -0.0165
12380W        W27849  14.730   2.992   0.078 -0.0504 -0.0605  0.1581
12381W        W27850  16.502  16.424  15.966  0.3327  0.0209 -0.1344
12382W        W27851  12.334   4.872  12.293 -0.1632 -0.0054 -0.2349
12383W        W27852   8.188  15.824  14.124 -0.1320 -0.1745 -0.1119
12384W        W27853   7.540   8.115  15.081 -0.4208  0.0000  0.1242
12385W        W27854  14.640   6.309  14.792  0.0486 -0.1335  0.0666
12386W        W27855   4.423  10.459  16.359  0.1562 -0.0725 -0.1459
12387W        W27856  13.524   3.591  13.859  0.0475  0.2002  0.1179
12388W        W27857  11.218  11.122   2.721 -0.1031 -0.1692  0.1854
12389W        W27858   4.418   7.777  14.134  0.0844  0.1114 -0.1823
12390W        W27859  11.822  15.963   5.589 -0.0071 -0.0066 -0.1006
12391W        W27860  16.589   0.265   3.661  0.1196 -0.0166 -0.1705
12392W        W27861   1.664  15.063   0.520 -0.2182  0.1941  0.3591
12393W        W27862  14.506   6.701   1.882  0.3002  0.0448 -0.0537
12394W        W27863  17.748   0.078   0.886 -0.4649  0.0189 -0.1208
12395W        W27864  11.113  13.643  13.372  0.3029  0.1898  0.0615
12396W        W27865   8.754   7.835  16.433 -0.1748  0.1581 -0.0793
12397W        W27866  11.794   2.223   5.938  0.0917  0.0697  0.3865
12398W        W27867   8.014  17.227   4.682  0.0384  0.0353 -0.1732
12399W        W27868  10.307  17.082  12.874 -0.0833 -0.0819  0.1135
12400W        W27869  14.783   4.625  12.562  0.1829  0.2071  0.0334
12401W        W27870   8.830  11.632   4.719 -0.0354  0.3208 -0.2421
12402W        W27871  12.588   4.659   2.537  0.0476 -0.0217 -0.0976
12403W        W27872  15.296   0.328  12.953  0.1946  0.0695  0.1138
12404W        W27873  12.490   4.634  13.545 -0.1885  0.0541  0.0082
12405W        W27874  12.363  12.748  14.695  0.2260  0.0749  0.0790
12406W        W27875   0.428  12.830  14.099 -0.4613  0.1166  0.2158
12407W        W27876   8.493   5.589   3.764  0.0887  0.0147  0.0551
12408W        W27877   7.623   3.803   1.336 -0.0159 -0.0532  0.0561
12409W        W27878   4.164   8.260  11.288  0.2645  0.0749  0.0296
12410W        W27879  10.330   6.974  16.316  0.0461 -0.0243 -0.1331
12411W        W27880  16.697  10.283  12.815 -0.3291  0.0352  0.0451
12412W        W27881  13.258  14.904   1.929  0.0309  0.1177 -0.1483
12413W        W27882   0.066  12.573   1.662  0.1015  0.1725 -0.1235
12414W        W27883   5.904  15.084   3.172 -0.2241 -0.1881  0.2031
12415W        W27884   2.727  15.188  14.100 -0.3044 -0.3200 -0.1075
12416W        W27885   2.846   3.490  12.697 -0.0687 -0.1439 -0.0461
12417W        W27886   5.859  11.316   1.611  0.0789 -0.0969  0.2047
12418W        W27887   0.717   8.957  13.002 -0.0844  0.0989  0.0510
12419W        W27888   4.984  11.605   2.149  0.1894  0.1256  0.1459
12420W        W27889  13.471  12.420   5.094 -0.2223 -0.0249 -0.1273
12421W        W27890  13.578  16.758  12.657 -0.0044  0.1321  0.1050
12422W        W27891   2.077   3.098   4.282 -0.0989  0.3972  0.1831
12423W        W27892  13.716  10.815   1.064 -0.4169 -0.1926 -0.0706
12424W        W27893   2.507  16.381  13.917  0.0114  0.1177  0.2044
12425W        W27894   9.245   4.865  16.747  0.3128  0.0547 -0.2448
12426W        W27895  14.185   1.225   3.051 -0.2879  0.3149 -0.2920
12427W        W27896   3.373  17.089   4.927 -0.2467 -0.3315  0.1254
12428W        W27897   1.815   2.596   3.535  0.0365 -0.0967  0.1917
12429W        W27898   4.721   6.026   5.299 -0.1400  0.0679 -0.1870
12430W        W27899   5.118  10.094  12.539 -0.1808 -0.1701  0.1796
12431W        W27900   4.091   6.020   4.729  0.1096 -0.0418 -0.0232
12432W        W27901   3.043   4.408   5.283  0.2598 -0.1062  0.0623
12433W        W27902   6.888  12.272  12.691 -0.5631  0.0745 -0.0336
12434W        W27903  10.831  16.798   1.143  0.1602 -0.2112  0.0390
12435W        W27904   6.424   1.533  14.919 -0.0448 -0.1044 -0.0884
12436W        W27905   3.801   4.270  11.567 -0.1377 -0.3736  0.0653
12437W        W27906   8.169  16.601  15.732 -0.4240 -0.1560 -0.0459
12438W        W27907   2.397   1.093  14.324 -0.4392 -0.0402  0.0347
12439W        W27908   7.138  13.205   5.234 -0.0224  0.0709 -0.0131
12440W        W27909  11.338   1.408  12.400 -0.3075 -0.3147 -0.1543
12441W        W27910  16.357   4.543   1.916 -0.2772  0.3420  0.1823
12442W        W27911   9.457   2.734   3.770 -0.0044  0.0309 -0.1264
12443W        W27912   0.664  10.024   3.854  0.1042 -0.0925 -0.1991
12444W        W27913   1.006  10.559  11.753  0.0277 -0.2082 -0.0580
12445W        W27914   3.136   3.943  12.666 -0.1700  0.2773 -0.2334
12446W        W27915   2.989  10.797   3.120  0.0004 -0.1408  0.2618
12447W        W27916  17.270   3.314  15.473 -0.3320  0.1492 -0.1166
12448W        W27917   4.715   5.752   0.678  0.3838 -0.0511 -0.1725
12449W        W27918   4.255   5.903   0.284 -0.0157 -0.0742  0.2383
12450W        W27919  12.046  17.279  12.943  0.0449  0.2613 -0.1370
12451W        W27920   3.948  11.392  11.660 -0.0177 -0.4226  0.0466
12452W        W27921   2.894   1.806  13.769  0.0597  0.1118  0.2454
12453W        W27922  16.541  17.406  16.087 -0.0161  0.2758 -0.1118
12454W        W27923  16.856  17.688   0.973 -0.1185 -0.0966 -0.1486
12455W        W27924   1.300   9.970  13.468  0.1171 -0.1564  0.0251
12456W        W27925  10.535  14.199   4.598  0.2355  0.2543  0.0185
12457W        W27926   9.317   8.694  14.588  0.1659  0.2951 -0.0250
12458W        W27927  16.420   8.462   3.953 -0.0832 -0.1057  0.1541
12459W        W27928   8.402  13.728   1.568 -0.3103  0.0328  0.1388
12460W        W27929  15.543   0.585   3.374  0.0202  0.0655 -0.0089
12461W        W27930  16.199  12.862  16.325 -0.0105  0.0673 -0.1104
12462W        W27931  16.808  17.687  13.326  0.0796 -0.2009  0.1971
12463W        W27932   9.084   2.793  13.629  0.1095 -0.2512 -0.0067
12464W        W27933   8.812  17.444   0.857  0.0596 -0.1302 -0.0118
12465W        W27934   4.263  10.127   3.217  0.0862 -0.1997  0.0265
12466W        W27935  13.265  11.737  14.572 -0.2919  0.0729 -0.1053
12467W        W27936  16.759  12.203   4.705  0.3183  0.0317 -0.0768
12468W        W27937   6.675  17.528   3.456 -0.0874 -0.0060  0.0170
12469W        W27938   1.237  13.932   5.443 -0.0692  0.0818  0.0223
12470W        W27939   0.142  12.730  12.918 -0.1475 -0.1461  0.0879
12471W        W27940  15.817   9.021   0.374 -0.2345  0.0046 -0.0204
12472W        W27941  11.761   2.728  15.266  0.1671  0.1568 -0.1622
12473W        W27942   8.981   8.650   2.471  0.0888 -0.0176  0.1812
12474W        W27943  14.488  12.838  16.510  0.2346  0.1367  0.0025
12475W        W27944   1.626  12.410   4.820  0.0262  0.0444 -0.2491
12476W        W27945   4.190  11.989  10.861 -0.0562 -0.1871 -0.2545
12477W        W27946   0.002   3.965   0.133  0.0593 -0.2728 -0.2717
12478W        W27947   7.295   9.394  11.698  0.0269 -0.1617 -0.3966
12479W        W27948   8.313   6.293  13.869 -0.1206  0.0783 -0.1029
12480W        W27949  14.539  15.836   4.200  0.2791  0.1393 -0.0251
12481W        W27950   4.982   5.250   1.498  0.1438 -0.2566 -0.0382
12482W        W27951  10.389  11.344   1.147 -0.2540  0.4575 -0.1813
12483W        W27952   0.316   8.261   0.689  0.0089 -0.1051  0.1079
12484W        W27953  14.671  12.759  14.192  0.1261 -0.0600  0.2050
12485W        W27954   8.201   0.999  14.596 -0.2020 -0.1714  0.1277
12486W        W27955   2.744  11.213   2.368  0.1840  0.1283  0.1100
12487W        W27956  11.295  15.832  16.517  0.1829  0.0414 -0.1590
12488W        W27957  14.052  10.631   5.114  0.3319  0.0705 -0.2945
12489W        W27958   7.542  13.710  16.164 -0.0448  0.1071  0.0398
12490W        W27959   4.224  16.066  12.479 -0.4190 -0.1511  0.1181
12491W        W27960   7.258  10.614  14.896 -0.0205 -0.0803 -0.0933
12492W        W27961   3.169   3.019  10.949 -0.0672  0.5991  0.3455
12493W        W27962   3.697  14.214  16.611 -0.0295 -0.1022 -0.0699
12494W        W27963   2.836  17.205   2.580 -0.1316 -0.0970 -0.0679
12495W        W27964  15.484   8.094   0.073 -0.1253  0.2911 -0.1823
12496W        W27965  16.562  11.464   2.274 -0.1968 -0.1998  0.0561
12497W        W27966   2.733   1.565   5.124 -0.2519 -0.1054 -0.1905
12498W        W27967   1.296   9.022  14.598  0.0959 -0.1926  0.3685
12499W        W27968   8.467   5.266   5.343 -0.0767 -0.1606 -0.1197
12500W        W27969   1.143   7.167   4.326 -0.4310  0.3091 -0.0256
12501W        W27970  10.617   6.729   1.516 -0.2218  0.2148  0.1736
12502W        W27971   4.159   7.737   0.268  0.0397  0.3127 -0.1356
12503W        W27972   2.568   8.711  16.447 -0.1376  0.2687  0.0146
12504W        W27973  15.117  13.820  11.877  0.2008  0.0250  0.0440
12505W        W27974  11.128  15.610   1.320 -0.0725  0.1641  0.1826
12506W        W27975   9.168  13.601   5.232 -0.1578  0.0404  0.0926
12507W        W27976   5.730   8.541  14.484 -0.1672 -0.1077 -0.4639
12508W        W27977  12.211  12.269   1.966 -0.1718  0.1952  0.2935
12509W        W27978   4.373   6.141   0.772 -0.0595  0.2955 -0.1157
12510W        W27979  12.060  11.858  14.800  0.2084 -0.0586 -0.2602
12511W        W27980   5.107   1.592   3.739  0.2654 -0.0957  0.1733
12512W        W27981   2.866  13.206   3.251 -0.0279 -0.4234  0.2351
12513W        W27982   9.005  10.967   4.582 -0.2008  0.0503 -0.1452
12514W        W27983   8.445   7.222   5.234  0.0326 -0.0820 -0.0712
12515W        W27984  16.803   0.995  12.182 -0.1624 -0.2213  0.1116
12516W        W27985   9.601  14.470   5.555  0.2165 -0.2455  0.2467
12517W        W27986   3.568  15.547   2.648  0.3381 -0.0101 -0.2588
12518W        W27987  17.635   8.376  15.204 -0.1759 -0.1316 -0.0590
12519W        W27988   8.343  11.606   0.149  0.2208 -0.1627  0.0468
12520W        W27989  15.762  17.218   4.986  0.1236 -0.0547  0.1747
12521W        W27990  15.456  15.886   4.558 -0.1506 -0.2970 -0.0062
12522W        W27991  15.904   7.902  12.076 -0.0494  0.2911  0.0351
12523W        W27992  16.171   3.498  10.916  0.0788  0.0084 -0.0010
12524W        W27993   3.914  10.124   1.084  0.2736  0.0485 -0.1337
12525W        W27994  11.413  15.027   3.033 -0.0367  0.0110  0.0306
12526W        W27995  15.703   2.954   1.068  0.0387 -0.0333 -0.0341
12527W        W27996   5.647  12.463   1.396 -0.2796 -0.1071  0.1061
12528W        W27997   7.902  16.986  12.452 -0.1713 -0.0709  0.1517
12529W        W27998  13.064  16.769   2.066  0.2849  0.1137  0.1084
12530W        W27999   2.503  17.307   1.186  0.3954  0.1490 -0.2740
12531W        W28000   1.729  12.182  13.082 -0.1663 -0.0075  0.0625
12532W        W28001   2.178   9.306  15.230 -0.1629  0.1767 -0.0864
12533W        W28002   6.542   8.478   4.522  0.1644  0.1398 -0.1686
12534W        W28003   1.681  10.384   4.411  0.0008  0.0373 -0.0642
12535W        W28004   3.394   7.564   0.749 -0.0225  0.4465 -0.0356
12536W        W28005  14.111   5.330   0.660 -0.1918  0.2276  0.2234
12537W        W28006   8.556  13.731  13.636 -0.0983 -0.1460  0.1556
12538W        W28007  17.043   6.290   3.240 -0.0414 -0.0488  0.2397
12539W        W28008   4.254   5.423   0.478  0.2533  0.2327  0.1590
12540W        W28009   7.028  17.730  14.826 -0.1914  0.0500  0.1665
12541W        W28010  13.040  17.437   4.002 -0.0885  0.2361  0.1115
12542W        W28011   9.906   5.611   2.078 -0.2742  0.1050  0.1470
12543W        W28012   3.935   7.512  16.521 -0.2365 -0.4385 -0.1493
12544W        W28013   4.017   0.611  14.353  0.3588  0.1140 -0.2163
12545W        W28014   9.597   1.929   1.515  0.1427 -0.1931  0.1234
12546W        W28015   5.646  11.661  16.242 -0.0725 -0.0935  0.1488
12547W        W28016  10.828   3.400  14.455  0.0780  0.0305 -0.1175
12548W        W28017   0.132  14.390  15.642  0.1648 -0.0636 -0.3714
12549W        W28018   5.440   6.975  13.431  0.0460 -0.0582  0.0203
12550W        W28019   6.056  14.638   3.098 -0.0789 -0.2482  0.0893
12551W        W28020   4.795   8.144  11.999 -0.0163  0.3376 -0.2237
12552W        W28021  12.919   0.759   0.872  0.0456  0.2130 -0.0531
12553W        W28022  10.962   9.777  15.591  0.2030  0.0005  0.1031
12554W        W28023   4.065  15.620  16.409 -0.1481 -0.0284 -0.1970
12555W        W28024  16.022   2.978   3.923  0.0155  0.1950  0.1469
12556W        W28025   7.304  17.582  15.267 -0.0523 -0.1490 -0.5060
12557W        W28026   0.674   0.414   3.288 -0.0575  0.1460 -0.3511
12558W        W28027   7.064  10.310  11.605  0.0436  0.2368 -0.0025
12559W        W28028   3.810   8.959   3.547  0.0801  0.0289  0.2003
12560W        W28029  16.719  15.077   4.786  0.2996  0.1755  0.0977
12561W        W28030  14.130   4.705   0.981 -0.0991 -0.2689  0.1532
12562W        W28031  12.147  10.692   4.395  0.2384 -0.2039  0.1204
12563W        W28032  13.399   8.453  16.242  0.1679 -0.0374  0.1326
12564W        W28033   1.510   6.116  13.268  0.2847  0.1626 -0.1086
12565W        W28034  12.463  12.856   4.434  0.3693  0.1824 -0.3267
12566W        W28035   1.265  17.121  14.141 -0.1186 -0.1806 -0.0004
12567W        W28036  13.612   9.505   2.106  0.2188  0.0223 -0.0782
12568W        W28037  12.302  14.808   1.929 -0.3210  0.1212 -0.1457
12569W        W28038  10.288  11.746   1.923  0.0941  0.2723 -0.0902
12570W        W28039   8.917   9.736  11.486 -0.0870  0.1833 -0.0464
12571W        W28040  16.295   5.311   4.011  0.0359 -0.0012  0.0021
12572W        W28041   5.176  17.266   1.630 -0.1865  0.0284  0.0927
12573W        W28042   4.624   0.820  15.901 -0.2857  0.2419  0.2656
12574W        W28043   0.076   6.636  13.813 -0.0635 -0.3185  0.0851
12575W        W28044  15.237   5.083   1.481  0.0756  0.1000 -0.2008
12576W        W28045  13.575  16.687   1.976 -0.1795  0.0353  0.0841
12577W        W28046   2.885   2.564   4.459  0.0749  0.1123 -0.1420
12578W        W28047   0.473   7.241  12.811  0.1447 -0.3258  0.1849
12579W        W28048  10.510   9.410  14.063 -0.0399 -0.1226 -0.2724
12580W        W28049  14.773  16.986   5.053  0.0130  0.3824 -0.2957
12581W        W28050   0.830  10.916  16.184  0.1144  0.0552  0.0094
12582W        W28051   0.538   6.685  11.841 -0.0716  0.0658  0.0155
12583W        W28052   5.838  11.174   0.183  0.1184 -0.2078  0.0084
12584W        W28053   3.209   8.128  11.424 -0.0231 -0.0453 -0.1199
12585W        W28054  10.171   4.849   2.739  0.2057  0.3249 -0.1700
12586W        W28055  12.777   8.049   5.612 -0.1018  0.0993 -0.0270
12587W        W28056   0.270   4.370  16.776  0.0426  0.2296  0.0546
12588W        W28057  15.304   0.777   4.817  0.2475  0.0400  0.3569
12589W        W28058  16.030   8.813   6.207 -0.1029 -0.0448  0.0123
12590W        W28059   8.102  13.510  15.265  0.0538 -0.1796  0.1466
12591W        W28060   1.881  16.867   1.708  0.1804 -0.0137  0.1119
12592W        W28061   9.863  10.285  14.573  0.2693  0.0237 -0.1396
12593W        W28062   0.207  17.203  14.151  0.1529  0.0829  0.0351
12594W        W28063  12.389   0.658  12.699 -0.2360 -0.2439  0.0942
12595W        W28064  11.810  15.718  16.773  0.1388 -0.3433 -0.2252
12596W        W28065  10.519  13.471   3.673 -0.0270  0.0712  0.1051
12597W        W28066  10.039  13.029   3.248  0.1060 -0.1649  0.0827
12598W        W28067   6.595  16.729  11.612 -0.1358  0.1309 -0.1688
12599W        W28068   9.646   3.279  13.832  0.1113 -0.1932  0.0528
12600W        W28069   6.367   1.127   1.929  0.1916 -0.0452 -0.2586
12601W        W28070   6.527   7.673  12.111 -0.0254  0.0233 -0.2143
12602W        W28071  17.082   8.961   2.653 -0.2068  0.1476 -0.1487
12603W        W28072   4.847   9.840  12.225 -0.1480 -0.3082 -0.0601
12604W        W28073   3.063   7.232   4.691  0.0935  0.1274  0.2676
12605W        W28074   0.368  14.444  14.901 -0.2570 -0.0973 -0.1196
12606W        W28075   0.227  11.060   0.624 -0.0180  0.4532  0.0490
12607W        W28076  13.319   3.984  16.229 -0.0950 -0.1122 -0.1071
12608W        W28077  13.498   3.400   0.218 -0.1073 -0.3031 -0.0533
12609W        W28078   0.996   9.078  16.626 -0.1874 -0.0129 -0.1005
12610W        W28079  14.882   3.436   4.298 -0.2802  0.0381  0.3098
12611W        W28080  16.072   4.687  13.705  0.2737 -0.2458  0.3066
12612W        W28081  16.496   4.418  13.198  0.1883 -0.0797  0.0238
12613W        W28082  17.599   2.586   2.107  0.3187  0.3238  0.2522
12614W        W28083   6.885  15.659   2.744 -0.2227  0.1858  0.0191
12615W        W28084  12.667  14.761  12.807 -0.1795 -0.4616 -0.0200
12616W        W28085   4.557   7.394  11.171  0.0785  0.1148 -0.1724
12617W        W28086  10.375   0.399   3.046 -0.2654 -0.2526  0.0927
12618W        W28087   3.644   0.012  13.685  0.0686  0.0138 -0.0377
12619W        W28088   4.261  12.295   2.362 -0.0828 -0.1720  0.1923
12620W        W28089  15.834   8.941   2.728 -0.1212  0.0541  0.0996
12621W        W28090   1.239  13.212  13.437 -0.0764  0.0549 -0.0601
12622W        W28091  14.046  17.165  11.017  0.0089  0.0173 -0.3302
12623W        W28092   6.733  15.792   2.149 -0.0466 -0.1539 -0.0336
12624W        W28093  14.439   0.912   0.277  0.1441  0.3357  0.0263
12625W        W28094   2.618  14.777   2.392  0.0191 -0.2118 -0.1635
12626W        W28095  14.453  15.115  11.498 -0.1588 -0.3042 -0.1367
12627W        W28096   6.435  14.738   6.237 -0.2002  0.1242  0.0533
12628W        W28097   1.646   0.708   3.370  0.3013 -0.1992  0.3172
12629W        W28098   7.667   6.737  15.017 -0.0287  0.3217  0.0988
12630W        W28099   2.406   6.194   0.000  0.0628  0.0128  0.0661
12631W        W28100  17.094  17.303  11.802  0.2024 -0.1838 -0.0062
12632W        W28101   0.137  13.991   2.680  0.1212  0.3079 -0.2366
12633W        W28102   0.381   3.701   2.958 -0.0594 -0.0980  0.1699
12634W        W28103   9.092  16.698  12.200  0.0064 -0.1209  0.3133
12635W        W28104  16.753  12.770   5.425 -0.0490  0.0012  0.0417
12636W        W28105   1.168  16.682  15.112  0.0828  0.0698  0.3863
12637W        W28106  11.722  13.325   3.367 -0.0965 -0.2212  0.0959
12638W        W28107   3.515  15.890   0.212 -0.1642 -0.0699  0.0332
12639W        W28108   8.948   8.990   1.674 -0.0164 -0.1154  0.0744
12640W        W28109   9.976   2.348  15.545  0.1368 -0.0440 -0.0580
12641W        W28110  17.242  11.391  14.420 -0.1855 -0.0622  0.0983
12642W        W28111  14.897  13.312   3.272 -0.0110 -0.0308  0.3194
12643W        W28112  17.349   9.473  14.338  0.0254  0.0741  0.2325
12644W        W28113   4.669  14.135  15.841 -0.0489  0.0117 -0.1286
12645W        W28114  14.641   5.076  12.358 -0.3209 -0.1801  0.2251
12646W        W28115   9.810   3.410  12.344  0.1080  0.1134  0.0089
12647W        W28116  13.823   9.340  12.455 -0.1537  0.1176  0.3525
12648W        W28117   4.847  11.413   3.874  0.1372  0.0306 -0.1824
12649W        W28118   3.818  14.232   0.699 -0.1617  0.1062 -0.1980
12650W        W28119   1.999  15.022  15.353  0.2165 -0.0486 -0.4112
12651W        W28120  15.537  14.996   2.606 -0.0483 -0.0621 -0.1151
12652W        W28121  10.963   4.974  15.279  0.1223  0.0074  0.2995
12653W        W28122   6.848  10.852   2.758 -0.0011  0.1726  0.1064
12654W        W28123   4.323   3.818   4.761  0.1318  0.1619  0.0387
12655W        W28124  12.712  14.732  16.830 -0.4231  0.0759 -0.0581
12656W        W28125  10.684   0.959   4.627  0.0913  0.0739 -0.2173
12657W        W28126  11.486   6.954  13.730 -0.0161 -0.1602 -0.1882
12658W        W28127  16.361  14.189  13.021 -0.0347 -0.0390 -0.0744
12659W        W28128   4.054   3.156   0.924  0.1168 -0.2725  0.1181
12660W        W28129   2.707   0.725   3.728 -0.0027 -0.1743  0.0570
12661W        W28130   8.637  10.338   5.976 -0.1241 -0.2490  0.1849
12662W        W28131   3.436  12.227  12.792 -0.3050 -0.0490  0.1438
12663W        W28132   2.005  16.477  16.508  0.1616  0.0312  0.0808
12664W        W28133   7.924   0.194  16.815 -0.3186  0.1002  0.1255
12665W        W28134   4.203   4.321   1.756  0.1755 -0.3116  0.2874
12666W        W28135   1.640   5.652  12.576 -0.1208  0.0148  0.2338
12667W        W28136   8.546   2.795  15.717 -0.3074  0.1096  0.0636
12668W        W28137  14.943   8.613   0.553 -0.1034 -0.0723  0.3120
12669W        W28138  13.085   1.647  14.013 -0.1266  0.2406  0.1799
12670W        W28139  17.163  11.943  16.149  0.0190  0.1859  0.1288
12671W        W28140   5.898   6.564  12.110 -0.0091 -0.0718  0.0327
12672W        W28141  11.863   8.025  16.594  0.2174 -0.0236 -0.0700
12673W        W28142   9.929   4.254   2.877  0.0348  0.0504 -0.2505
12674W        W28143  12.500   8.278  12.983 -0.0814  0.3664 -0.1827
12675W        W28144   5.623  17.389  12.125 -0.1318 -0.2555  0.0498
12676W        W28145   8.278   2.790  13.906  0.0040  0.2649  0.0980
12677W        W28146  15.093   0.592   3.132  0.4456 -0.2084  0.2837
12678W        W28147  17.328  13.658  14.043 -0.3054  0.1825 -0.1692
12679W        W28148   4.274   5.819   2.111 -0.0595  0.0644  0.0333
12680W        W28149  16.199  11.533  12.773 -0.1203 -0.4498  0.1961
12681W        W28150  16.438   5.324  10.487 -0.2229 -0.0487 -0.2396
12682W        W28151   1.866   6.966   0.604  0.0495  0.1900 -0.0726
12683W        W28152  11.894   7.767   5.010 -0.2499 -0.2270  0.0444
12684W        W28153  10.993  14.743  15.562  0.1800  0.0991 -0.3075
12685W        W28154  12.908   6.329  11.861 -0.0818  0.1476  0.1186
12686W        W28155   5.179  17.655   2.450  0.2863 -0.0166  0.0424
12687W        W28156  14.216   1.005   4.447  0.2724  0.2806  0.0228
12688W        W28157  16.531  11.609   1.278  0.2169  0.0735 -0.2316
12689W        W28158   1.417  11.041   0.164  0.1014  0.1853  0.1352
12690W        W28159  13.894  16.164   3.104  0.2751  0.0912  0.1536
12691W        W28160   7.290   6.912  15.951  0.1398  0.1519  0.1832
12692W        W28161   7.695   1.341   4.543 -0.2267 -0.0327  0.0942
12693W        W28162   7.122   0.723  16.699  0.0026  0.0510  0.2063
12694W        W28163  14.733   6.054  13.531  0.1220 -0.4432  0.2346
12695W        W28164  11.238  12.734   0.555 -0.1638  0.0960 -0.2347
12696W        W28165   5.582  15.691  13.361  0.1363  0.3224 -0.3080
12697W        W28166   1.416   8.861  16.311  0.3847  0.1004 -0.1006
12698W        W28167  11.692  16.363   2.265 -0.1506 -0.2791  0.2782
12699W        W28168   4.452   5.271  14.795 -0.0781 -0.0594 -0.4485
12700W        W28169  13.004  14.917   6.261 -0.2406  0.0235  0.0785
12701W        W28170  13.518  17.501  16.234  0.0158 -0.0796 -0.1080
12702W        W28171   6.424   1.968   1.775 -0.2689  0.0949 -0.0385
12703W        W28172  11.984   2.329  13.131 -0.1829  0.2130 -0.3004
12704W        W28173   8.618   0.949  16.823 -0.0599  0.0848  0.1503
12705W        W28174   5.229   8.334  12.187 -0.1589 -0.0308 -0.1371
12706W        W28175  13.139   8.709   6.045  0.3935 -0.1233 -0.1008
12707W        W28176   3.419   1.579  14.844 -0.1559 -0.1061  0.3900
12708W        W28177  12.378  11.646  12.054  0.1399  0.3158  0.2540
12709W        W28178   5.785   5.896  13.305  0.3464 -0.0773  0.0098
12710W        W28179   6.798  15.582  12.671 -0.1955 -0.0233 -0.0097
12711W        W28180  11.729  15.091  13.271  0.0059 -0.3902  0.2005
12712W        W28181  11.515   7.479  11.428  0.0604  0.2016 -0.4094
12713W        W28182   7.462  13.053  13.782 -0.2400  0.0912 -0.0404
12714W        W28183  14.931   2.999  16.431 -0.0931  0.0131 -0.0201
12715W        W28184   2.971   8.101   4.806  0.1511 -0.2287  0.0034
12716W        W28185   4.332   0.595  14.857  0.0773  0.1102  0.1129
12717W        W28186   8.899   0.868   7.008 -0.0489 -0.1576 -0.0247
12718W        W28187  11.904  13.090  15.060  0.0423  0.1606 -0.0739
12719W        W28188   7.847   5.413   5.262  0.1226 -0.1902 -0.0484
12720W        W28189   7.669   3.319  16.437 -0.2650 -0.1935 -0.1171
12721W        W28190  14.731  11.920   0.096  0.0541  0.1909 -0.0766
12722W        W28191  14.467  13.327   4.608 -0.1561 -0.0301  0.0153
12723W        W28192   8.916  14.894   5.227 -0.1247 -0.1833 -0.0878
12724W        W28193  12.600  17.422  16.390 -0.0223 -0.2570 -0.2207
12725W        W28194  10.647   8.146   0.642 -0.1017  0.0760 -0.0857
12726W        W28195   3.357  16.806  12.711 -0.0461 -0.0843 -0.0141
12727W        W28196  17.515   9.263  15.525 -0.1973  0.0410  0.3097
12728W        W28197   9.422   7.061   0.897  0.0583 -0.3425 -0.2765
12729W        W28198   0.700  12.654  11.846  0.3154 -0.0529  0.1176
12730W        W28199  10.461  10.067  16.211  0.1552 -0.0276  0.1061
12731W        W28200   7.129   8.685  16.291 -0.0938 -0.1708 -0.2534
12732W        W28201  17.123  11.890   3.222  0.3059  0.2305  0.3910
12733W        W28202  16.959   6.043   2.071  0.0725  0.1358 -0.1681
12734W        W28203  12.309   0.197   2.911  0.0334 -0.0820 -0.1564
12735W        W28204  11.647   5.809   4.903  0.1435  0.0267 -0.2539
12736W        W28205  17.161   9.824  12.870 -0.0495 -0.1163  0.1182
12737W        W28206   0.816   8.377   3.275  0.0628  0.1094  0.2225
12738W        W28207  13.511  10.913   2.978 -0.3161  0.0761 -0.0753
12739W        W28208   0.361   9.241   2.263  0.1599  0.1136  0.0835
12740W        W28209  15.623   4.494  15.601  0.0769  0.2327 -0.0283
12741W        W28210  11.051   2.681  11.995  0.1391 -0.2432  0.0179
12742W        W28211  11.406   6.279  13.443  0.3778 -0.0753  0.1918
12743W        W28212  17.688   5.428  12.791 -0.1655 -0.0656 -0.1441
12744W        W28213   5.287  11.167   3.766 -0.2545  0.0345  0.0143
12745W        W28214  16.723  17.127  16.575  0.1683 -0.0601  0.0476
12746W        W28215  14.335   0.008  16.104  0.1211 -0.0651  0.1354
12747W        W28216   3.119  15.424   2.804  0.4220 -0.0151 -0.1492
12748W        W28217   5.637   7.437  13.489  0.2642  0.0059 -0.0137
12749W        W28218  16.627  11.321  11.596  0.2147 -0.1077 -0.0904
12750W        W28219   5.380  12.114   3.875 -0.3020 -0.2224  0.2638
12751W        W28220  15.271   6.277   1.826 -0.2346 -0.2678 -0.1456
12752W        W28221  10.349   0.047  14.080 -0.0749  0.0313  0.0744
12753W        W28222   0.701   7.326  12.411 -0.0601 -0.2339  0.1934
12754W        W28223   0.747   2.526  15.021  0.1737 -0.0983  0.1650
12755W        W28224  15.844   9.929  10.984 -0.2250  0.1769 -0.2197
12756W        W28225   8.551  11.140   4.260  0.1995 -0.2593  0.0672
12757W        W28226   7.345   2.810  13.890 -0.0464  0.0399  0.0682
12758W        W28227   5.183   1.741   3.185 -0.0539 -0.2445 -0.0626
12759W        W28228  10.216  12.595  13.921 -0.1083 -0.2019  0.1492
12760W        W28229  12.572  14.867   2.320  0.1374  0.4041  0.0610
12761W        W28230  10.709  14.348   3.175 -0.0339  0.2212 -0.1086
12762W        W28231   0.883   9.417   5.178 -0.0602  0.0099 -0.1605
12763W        W28232   4.779   9.643  11.711 -0.0448  0.1219 -0.1637
12764W        W28233   1.389  11.722  12.639  0.0886 -0.1554  0.0034
12765W        W28234   6.405   9.949  13.062  0.0463  0.2702 -0.1785
12766W        W28235   1.029  17.147  12.623 -0.1898  0.0735 -0.0310
12767W        W28236   4.094  14.097   5.192 -0.0963  0.2143  0.2783
12768W        W28237   2.614  10.505  11.918  0.3640 -0.0228  0.0990
12769W        W28238  10.969  15.057   0.041 -0.2103 -0.0568  0.0209
12770W        W28239   4.513   2.399   4.002  0.0831  0.1709 -0.1439
12771W        W28240  10.369  14.066  12.241 -0.0061 -0.0600  0.0862
12772W        W28241  15.401  15.475   4.171  0.3822  0.0504 -0.0121
12773W        W28242  15.595   9.750  16.341 -0.1148 -0.1881  0.1128
12774W        W28243   1.270   8.933  10.290 -0.1350  0.0965 -0.3591
12775W        W28244   2.606  10.219   4.819 -0.1732 -0.2050  0.2851
12776W        W28245  15.894  14.750   2.291 -0.1791 -0.1056  0.1437
12777W        W28246  17.302  14.711   2.008 -0.1821  0.0801  0.0214
12778W        W28247  13.285   3.365  13.447 -0.1286  0.0983 -0.1299
12779W        W28248   6.496  11.682  16.645 -0.2380  0.1791  0.0697
12780W        W28249   4.155   1.406  15.288  0.0198 -0.1242 -0.1828
12781W        W28250   5.781   8.813   1.085 -0.0269 -0.1802 -0.2353
12782W        W28251  12.853  12.909   2.816 -0.0502 -0.0150  0.2732
12783W        W28252   4.035   4.736  12.506 -0.2909 -0.0509  0.0124
12784W        W28253  15.926  11.863   4.886 -0.1988  0.1626  0.2324
12785W        W28254  11.664   6.725  14.950  0.2989  0.1320  0.0190
12786W        W28255  14.079   8.295  16.097 -0.0598  0.3965  0.0717
12787W        W28256   2.141   5.252   5.307 -0.1109 -0.1023 -0.0358
12788W        W28257  15.409  11.344  13.874  0.0542 -0.1202 -0.2127
12789W        W28258   8.353  13.548   0.234  0.2556  0.0778  0.0087
12790W        W28259   5.581   2.371  15.836  0.0136  0.1933 -0.1789
12791W        W28260  14.403  10.840  10.658  0.1753 -0.2681  0.0175
12792W        W28261  15.213   3.252  14.613 -0.0234  0.1237  0.1229
12793W        W28262   4.471   8.308  14.133  0.0536 -0.0359 -0.2118
12794W        W28263  12.229   0.044   0.898  0.0445 -0.0804  0.0797
12795W        W28264  15.511   3.169  16.260  0.3961 -0.0302  0.0987
12796W        W28265   1.735  16.416  13.826 -0.0404 -0.1850  0.0093
12797W        W28266   4.953  14.322   2.024 -0.0569  0.2713  0.0475
12798W        W28267   9.367  13.410   2.584 -0.1149  0.1647  0.2133
12799W        W28268  17.051   5.588   2.349  0.0687  0.0800 -0.1411
12800W        W28269   6.738  11.339   5.249  0.0948 -0.0127  0.1376
12801W        W28270  10.428   4.831  15.325 -0.0986  0.0776 -0.1393
12802W        W28271  12.976  16.204   3.879 -0.5015 -0.1202  0.1579
12803W        W28272   3.071  15.124   4.531  0.1996 -0.0703  0.0884
12804W        W28273   8.828  12.112  16.329  0.1231 -0.0173 -0.1569
12805W        W28274  15.922   0.097   4.634  0.1468 -0.1420 -0.0226
12806W        W28275  11.693  17.079   5.908 -0.0568  0.2524  0.1799
12807W        W28276   8.289   7.087  15.929 -0.2379 -0.2615  0.2064
12808W        W28277   2.863   1.555  14.216  0.4263 -0.1093 -0.0146
12809W        W28278  10.992  15.406  16.507 -0.1875 -0.0021 -0.0127
12810W        W28279   1.249   7.310  15.216  0.0018 -0.1971  0.2432
12811W        W28280  13.778   0.397   1.070  0.1897  0.1036  0.1384
12812W        W28281   6.408  10.868  14.834  0.1982  0.1353 -0.0599
12813W        W28282  10.982  17.049   3.952  0.3156 -0.1519 -0.0599
12814W        W28283  11.192   7.890   1.361 -0.2409 -0.2493 -0.1261
12815W        W28284  16.509  13.417  14.519 -0.2600  0.0568 -0.2244
12816W        W28285   6.595  16.635   1.820  0.1099  0.0192 -0.1472
12817W        W28286  14.247   7.824   0.454  0.2371 -0.2162  0.0700
12818W        W28287   2.991  17.469   0.699  0.1510 -0.2160  0.1457
12819W        W28288   7.446   1.193   3.696  0.1501  0.0884  0.3136
12820W        W28289  12.265   1.390  12.385  0.0665  0.0813  0.0674
12821W        W28290   7.250   2.410   4.770 -0.2533  0.1754  0.1114
12822W        W28291   2.413   5.961   0.484 -0.1568  0.2921 -0.0184
12823W        W28292   7.311   4.602  13.821 -0.3003 -0.0597 -0.1416
12824W        W28293  15.681  13.946   0.095 -0.1232  0.2869  0.2857
12825W        W28294  17.199   7.162  10.860 -0.0587 -0.1195 -0.2208
12826W        W28295   9.731  13.496   5.521 -0.0905 -0.0317 -0.0358
12827W        W28296   4.097   1.735   1.192  0.2747 -0.3459 -0.0419
12828W        W28297   9.666   8.390  14.015 -0.0257 -0.2195 -0.3651
12829W        W28298   5.755  11.473  15.052 -0.0003 -0.0480  0.0633
12830W        W28299  11.793  14.673   5.084 -0.0830  0.1033 -0.1356
12831W        W28300  13.258   3.105   1.493  0.1751 -0.2419 -0.2368
12832W        W28301  11.525  16.338   0.445 -0.0968 -0.0816  0.0731
12833W        W28302  14.916   0.869  14.892 -0.3518 -0.0132  0.1789
12834W        W28303   5.971   9.307  13.276  0.3960 -0.1455 -0.0551
12835W        W28304   6.383  17.586   2.662  0.0911 -0.0001  0.1909
12836W        W28305  17.606   5.498   1.697  0.1648 -0.0817  0.1221
12837W        W28306   5.055  15.976   3.772  0.1049 -0.1833 -0.3048
12838W        W28307  14.826  12.486  13.300  0.2922  0.2745  0.1803
12839W        W28308   0.433   9.967  16.500 -0.1279  0.1020 -0.0032
12840W        W28309  10.255   8.032  15.363  0.1550 -0.0472 -0.0658
12841W        W28310  13.522  11.876   5.951  0.3220 -0.2079 -0.1381
12842W        W28311   5.151  17.732  15.991  0.1183 -0.0362  0.0098
12843W        W28312  16.958  17.253   3.548  0.0750  0.1187 -0.1163
12844W        W28313  17.362   1.686   3.961 -0.0845  0.0221  0.1593
12845W        W28314   8.901   0.639  16.056 -0.2413  0.0237  0.3133
12846W        W28315   2.774  14.064   4.775 -0.4505 -0.1194 -0.0764
12847W        W28316   8.687   9.533   0.001 -0.0883 -0.0012 -0.1356
12848W        W28317  17.718  17.002  16.486 -0.1403  0.0257  0.2079
12849W        W28318  17.282   2.781   4.702  0.0747 -0.1041  0.0405
12850W        W28319  10.077   9.991  15.365  0.0606  0.2917 -0.0194
12851W        W28320   9.153  11.302  16.505 -0.0438  0.1539 -0.2279
12852W        W28321  17.200  13.969  15.010 -0.0224  0.1389 -0.3049
12853W        W28322   3.494   6.978   0.679 -0.2372 -0.2595 -0.3878
12854W        W28323  12.309  13.838   2.934 -0.1447  0.1141 -0.3583
12855W        W28324  16.877  16.610   3.719 -0.3169  0.1341 -0.2679
12856W        W28325  11.887   9.511   1.326 -0.1789  0.1833 -0.3982
12857W        W28326  17.292  13.146   0.586  0.0569 -0.1299 -0.0994
12858W        W28327   7.910   0.181   0.479 -0.2047  0.1192 -0.1680
12859W        W28328   6.452   2.529   0.264 -0.0683  0.1710  0.0362
12860W        W28329  17.349  10.328   4.598 -0.1145  0.0263 -0.0945
12861W        W28330  15.773   7.712   5.403 -0.0975  0.0513  0.2803
12862W        W28331  13.247  14.267   1.869 -0.1489  0.1410  0.2734
12863W        W28332   5.640  10.349   4.887  0.0779 -0.0962 -0.3087
12864W        W28333   0.115   6.144   4.096 -0.2588  0.4315 -0.3563
12865W        W28334   8.873  11.322   2.760 -0.1153  0.1808 -0.0664
12866W        W28335   2.087  12.317  15.946  0.4187  0.1333  0.4860
12867W        W28336  11.839   1.206   0.281  0.1694  0.0937 -0.2932
12868W        W28337   7.402   2.807   2.512  0.1641  0.2462  0.0762
12869W        W28338  16.763   3.267   5.229  0.2831  0.0923  0.0133
12870W        W28339   9.859   6.968  11.952 -0.0850 -0.3610 -0.2131
12871W        W28340   8.410   8.645   5.351  0.1767 -0.0749  0.1092
12872W        W28341   3.001  12.777   3.481  0.0124 -0.1660 -0.0532
12873W        W28342   5.564   6.642  13.783 -0.1059  0.0687  0.2237
12874W        W28343   7.170  14.951  14.178  0.2884  0.0100 -0.0077
12875W        W28344   2.040  13.610  11.096  0.0791 -0.4313  0.0026
12876W        W28345  10.036   3.490   5.612 -0.2437 -0.2331  0.1010
12877W        W28346   9.521   6.171   1.013 -0.0639  0.0985  0.0125
12878W        W28347  15.990   5.506  13.986 -0.1217 -0.1468  0.0239
12879W        W28348   7.050   2.757  13.190  0.4058  0.1317 -0.1064
12880W        W28349   7.944   9.300  14.568  0.2053  0.1500 -0.0178
12881W        W28350   3.892   8.957   3.041 -0.4750 -0.0186 -0.2790
12882W        W28351  11.761  16.295  13.892  0.0248 -0.0428 -0.2078
12883W        W28352  13.235   6.690  14.542 -0.1117  0.0054 -0.1812
12884W        W28353   4.990   1.584   2.647  0.0428 -0.0733  0.0483
12885W        W28354   4.379   4.725   5.214  0.0880  0.0938  0.0507
12886W        W28355  11.968   1.669   0.147 -0.1106 -0.1623  0.0856
12887W        W28356  10.335   8.691  13.525 -0.2725 -0.3731  0.1563
12888W        W28357   1.869  16.745  12.881 -0.0561  0.0612  0.0160
12889W        W28358  15.726  15.235   0.216 -0.0419  0.1798 -0.1217
12890W        W28359  15.083   3.481  16.498  0.0604  0.1399 -0.0519
12891W        W28360   0.196  14.307   0.016 -0.4281 -0.0285 -0.1042
12892W        W28361   5.185  10.958  14.343 -0.2416  0.1432  0.0736
12893W        W28362   3.126   0.509   5.154 -0.3597 -0.0677  0.2478
12894W        W28363  15.484  10.051  15.393 -0.2449 -0.1415  0.2154
12895W        W28364   8.651   4.810  16.489  0.3382  0.3969  0.1374
12896W        W28365  15.303   3.200   5.397 -0.0438  0.1414 -0.0920
12897W        W28366   0.983  13.666   5.094  0.1285 -0.0108 -0.0362
12898W        W28367  14.143   4.391  13.835  0.0015  0.2035  0.1720
12899W        W28368   4.602   0.586   2.871 -0.0159  0.1210  0.0587
12900W        W28369  12.823   7.710   3.877  0.0410  0.0942  0.2980
12901W        W28370  10.479   5.703   5.424 -0.1156  0.0049 -0.0019
12902W        W28371   4.667   1.709   1.295  0.0884 -0.1208  0.2264
12903W        W28372   7.405   4.490   3.501  0.3127  0.0650 -0.2464
12904W        W28373  16.255  16.018   0.442  0.1627 -0.1719 -0.0206
12905W        W28374   9.487  15.571   5.748 -0.1410  0.0980  0.1587
12906W        W28375  16.173   0.033   2.295  0.0304  0.0326  0.2201
12907W        W28376  10.341   3.092  15.378  0.2635  0.0504  0.0841
12908W        W28377   5.605   3.102  15.145  0.5464  0.1642  0.0395
12909W        W28378   2.032   1.249   1.795 -0.3537 -0.1666 -0.0080
12910W        W28379  15.623   5.706   5.068  0.0630  0.0654  0.0398
12911W        W28380   3.134   6.709   0.415 -0.0903  0.1199 -0.2865
12912W        W28381   3.397  14.372   0.299 -0.2022  0.0542  0.2486
12913W        W28382   2.073   0.442   1.603 -0.1594 -0.0793 -0.0855
12914W        W28383   1.842   7.573  16.081 -0.0156 -0.1874  0.0260
12915W        W28384  16.542   6.917   2.991  0.0137 -0.2680 -0.2319
12916W        W28385  12.886   4.101   3.756  0.0331  0.1675  0.1940
12917W        W28386   0.514   4.022   3.504  0.2203  0.1245 -0.1281
12918W        W28387  13.533   5.781   4.712 -0.3803  0.0849 -0.0755
12919W        W28388  11.980   4.334   4.685 -0.0797 -0.0717 -0.0538
12920W        W28389   3.041   6.157  16.551 -0.0381  0.0175 -0.2062
12921W        W28390  17.728   9.895  16.221 -0.1341 -0.0283  0.1428
12922W        W28391   1.679   5.901  11.157  0.2731 -0.0601  0.3436
12923W        W28392  13.578   7.777   5.401 -0.2003  0.3205 -0.1402
12924W        W28393  14.623   3.819   1.784 -0.0683  0.3461 -0.0995
12925W        W28394  15.300  13.604   3.169  0.1168 -0.0529 -0.1401
12926W        W28395   2.634  12.293  13.168  0.1024  0.1045  0.1144
12927W        W28396  10.354  17.684  12.190 -0.2493 -0.1688  0.0411
12928W        W28397  12.507  12.914   0.085  0.0939  0.0653  0.1276
12929W        W28398  11.497   8.143  12.931  0.0115 -0.3240 -0.0811
12930W        W28399  13.682  13.782   4.992  0.0217  0.1793  0.1330
12931W        W28400  14.015   3.360   4.924 -0.3471  0.0888  0.1410
12932W        W28401   4.720   3.328   1.213  0.1617  0.3481 -0.1011
12933W        W28402  10.666  11.471  13.164 -0.2003  0.0476 -0.1595
12934W        W28403  12.418   3.758  12.939 -0.2810 -0.1057  0.1997
12935W        W28404  12.202  15.121  12.591 -0.1673  0.2338  0.0388
12936W        W28405   3.431   6.317  14.887  0.0387 -0.3208  0.1728
12937W        W28406   1.762  13.118  11.074  0.0240  0.0794 -0.0457
12938W        W28407  12.710  12.615  12.243 -0.2766  0.2533  0.1572
12939W        W28408  15.209  15.348   2.433 -0.0126  0.0797 -0.1125
12940W        W28409  10.922   2.632  14.410  0.0295 -0.1165  0.1397
12941W        W28410  15.610   2.350   2.602  0.0631 -0.0254  0.0217
12942W        W28411   1.896  13.636   2.053  0.2205 -0.0679 -0.5287
12943W        W28412   1.686   4.169   2.178  0.1841 -0.2146 -0.3588
12944W        W28413   3.130  13.172   4.209  0.0015 -0.2613  0.1174
12945W        W28414  14.588  16.647  13.542  0.3749 -0.1372  0.1921
12946W        W28415   0.124   7.236   1.870  0.1066  0.2118  0.4668
12947W        W28416   8.005   2.421   0.942  0.1483 -0.0479  0.0806
12948W        W28417   6.222   8.403  12.614  0.1090  0.0009 -0.2731
12949W        W28418   9.639   9.239  15.590 -0.0206  0.0991 -0.1261
12950W        W28419  14.898   9.597   4.640 -0.4240 -0.1077 -0.1068
12951W        W28420   3.823  16.902  13.970 -0.2364 -0.1633  0.3024
12952W        W28421   8.201   9.032  12.121  0.2545  0.3252  0.1714
12953W        W28422  12.031  12.359   3.837  0.0665  0.2144 -0.4714
12954W        W28423   2.185  10.546  12.867 -0.1908 -0.0081  0.3679
12955W        W28424  13.296  16.275  16.253 -0.1673 -0.1777 -0.1412
12956W        W28425  14.264   3.462   1.649 -0.1284  0.0008  0.0456
12957W        W28426   5.954   2.456  12.674  0.3065  0.3117 -0.2979
12958W        W28427   1.619  17.223   1.055 -0.0374  0.2396  0.0340
12959W        W28428  13.842   2.089  12.545 -0.1716  0.2091  0.1545
12960W        W28429  13.129   5.850  13.647  0.0984  0.4837  0.0619
12961W        W28430   9.393  13.106   5.358  0.0341 -0.1354  0.2068
12962W        W28431   2.207   4.696  13.311  0.0049 -0.2267  0.3185
12963W        W28432  10.804   0.580   1.164 -0.0208 -0.1250  0.2416
12964W        W28433  12.384   0.505   5.094 -0.1462  0.1728  0.1066
12965W        W28434   5.022  10.663  14.827 -0.1873  0.0540 -0.0061
12966W        W28435  15.166  11.138   2.058  0.1725  0.1729  0.1619
12967W        W28436   0.090   2.141  11.548  0.2117 -0.2301  0.0002
12968W        W28437   6.577  14.478   5.404 -0.1165  0.2462  0.0466
12969W        W28438   2.297  11.628   5.109 -0.3680  0.1500 -0.0783
12970W        W28439   9.803   4.770   3.123  0.0989 -0.2314  0.0906
12971W        W28440   1.713  14.594   0.776 -0.0854 -0.0337  0.0964
12972W        W28441  12.561   7.963  12.560  0.2013  0.0823 -0.1179
12973W        W28442  16.524   0.338   1.823  0.0349 -0.2781 -0.0602
12974W        W28443  17.326  13.321   4.332  0.0286 -0.0823 -0.1053
12975W        W28444  16.590   5.893   2.332  0.3881 -0.1746 -0.2236
12976W        W28445   5.592  16.529  12.169 -0.1873  0.1256 -0.0315
12977W        W28446  14.071   1.186   0.456  0.1470  0.0031  0.0826
12978W        W28447   0.194   9.087  16.603 -0.1910  0.0816  0.0248
12979W        W28448  15.479  12.511   4.724  0.1717  0.0374 -0.0076
12980W        W28449   1.626   8.354   0.521 -0.2299  0.1442 -0.1228
12981W        W28450   0.695   5.581   4.683  0.0609  0.0368 -0.3259
12982W        W28451   3.895  15.392  13.602  0.2657  0.0122  0.0578
12983W        W28452   9.664   8.562   1.400  0.0192 -0.0368 -0.0881
12984W        W28453   0.479  12.379   1.895 -0.1536  0.0085 -0.1279
12985W        W28454  10.796   3.775   0.728  0.2838 -0.0807  0.1010
12986W        W28455   1.733   8.286   5.450  0.0678 -0.2512 -0.3051
12987W        W28456  17.474   8.497  13.452  0.1360  0.0948 -0.1465
12988W        W28457  12.408  10.476   6.129  0.0732 -0.1470 -0.0770
12989W        W28458   4.982  17.690  12.860  0.1403  0.0187  0.1567
12990W        W28459  10.259   3.390   1.414 -0.0478  0.2327 -0.0973
12991W        W28460   6.842   8.788   1.089 -0.1072  0.2558  0.0237
12992W        W28461  12.229  14.797  16.578 -0.1789  0.0348  0.0815
12993W        W28462   1.527  11.809   3.488  0.1627 -0.4666  0.0776
12994W        W28463  13.505   6.671   3.593 -0.2814  0.2261  0.1884
12995W        W28464   6.358  17.630  16.177 -0.1370  0.0958 -0.3218
12996W        W28465  13.912   7.885   4.679 -0.1979  0.0392 -0.2463
12997W        W28466  17.703  16.226   2.095  0.1027 -0.0698  0.2367
12998W        W28467  17.216   8.255  13.108 -0.0829  0.2051  0.2737
12999W        W28468   9.509  11.540  13.775 -0.2122 -0.2501  0.0466
13000W        W28469   9.486   0.435  13.734 -0.0662 -0.1869 -0.0586
13001W        W28470   4.743   5.428   4.623 -0.1902 -0.4953 -0.0083
13002W        W28471   5.828  10.511   3.884 -0.0498 -0.0839  0.0583
13003W        W28472   6.294  15.072   0.257 -0.2308 -0.0393 -0.0382
13004W        W28473   4.825   4.092  15.552 -0.0981  0.1867  0.0329
13005W        W28474   8.310   3.063  11.913  0.0703  0.2389 -0.3654
13006W        W28475   9.454   3.772   1.221 -0.3325 -0.1998  0.0897
13007W        W28476  10.795   3.896   5.241 -0.0831  0.1747  0.1465
13008W        W28477   4.144  13.112   1.256 -0.0387 -0.1073 -0.4776
13009W        W28478  10.408   3.846   0.353 -0.2873  0.2073  0.0822
13010W        W28479  12.211   6.115   0.211 -0.0323  0.1679 -0.1022
13011W        W28480  17.495   9.104   0.486  0.3077  0.1145  0.1261
13012W        W28481  13.649   4.297  13.386 -0.1976  0.2750 -0.0177
13013W        W28482   6.570   0.559  12.717  0.2381 -0.0827 -0.2084
13014W        W28483   6.905   5.599   2.951  0.0345 -0.2896  0.0925
13015W        W28484   5.128  10.360  11.457 -0.0677 -0.0479  0.0336
13016W        W28485   7.444   1.114  15.320 -0.1647 -0.2606 -0.0868
13017W        W28486   1.783  15.239   4.734  0.0192 -0.3355  0.0017
13018W        W28487  16.306  14.696   4.682  0.0498  0.0249 -0.0550
13019W        W28488  12.346   8.556   2.356  0.1644 -0.1550 -0.0361
13020W        W28489   8.085   0.245  15.307  0.1487  0.1646 -0.2862
13021W        W28490   7.417  11.890  16.508  0.2395 -0.2436  0.0416
13022W        W28491  15.571   6.574   1.036 -0.1012  0.0886 -0.0322
13023W        W28492  11.480   8.706   1.804  0.2100  0.0795  0.1084
13024W        W28493  16.101   7.572   2.652 -0.2362  0.0901 -0.0526
13025W        W28494   5.785  15.475  15.431 -0.0283  0.1392 -0.3429
13026W        W28495   6.164  16.911   4.278  0.3463 -0.0076 -0.0710
13027W        W28496  15.767   9.048  16.675 -0.0004 -0.0360 -0.0163
13028W        W28497   7.746   2.872   3.932 -0.0547 -0.2008  0.0871
13029W        W28498  11.889   4.758  11.985 -0.1732  0.1269 -0.0143
13030W        W28499   7.761   5.531   2.778 -0.1558 -0.1209  0.1649
13031W        W28500  12.733   0.977  12.498  0.0357  0.2169  0.0367
13032W        W28501   5.828   6.980   0.786 -0.3752 -0.0188 -0.3312
13033W        W28502   8.666   9.097   6.567 -0.0282  0.1964 -0.0297
13034W        W28503  10.553  15.633  16.442  0.0373 -0.3964 -0.1354
13035W        W28504  13.162  10.198  14.049  0.1553  0.0455 -0.2453
13036W        W28505   6.211  11.066  12.795 -0.1128  0.1029 -0.3295
13037W        W28506   5.027   6.446   1.868  0.4085  0.0510  0.0396
13038W        W28507   3.096  10.981   0.581 -0.0193  0.3112 -0.0347
13039W        W28508   0.387  12.074  15.505  0.0574 -0.0019 -0.0271
13040W        W28509  11.866  13.193   2.443  0.1072  0.0582 -0.3083
13041W        W28510  12.322   4.567   5.049 -0.0620 -0.3023  0.3705
13042W        W28511   7.997   7.180  14.210 -0.0992  0.0190 -0.0091
13043W        W28512  16.450   8.295  13.111 -0.3629  0.0630  0.0510
13044W        W28513  15.106   8.043   3.494 -0.2373 -0.1931  0.0924
13045W        W28514  17.004  17.270   5.456 -0.1565 -0.4678  0.3116
13046W        W28515  16.011   0.805   1.161  0.1613 -0.0340 -0.3046
13047W        W28516  10.893   7.340   3.713  0.2129 -0.1351 -0.1612
13048W        W28517   1.457  16.337  15.713 -0.2387  0.2421 -0.2647
13049W        W28518  15.533   4.733  13.505 -0.1982  0.1387 -0.2464
13050W        W28519  15.047   0.967   4.412  0.1881  0.0095 -0.0377
13051W        W28520  10.648  10.743   4.221  0.0967 -0.2653 -0.2094
13052W        W28521   2.795  14.548   2.965  0.1675 -0.2311  0.0922
13053W        W28522   0.382   8.230  12.926  0.1183  0.2099  0.1693
13054W        W28523  14.855  11.236  14.270  0.1946  0.0288 -0.0015
13055W        W28524   2.553  17.029   0.343 -0.1571 -0.2215 -0.0052
13056W        W28525   6.477  14.744  15.156 -0.0127 -0.1588  0.0301
13057W        W28526  13.985  10.347  13.317 -0.1535 -0.5576 -0.1130
13058W        W28527   5.772   8.805   5.571 -0.0099 -0.1518  0.0471
13059W        W28528  13.638  14.296   4.952 -0.0455 -0.0105  0.3445
13060W        W28529   3.826  12.577   2.223 -0.0461 -0.2819  0.0051
13061W        W28530  16.107  16.371  14.624 -0.0368 -0.1226  0.0416
13062W        W28531   4.827   0.693  14.991 -0.1517 -0.2469 -0.0171
13063W        W28532   3.730   9.224   4.783 -0.1170  0.0229 -0.0875
13064W        W28533   5.539   9.405  13.585 -0.1561  0.1921  0.1007
13065W        W28534   7.388   3.896   5.671  0.0672 -0.1005  0.1946
13066W        W28535   2.146   4.773   3.074 -0.0430 -0.2481 -0.0759
13067W        W28536  13.825   2.655   4.248 -0.0363 -0.1286 -0.1968
13068W        W28537   0.797   1.622  15.052 -0.1429 -0.5222 -0.0193
13069W        W28538   3.257   5.885   3.802 -0.0806  0.1134 -0.0898
13070W        W28539   3.388   2.198  11.317 -0.1691 -0.1784 -0.0894
13071W        W28540   8.934   2.292   6.274  0.0624  0.0403  0.0799
13072W        W28541  10.769   8.436  12.310  0.0354  0.3096  0.0207
13073W        W28542   7.515  15.878   1.966 -0.0596 -0.1697  0.1822
13074W        W28543  12.130   6.325   1.224 -0.1651  0.0913 -0.0684
13075W        W28544   4.254   3.374   2.260 -0.1814  0.1960  0.0428
13076W        W28545   6.907   2.313   0.470  0.1193  0.2128 -0.0428
13077W        W28546  10.568  11.296  12.704  0.0741 -0.1501  0.1067
13078W        W28547   8.187  17.771   3.922 -0.0382  0.1349 -0.0190
13079W        W28548  14.981  12.230   2.162  0.0748 -0.2652 -0.2532
13080W        W28549   0.596  15.621  16.631 -0.1425  0.0614 -0.0592
13081W        W28550   6.493   8.090   5.100 -0.1288  0.0029  0.1481
13082W        W28551  15.246   1.045   1.486 -0.1460  0.0681 -0.1594
13083W        W28552   6.821   3.713   0.261 -0.0191  0.2052 -0.0623
13084W        W28553  11.874   5.834   0.576 -0.1581 -0.0211  0.2567
13085W        W28554   5.415   4.896   3.065 -0.0221 -0.2027 -0.1183
13086W        W28555   8.549   1.442   5.783  0.1167  0.0148 -0.2522
13087W        W28556  14.191   9.515   0.908 -0.1419  0.2337  0.1729
13088W        W28557  11.330  17.017  12.846  0.1081  0.2992  0.0308
13089W        W28558   8.183   3.735   5.897 -0.1728 -0.0027  0.1827
13090W        W28559  10.217  13.329   0.207 -0.0420  0.1426 -0.3175
13091W        W28560   1.066  11.393  16.233  0.1650  0.1882  0.2188
13092W        W28561  13.351   3.242  12.483  0.1864 -0.1480  0.0403
13093W        W28562  15.204  17.228   3.797 -0.1567  0.3883  0.3185
13094W        W28563   1.498   9.132   3.391 -0.1990  0.3904  0.0644
13095W        W28564  11.878   4.301   4.224  0.0744  0.1801  0.2245
13096W        W28565   4.285  14.807  11.628  0.0308 -0.3560 -0.3674
13097W        W28566   1.706   2.916  15.601  0.0154 -0.1076  0.0947
13098W        W28567   1.862  10.929  13.115 -0.0572 -0.0037  0.0768
13099W        W28568  12.292  10.622  16.645 -0.3047 -0.0972  0.1619
13100W        W28569   6.679   3.607   1.159  0.2171  0.0481 -0.0814
13101W        W28570   7.925  17.275   0.782 -0.2161  0.0004  0.1952
13102W        W28571   0.416   4.119   0.500 -0.3164 -0.2135  0.0616
13103W        W28572  15.683   8.443   1.231 -0.0425 -0.0280  0.4366
13104W        W28573   8.180  14.395   1.507 -0.0116 -0.0449 -0.1944
13105W        W28574   4.459   6.077  16.383 -0.1337 -0.3584 -0.1394
13106W        W28575  15.742   0.940   2.487 -0.0901 -0.0156 -0.2668
13107W        W28576  17.199  14.808   3.426 -0.2467  0.0950 -0.0135
13108W        W28577   3.870  16.971  16.536  0.1286  0.2609  0.0160
13109W        W28578   5.359   2.984  16.085 -0.0574  0.0293 -0.3200
13110W        W28579   7.125  12.710  12.561  0.0727  0.1016 -0.0133
13111W        W28580  16.793  13.756  14.733  0.1579  0.1581  0.2187
13112W        W28581  16.918   5.766  16.045 -0.2060  0.1157 -0.1254
13113W        W28582  14.629   9.829   5.019 -0.2937  0.3548  0.2118
13114W        W28583   4.540  10.397   2.860  0.0133  0.1813  0.0242
13115W        W28584  17.455   3.564   1.883  0.1457  0.1672  0.3062
13116W        W28585   8.263   7.360   2.983 -0.2206  0.0533  0.4917
13117W        W28586  15.540   4.175  13.079 -0.1970 -0.3201  0.2808
13118W        W28587  11.348   8.776   0.985  0.1933  0.1005 -0.2552
13119W        W28588  14.642   2.513  13.960  0.0618  0.2369  0.0218
13120W        W28589   3.833   2.664   2.053 -0.2212  0.1287 -0.1188
13121W        W28590  14.542   2.933   1.491  0.0492 -0.0404 -0.0544
13122W        W28591  16.367  16.548   3.630  0.0477  0.2185 -0.0777
13123W        W28592  14.665   5.460   1.954  0.0773 -0.2907 -0.0145
13124W        W28593   7.409   5.484   2.003  0.0083 -0.0909 -0.0735
13125W        W28594   7.752  12.333   2.315 -0.2838  0.1162  0.1682
13126W        W28595   3.046   8.256   2.599  0.0229  0.1215  0.0219
13127W        W28596   0.090   6.707   3.290 -0.0878 -0.0637 -0.0563
13128W        W28597   2.560   1.269   1.804 -0.1146 -0.1976 -0.0098
13129W        W28598  13.111   1.399  13.207 -0.2065 -0.0888  0.1033
13130W        W28599   1.081  15.599  12.815  0.0770 -0.2505  0.0016
13131W        W28600   7.171   8.237  14.395  0.2986  0.0580 -0.0599
13132W        W28601  13.779  14.498   5.820  0.0341 -0.1151 -0.1944
13133W        W28602  12.399   1.767  14.510 -0.0997  0.0411 -0.2696
13134W        W28603   5.030  10.240  13.831  0.1372  0.0777  0.0374
13135W        W28604  14.873  13.498  11.410  0.0990  0.0655 -0.3053
13136W        W28605   1.649   2.705  10.861 -0.0952  0.0628  0.0239
13137W        W28606   4.614   4.454  13.615  0.0216 -0.2313  0.0832
13138W        W28607  15.139   7.283   1.658 -0.1842 -0.1927  0.1564
13139W        W28608  10.318   3.305   4.619 -0.0951  0.1660  0.3989
13140W        W28609  14.917  10.890   0.716  0.1279 -0.0709  0.1465
13141W        W28610  13.743   2.185   5.158  0.0610 -0.1109 -0.1358
13142W        W28611   9.691   1.061   4.559 -0.1688 -0.1841 -0.0327
13143W        W28612   9.021   4.968  16.241  0.1637 -0.1764  0.0326
13144W        W28613   2.870   8.441   1.843  0.2205  0.0508  0.0879
13145W        W28614  16.825   2.748  15.623  0.1208  0.0743 -0.1000
13146W        W28615  12.568  12.509   4.057 -0.0769  0.2832  0.0667
13147W        W28616   6.151   8.716  15.307  0.2140  0.0216 -0.0741
13148W        W28617   3.103  11.811  12.585 -0.3668  0.2262 -0.4319
13149W        W28618   6.978  13.016  13.512 -0.0256  0.0539  0.0761
13150W        W28619  13.447   8.808  15.291  0.0829  0.0896  0.4321
13151W        W28620   1.773  12.957   0.259  0.1110  0.2980  0.3779
13152W        W28621   5.256   4.245   1.939  0.2971  0.0388 -0.0946
13153W        W28622   2.619  17.597  14.952 -0.0578 -0.4793 -0.3317
13154W        W28623  14.142   2.238   4.305  0.1206  0.1785  0.0345
13155W        W28624  10.484   6.346   2.836 -0.0051  0.0664 -0.1939
13156W        W28625   7.173   7.058   3.918  0.0807  0.1775  0.2071
13157W        W28626  14.512   8.886  13.132  0.1516 -0.0903  0.3238
13158W        W28627  14.820   8.922  14.124 -0.0102  0.1588 -0.0322
13159W        W28628   0.454  17.205  12.698  0.2170 -0.0938 -0.1252
13160W        W28629  17.269   1.048  13.153  0.2973  0.2916 -0.2228
13161W        W28630  16.550   8.980   3.551  0.0017  0.0723 -0.1501
13162W        W28631   6.622  15.195   2.509  0.1432 -0.1571 -0.1408
13163W        W28632   8.337  10.680  13.505 -0.0794 -0.1037  0.2312
13164W        W28633   8.343   2.371  12.437  0.0195  0.0995 -0.1026
13165W        W28634   1.413   8.647   4.734  0.1212 -0.0573  0.2648
13166W        W28635   9.078   9.164   0.942  0.1708  0.2603 -0.0668
13167W        W28636  11.781   7.486  15.968 -0.0399 -0.1411 -0.0327
13168W        W28637   9.992  14.725  13.750  0.3157  0.1990  0.3778
13169W        W28638  16.319  13.200   6.008  0.2754 -0.1497 -0.2091
13170W        W28639   4.659  14.151   3.836 -0.0231 -0.0964 -0.2060
13171W        W28640  17.442  15.052  12.790 -0.0192 -0.2163 -0.0454
13172W        W28641   3.546  14.052  13.141  0.2096 -0.1611 -0.2829
13173W        W28642  11.978   6.042   1.985 -0.2462 -0.1334  0.0554
13174W        W28643  12.164   9.345   3.843  0.0119  0.2458  0.0507
13175W        W28644  16.467  13.812   2.220 -0.2291  0.0593 -0.1087
13176W        W28645  15.191   2.619   2.531 -0.0090 -0.0188 -0.0827
13177W        W28646  14.072  10.047  15.227  0.2803  0.0699  0.0077
13178W        W28647   1.118  16.860  13.591 -0.2846 -0.2262  0.0575
13179W        W28648  16.823  15.634   2.007  0.0217 -0.0952  0.1333
13180W        W28649   1.295  15.098   5.090  0.1718  0.1722  0.3390
13181W        W28650   1.552   2.686  16.166 -0.2175 -0.0593  0.1848
13182W        W28651   6.355   7.568   1.302 -0.0267  0.3217 -0.0082
13183W        W28652  16.832  10.166   3.075 -0.0031 -0.2841 -0.0669
13184W        W28653  13.090   6.087   1.473  0.2281  0.0114  0.0765
13185W        W28654   0.907  11.372  11.946 -0.1570 -0.0083 -0.2203
13186W        W28655   8.822  10.984  16.796 -0.0998  0.2572  0.1983
13187W        W28656  14.754   8.452   3.543  0.0401  0.1799 -0.0853
13188W        W28657   8.965  16.386  14.131  0.1829 -0.0860  0.1882
13189W        W28658   0.288  16.139  14.186 -0.1940 -0.1212 -0.1050
13190W        W28659  12.980  16.970   5.314 -0.2532  0.0068 -0.0813
13191W        W28660   8.601   6.478  15.346 -0.1228  0.2065 -0.0439
13192W        W28661  15.871   8.020  16.490 -0.1562 -0.0774  0.0941
13193W        W28662  16.886   7.796   4.665 -0.0811 -0.0180 -0.0000
13194W        W28663   4.847  10.212  16.414  0.0881  0.0172 -0.2788
13195W        W28664   7.702   9.642   1.947  0.1136  0.1625  0.0646
13196W        W28665   0.535  17.075  11.863  0.0721  0.0182  0.0286
13197W        W28666   9.611  16.666   6.389  0.2855  0.2510 -0.4346
13198W        W28667   2.851   2.360  13.855  0.0580  0.1105  0.1994
13199W        W28668   5.387   8.981  11.825  0.2299 -0.0243  0.1999
13200W        W28669  16.997   9.196  15.542  0.3851 -0.0687 -0.2352
13201W        W28670  14.350  14.972  16.630 -0.0189 -0.2525 -0.2044
13202W        W28671  11.984   5.576  12.906 -0.0236  0.0234  0.1045
13203W        W28672  10.782  10.549  15.370  0.0083 -0.0001  0.0453
13204W        W28673   4.970   6.553  12.176 -0.1536  0.0411  0.1777
13205W        W28674   3.377  10.128   0.497 -0.2130 -0.0271  0.2800
13206W        W28675   6.849  10.857   5.274  0.0636 -0.0240  0.3437
13207W        W28676   6.832  11.875  13.014 -0.0534 -0.0749  0.0018
13208W        W28677  16.381   0.862   3.651  0.1149 -0.2119  0.1586
13209W        W28678   9.744  15.233   5.166  0.2471 -0.1037  0.0210
13210W        W28679  13.880   0.006  12.183  0.0718 -0.1719  0.3031
13211W        W28680  11.676   1.879  16.532  0.0613  0.0224  0.1241
13212W        W28681   3.771   5.831   3.936  0.2504 -0.1465  0.0933
13213W        W28682  17.656  14.546  12.793 -0.1333  0.1524 -0.1466
13214W        W28683  16.359   2.216  11.894 -0.0440 -0.0075 -0.0149
13215W        W28684  13.008   4.764  16.522  0.3740 -0.0888 -0.0409
13216W        W28685  10.454  11.865   2.907  0.0546  0.1695 -0.2564
13217W        W28686  13.366   2.771   4.167 -0.1984  0.0661 -0.0958
13218W        W28687  17.394  12.742  12.028 -0.4689  0.2270 -0.1258
13219W        W28688  15.429   6.183   5.287 -0.2368 -0.2328 -0.2587
13220W        W28689   2.958   2.052   0.897 -0.1207 -0.1167  0.0833
13221W        W28690   9.456   4.872  13.061  0.0634 -0.0588 -0.0719
13222W        W28691   9.670  12.960  14.874 -0.1429 -0.3323 -0.2122
13223W        W28692   2.540   5.253   4.318 -0.0072  0.0472 -0.1325
13224W        W28693  17.031  11.047   2.164 -0.0260 -0.0845  0.0560
13225W        W28694  10.789  15.374  12.210 -0.3028  0.0076 -0.2820
13226W        W28695   0.002  16.072   2.623 -0.1225  0.2100  0.0862
13227W        W28696   3.976   2.066   3.125 -0.1955  0.0969  0.2710
13228W        W28697  11.889  10.675   3.881 -0.0933  0.0709 -0.0738
13229W        W28698  11.457   8.582  13.081 -0.0394  0.0891 -0.0239
13230W        W28699   9.717   6.078  11.550 -0.1742  0.0661  0.2114
13231W        W28700   8.930   5.495   1.859 -0.4383 -0.0249  0.2174
13232W        W28701   5.354   8.801  12.480  0.1531 -0.1783  0.0130
13233W        W28702   1.995   6.160   1.283  0.1827  0.1156 -0.0365
13234W        W28703   2.525  12.007  16.194  0.2188  0.0293  0.1205
13235W        W28704   2.783  13.243  15.268  0.0868  0.3072 -0.0060
13236W        W28705  16.015  13.962   5.176  0.1983  0.1705 -0.0509
13237W        W28706   2.099  16.836   2.284 -0.0324  0.0618  0.0085
13238W        W28707   5.315  11.876   1.947  0.0812 -0.2277 -0.0646
13239W        W28708   1.754   8.673   5.131 -0.1863  0.4568  0.0017
13240W        W28709   1.336   1.180  11.184 -0.1275  0.0335  0.1234
13241W        W28710  12.738  11.321  12.444 -0.1123  0.0177 -0.1631
13242W        W28711  10.411   4.120   4.004 -0.0514  0.0598  0.0885
13243W        W28712  10.590   6.450   0.393 -0.0288 -0.1831 -0.0552
13244W        W28713  11.876   6.176  16.086 -0.2971 -0.0591 -0.1775
13245W        W28714  10.909   4.058   0.303 -0.4724  0.3004  0.1022
13246W        W28715  16.666   1.071  16.052  0.0776  0.2036  0.1764
13247W        W28716  14.969  15.599  12.636 -0.0834 -0.1923  0.2016
13248W        W28717  14.612  15.368   5.688  0.0541 -0.2698  0.1355
13249W        W28718  11.211   5.231  16.084  0.1022 -0.2091 -0.0361
13250W        W28719  10.632   5.216   0.786  0.0437 -0.0182  0.0462
13251W        W28720   8.962   7.352  14.104 -0.2214 -0.2365  0.0461
13252W        W28721  17.376   1.510   5.897 -0.1032 -0.0174  0.0559
13253W        W28722   5.994  16.423  11.894 -0.2032 -0.0410 -0.0958
13254W        W28723  11.940   7.127   2.383  0.2765  0.0357  0.0199
13255W        W28724   6.150   0.564   5.159  0.0556  0.0304 -0.5337
13256W        W28725   7.933  17.106   5.954  0.0271  0.1233 -0.0708
13257W        W28726   9.121   1.107  15.504  0.0371 -0.0705 -0.2290
13258W        W28727   1.522   2.194  12.009 -0.1410  0.1849  0.1547
13259W        W28728   5.860  11.412   3.891  0.3030 -0.0560 -0.4030
13260W        W28729  16.428   7.037  15.605 -0.2581  0.2042  0.0168
13261W        W28730   3.547   3.663  12.473  0.2519  0.3402 -0.2235
13262W        W28731   9.535   3.857   3.804  0.1716 -0.1538 -0.0706
13263W        W28732  14.697  17.174  14.568 -0.1693  0.2756 -0.0504
13264W        W28733   5.683  12.610  12.353 -0.0649  0.0523 -0.0436
13265W        W28734  16.404  10.483  13.722  0.0009 -0.1820  0.0202
13266W        W28735  10.909  12.010  15.105 -0.0295  0.2424 -0.2971
13267W        W28736   4.317  12.948   3.154  0.0095  0.0366 -0.1357
13268W        W28737   2.398  15.466  15.108 -0.2034 -0.1358 -0.0508
13269W        W28738   3.159   9.220  11.456 -0.2364  0.0314 -0.1718
13270W        W28739   0.338  10.598  13.011  0.1101  0.1103 -0.0170
13271W        W28740   6.882   0.415   5.586 -0.0977 -0.0590  0.1786
13272W        W28741  11.466   7.966   2.347 -0.0770  0.0301 -0.3777
13273W        W28742  11.026   8.356   1.787 -0.0219 -0.1438 -0.0051
13274W        W28743   6.639  16.990   1.478  0.0263 -0.1369  0.0527
13275W        W28744  10.321   6.760   5.406 -0.2165  0.1019  0.3273
13276W        W28745   2.103  11.602  11.573 -0.1547  0.4418 -0.0919
13277W        W28746  10.446  14.479  16.107 -0.2751 -0.0028  0.1755
13278W        W28747  14.179   4.329   3.022  0.0968  0.3681 -0.0808
13279W        W28748  11.503   3.780   4.149  0.1654  0.2477  0.2179
13280W        W28749   5.109  12.459   4.161 -0.1417  0.0990 -0.3159
13281W        W28750   9.799   3.049   3.986  0.1725  0.0472 -0.2165
13282W        W28751  15.433   6.182   4.217 -0.2431  0.1225 -0.0034
13283W        W28752   3.571   6.088  16.602 -0.3658  0.0934  0.1703
13284W        W28753   3.556   0.728  13.319 -0.1743  0.3575  0.1256
13285W        W28754   4.936   1.208  12.656 -0.1165  0.2398 -0.1530
13286W        W28755  12.300  11.394  14.761 -0.0494  0.0111 -0.0468
13287W        W28756  13.125  13.158   4.240  0.2287  0.1894  0.1377
13288W        W28757   7.280  12.939   1.709  0.2784  0.1778 -0.3777
13289W        W28758  10.621   8.636   0.490 -0.0052  0.0289  0.2190
13290W        W28759  14.509   7.295  12.372 -0.0275 -0.1111 -0.0803
13291W        W28760   8.590   6.882  12.326 -0.0166  0.1902 -0.2983
13292W        W28761   8.074  12.138  13.793  0.2383  0.0518  0.1852
13293W        W28762   2.108   9.533  12.553  0.1972  0.0989 -0.0140
13294W        W28763  16.319  10.852   4.796 -0.1196  0.0571 -0.0549
13295W        W28764  12.222  16.509   2.090  0.0081 -0.2871 -0.0664
13296W        W28765  10.053  12.493  16.012 -0.1247 -0.1122  0.2010
13297W        W28766  12.590  14.408  16.460 -0.1352  0.2587 -0.0310
13298W        W28767   5.727  17.655   2.623 -0.1264 -0.0450 -0.2335
13299W        W28768  17.234  11.529  12.298  0.0471 -0.1233 -0.1253
13300W        W28769  12.736  14.175   2.953 -0.1503 -0.4930  0.3172
13301W        W28770   0.296   2.185   2.630 -0.0383  0.1793 -0.1198
13302W        W28771  11.675  16.730  13.663  0.1724 -0.1959 -0.0311
13303W        W28772  10.627   9.172   1.568  0.0018  0.0086 -0.0724
13304W        W28773   4.299  11.890  16.654  0.1605  0.2972 -0.0055
13305W        W28774  14.137   2.295  16.526  0.1004 -0.4630 -0.3272
13306W        W28775   7.356  17.684  14.382  0.0376 -0.3059 -0.1968
13307W        W28776  14.883   1.204  10.892 -0.0988  0.0443  0.1294
13308W        W28777  17.722  12.148  14.643 -0.1002 -0.0067 -0.0361
13309W        W28778  16.500  15.990  13.542  0.1937  0.2786 -0.3324
13310W        W28779   0.789   0.529  11.563  0.1798 -0.1094  0.0971
13311W        W28780   5.383   6.434  16.606 -0.0892 -0.1752 -0.0994
13312W        W28781   8.568  17.100   2.932 -0.2708  0.1615 -0.2398
13313W        W28782  16.705   3.239  15.475 -0.0335  0.1062 -0.1862
13314W        W28783  14.528  16.483   0.828 -0.1623  0.0470  0.1714
13315W        W28784   6.607   6.409  11.757  0.0211  0.0690 -0.0072
13316W        W28785   2.546   9.231   0.956  0.1220 -0.1284 -0.1915
13317W        W28786  11.264  10.225   0.751  0.1747 -0.2287 -0.1482
13318W        W28787   8.126   9.877   5.256 -0.0703 -0.2820 -0.2090
13319W        W28788   1.187   0.879  16.012  0.0179 -0.0454 -0.2490
13320W        W28789   2.429   0.868   5.448  0.1184 -0.0885 -0.1090
13321W        W28790   1.962  17.238  12.960  0.1036  0.2688  0.0015
13322W        W28791   1.816   1.893   1.721  0.2364 -0.0021 -0.1452
13323W        W28792   6.664  13.207  12.726 -0.1186  0.3900 -0.3038
13324W        W28793   0.521   5.914   2.502 -0.1351  0.0367 -0.0868
13325W        W28794  14.370   3.009   3.628  0.0824  0.1630 -0.0521
13326W        W28795  14.364  10.159   0.571 -0.3857 -0.1841  0.1964
13327W        W28796  12.961   4.355  15.036 -0.0402  0.1888  0.2019
13328W        W28797   0.394   0.299  14.695  0.1061 -0.0633  0.0711
13329W        W28798  16.009  11.052   9.908 -0.3196 -0.4483 -0.2711
13330W        W28799  15.116   1.760  11.631 -0.1805 -0.0928  0.1051
13331W        W28800  10.535  14.015   1.359 -0.0028 -0.0755  0.1948
13332W        W28801  17.725   8.848   0.122  0.1143 -0.0197  0.0957
13333W        W28802  14.397   7.238   0.596 -0.0444 -0.2086  0.4093
13334W        W28803   0.156  15.610   4.562 -0.1255 -0.2834 -0.2259
13335W        W28804   3.518   8.961  13.499 -0.1649 -0.0508 -0.1115
13336W        W28805  15.120  15.434   4.736 -0.1133 -0.1745 -0.0175
13337W        W28806  11.831   7.722   2.597 -0.5523 -0.1343 -0.1289
13338W        W28807  17.006   5.776  14.684  0.3352  0.3269 -0.2658
13339W        W28808   7.737   8.882  13.878  0.1196 -0.0110 -0.1743
13340W        W28809   5.347   6.766  14.699  0.1444 -0.1629  0.1389
13341W        W28810  17.049   7.138  15.659  0.0444  0.4874  0.1399
13342W        W28811  12.679  10.513  16.297 -0.1368  0.1950 -0.3265
13343W        W28812   5.928  15.029   0.553  0.3651  0.3464  0.0779
13344W        W28813   8.218   5.700   5.102  0.0429  0.0120  0.0449
13345W        W28814   0.934  14.872   3.021 -0.0682  0.2242  0.0814
13346W        W28815  11.923   2.207   1.081  0.0915  0.1317  0.1099
13347W        W28816   7.169   5.178  16.065  0.2886  0.2869 -0.0473
13348W        W28817  11.355  12.919  15.996 -0.0094 -0.0121  0.1028
13349W        W28818   6.615   0.043   2.998  0.2412 -0.0146  0.4349
13350W        W28819  12.472   7.445  10.686 -0.1747 -0.0271 -0.1534
13351W        W28820  11.147   2.648   2.111  0.1407  0.2891 -0.0561
13352W        W28821   7.839  10.189   2.110 -0.1979  0.1664 -0.0692
13353W        W28822  17.035  17.727   0.514  0.2994  0.2192  0.1079
13354W        W28823   3.161   9.852   0.906 -0.0059 -0.0793 -0.1182
13355W        W28824  11.508  15.748   4.372 -0.0591 -0.1956  0.0973
13356W        W28825  13.153   9.779   5.234 -0.1387  0.1600  0.1025
13357W        W28826   4.177  10.779   0.823  0.1026  0.2489 -0.2092
13358W        W28827   3.977   1.017  12.682 -0.2361  0.1039 -0.1421
13359W        W28828  11.101   5.608   2.103 -0.4111  0.0083 -0.2591
13360W        W28829   6.284   0.526   3.741  0.0871 -0.0485 -0.3358
13361W        W28830   6.056   8.311  11.736 -0.3398 -0.0999 -0.2676
13362W        W28831   1.149   0.285  11.366  0.2658 -0.0865 -0.1814
13363W        W28832   2.637   6.446  13.882  0.1375 -0.1468 -0.1533
13364W        W28833  15.641   5.032  11.807  0.2069 -0.2128 -0.0913
13365W        W28834   6.096   2.459  14.073 -0.0434 -0.0342  0.2298
13366W        W28835   0.380   9.509  16.319  0.3317 -0.2973 -0.0445
13367W        W28836  13.515   3.485   3.823 -0.0946  0.2411 -0.0214
13368W        W28837   7.950   8.722  12.855  0.0016  0.1858 -0.4007
13369W        W28838  13.788  12.819   0.065  0.2008 -0.0397 -0.0070
13370W        W28839  15.326   6.222  13.524 -0.0346  0.1616  0.2406
13371W        W28840   4.605  16.423   4.423  0.0680 -0.3588 -0.2028
13372W        W28841   2.761  15.546  11.945  0.0265 -0.1598 -0.0399
13373W        W28842  14.067   7.239  12.580  0.1166  0.2190  0.0255
13374W        W28843   6.401   5.968  13.927  0.0106 -0.0383  0.0551
13375W        W28844   0.653   5.400  14.110 -0.1977 -0.1010  0.0438
13376W        W28845  10.309  13.038   1.409  0.1712 -0.0946 -0.2817
13377W        W28846   6.561   2.012   4.147  0.1105 -0.0680 -0.2404
13378W        W28847   3.882   9.087   0.851  0.1913  0.0960 -0.0959
13379W        W28848   8.839  10.853   1.605  0.1239 -0.2150  0.1599
13380W        W28849   2.549   8.246  15.820 -0.0287  0.2387 -0.0821
13381W        W28850  12.873   2.617   4.159  0.0746 -0.1139  0.0893
13382W        W28851   8.593   9.605  15.614  0.2092  0.2016 -0.0976
13383W        W28852  12.125  16.913   4.947  0.1373  0.2294 -0.0168
13384W        W28853   0.597  14.492  13.588  0.2145 -0.2409 -0.1341
13385W        W28854   7.688   4.261   1.122  0.0106  0.0121 -0.1243
13386W        W28855   1.174   2.141   4.208  0.1212  0.2849 -0.1810
13387W        W28856  13.027   8.483  14.454  0.2334 -0.4433  0.0574
13388W        W28857   9.001   2.131   3.554 -0.1338 -0.0536  0.3770
13389W        W28858  14.914   3.909  11.769  0.1083 -0.0265 -0.2783
13390W        W28859   5.028  16.263  13.901 -0.1234 -0.3332  0.2413
13391W        W28860  11.934   0.699  16.260  0.2422  0.1716  0.1738
13392W        W28861  15.638   7.641  16.782  0.0234 -0.1659 -0.0521
13393W        W28862   0.471   0.595  16.347  0.0376 -0.0773  0.1997
13394W        W28863   7.195   6.607   5.736  0.1180 -0.2706 -0.1545
13395W        W28864   6.121  12.067   5.052  0.1009  0.0150 -0.1783
13396W        W28865   9.524   6.281  15.356 -0.1337 -0.0481 -0.1279
13397W        W28866  16.239   8.635   0.696 -0.0229  0.4125  0.1644
13398W        W28867  15.578  14.018   0.549 -0.5166  0.0279  0.0629
13399W        W28868   3.350  15.417   0.267 -0.0585  0.0396 -0.0961
13400W        W28869   7.349   4.235   4.721 -0.2651  0.0383 -0.0566
13401W        W28870  17.412   1.274   2.134  0.1154  0.0314 -0.2514
13402W        W28871   1.261  12.207  16.112 -0.1453  0.1485 -0.2659
13403W        W28872   6.271   3.143   3.438 -0.2300  0.1645  0.0479
13404W        W28873   4.855   6.192  10.459 -0.1733 -0.0765  0.3333
13405W        W28874  13.173   2.082  11.745  0.0074  0.2807 -0.3046
13406W        W28875   1.271  13.795   1.957  0.0748 -0.0196 -0.0278
13407W        W28876   1.744   7.953   1.398  0.0683 -0.0293  0.3221
13408W        W28877   8.922  16.483   0.622 -0.2050 -0.1668 -0.2424
13409W        W28878   4.844  10.683  13.939 -0.4168  0.0545 -0.1174
13410W        W28879   9.416   4.553   1.649  0.1443  0.1602  0.1425
13411W        W28880  14.334   4.396  15.279  0.0920  0.2387  0.0746
13412W        W28881  15.155   5.262   2.326  0.1358 -0.0797 -0.0933
13413W        W28882   4.941   6.442  15.294  0.3071  0.2807  0.2614
13414W        W28883   2.497  17.089   2.149  0.2047 -0.1479  0.0590
13415W        W28884  11.681   0.073   2.985  0.0596 -0.0612  0.0405
13416W        W28885   6.224   1.713   4.345 -0.0964  0.0104  0.0978
13417W        W28886   7.393   2.450   0.289 -0.0567  0.0100  0.1407
13418W        W28887   1.434  11.648   1.940  0.0299  0.1414  0.4312
13419W        W28888  11.525  14.852  15.652 -0.1856 -0.3902  0.3338
13420W        W28889   7.205   5.994   0.361 -0.0350  0.1362 -0.3660
13421W        W28890  17.463   4.943  11.440  0.0622  0.2433 -0.0565
13422W        W28891   8.845  15.671  14.691  0.0415 -0.0489 -0.5948
13423W        W28892  13.706   0.460   3.104  0.2711  0.2748 -0.1202
13424W        W28893   9.226  11.167   1.766 -0.0430  0.0843 -0.0485
13425W        W28894   9.904   1.024  15.113 -0.0346  0.0412  0.0614
13426W        W28895  11.650  10.886  12.269  0.2129 -0.1600  0.1165
13427W        W28896  14.843   0.871  13.915 -0.1705 -0.0306 -0.2292
13428W        W28897  10.888   6.353   1.451 -0.0448  0.1077  0.0886
13429W        W28898   3.591   7.161   4.513 -0.1603  0.0233 -0.2377
13430W        W28899   3.792   7.823  12.239  0.2294  0.0830  0.2371
13431W        W28900   1.926   0.227   5.656 -0.2251 -0.0154  0.1818
13432W        W28901  12.832  14.258   0.179 -0.2312  0.0468 -0.0017
13433W        W28902  17.434   4.443  13.291 -0.1770 -0.1925 -0.3650
13434W        W28903  11.266  12.185  12.921 -0.0956 -0.1143  0.1049
13435W        W28904   1.147   7.498  12.050  0.1395  0.2788 -0.3028
13436W        W28905   3.526  15.129   1.343  0.1525  0.1456  0.0929
13437W        W28906  12.154  13.554  13.136  0.3486  0.2949 -0.0675
13438W        W28907   3.884   5.221   0.758  0.2314 -0.0308  0.1761
13439W        W28908   5.678  10.217  13.767  0.1995  0.4916 -0.2338
13440W        W28909   2.931   5.061   4.662 -0.1122 -0.0786  0.4438
13441W        W28910  16.685  14.741   0.779  0.4503  0.0659 -0.0309
13442W        W28911   1.537  11.861  11.306  0.1576  0.1334  0.0669
13443W        W28912  12.295   6.535   2.325  0.0262 -0.2126 -0.1656
13444W        W28913  13.954  15.438   3.631  0.1375 -0.1681  0.0910
13445W        W28914   2.907   7.746  13.757  0.2072  0.0427  0.0983
13446W        W28915   1.787  10.251   1.268 -0.1077 -0.2311 -0.0035
13447W        W28916  13.442   9.485  12.812 -0.2675  0.1837  0.2483
13448W        W28917  14.123   4.372   3.566 -0.1380 -0.1247  0.0465
13449W        W28918  12.508   0.293  14.038 -0.0790  0.1540 -0.1081
13450W        W28919  17.692  14.688   4.760 -0.0242 -0.1501 -0.0789
13451W        W28920   3.773  13.680   2.905 -0.0406 -0.0606  0.0988
13452W        W28921  11.277  16.481   3.029 -0.0009  0.2780  0.0484
13453W        W28922   3.983  16.248   2.259 -0.0070 -0.1791  0.0992
13454W        W28923  13.896   9.744  14.264  0.1355  0.1092 -0.0816
13455W        W28924  11.462   2.262  13.028 -0.1176 -0.1901  0.0412
13456W        W28925   9.842   4.123  13.657  0.0533 -0.0519 -0.1421
13457W        W28926  12.987   2.466  16.838 -0.2394  0.0319 -0.1136
13458W        W28927  12.386  17.771  16.099 -0.0566  0.0496 -0.3149
13459W        W28928   3.567   0.352  11.419  0.0780  0.2935  0.0736
13460W        W28929   3.259  14.831  13.339  0.1303 -0.1992  0.1985
13461W        W28930  17.742   7.645  10.929 -0.0990  0.1015  0.2180
13462W        W28931   6.570   8.237   3.854  0.1306  0.1248 -0.0214
13463W        W28932   7.772  11.177   3.568 -0.1141  0.1533 -0.0981
13464W        W28933   9.859   3.868  15.460  0.0362 -0.1787  0.1850
13465W        W28934  14.995  11.912   5.983 -0.2030  0.0806  0.1228
13466W        W28935  17.526   7.289   0.201 -0.1477 -0.1748  0.0297
13467W        W28936  17.576   8.915   3.513  0.0986 -0.4112 -0.2179
13468W        W28937  12.483  15.956   1.046 -0.1169  0.1543 -0.3723
13469W        W28938   7.715  12.624   0.219 -0.0983 -0.0822  0.3385
13470W        W28939   6.485   8.561   1.322  0.3919  0.3372  0.1427
13471W        W28940   2.766   6.452   3.489  0.1355 -0.0827 -0.2458
13472W        W28941  11.695   6.418  16.583  0.2548 -0.0240  0.2435
13473W        W28942   4.342  12.505   5.181  0.0670 -0.0097  0.1447
13474W        W28943  11.711   2.262   5.459  0.3422  0.1133 -0.3173
13475W        W28944   3.152  15.252   1.685 -0.2152  0.1880  0.0913
13476W        W28945   7.776   8.183   2.964 -0.0615 -0.0202 -0.0472
13477W        W28946   8.334  15.464  12.033  0.0633 -0.1203 -0.1552
13478W        W28947   3.300   6.513  14.435  0.0179 -0.0105 -0.1742
13479W        W28948   7.663   4.787   1.381  0.0461  0.0833 -0.1682
13480W        W28949   4.988   9.885  11.348 -0.2076  0.0998 -0.0599
13481W        W28950   7.362   5.634   0.871  0.1016  0.0368  0.2332
13482W        W28951   5.289   5.248   4.180  0.3450  0.1816 -0.1689
13483W        W28952  11.086  13.787  14.843 -0.0491 -0.3121  0.1277
13484W        W28953   5.899  10.724   5.131  0.1681 -0.1320  0.0453
13485W        W28954   9.496  10.292   1.828  0.2632 -0.0492 -0.2207
13486W        W28955   4.316   7.246  12.500 -0.1107 -0.0917  0.2456
13487W        W28956  12.878   7.976   0.616  0.1530 -0.0396 -0.0264
13488W        W28957  17.514  13.829   5.818 -0.2345  0.2420 -0.0474
13489W        W28958   3.424   3.042  10.410  0.3662  0.0075  0.1859
13490W        W28959   7.223  14.194  12.781  0.3497 -0.1771 -0.0427
13491W        W28960  14.138   6.471   0.120 -0.0783  0.2006 -0.2124
13492W        W28961   4.253   5.485  14.309  0.0625  0.0559  0.1589
13493W        W28962  12.117   4.106  13.380 -0.0182 -0.1107 -0.3453
13494W        W28963   6.762   2.509   4.668 -0.0010  0.1376  0.0948
13495W        W28964   1.371   0.547   4.680  0.4531 -0.3529 -0.2156
13496W        W28965   1.905  12.837   2.532  0.2758  0.1563  0.0205
13497W        W28966   0.861   4.055   4.413 -0.0007 -0.1033  0.0857
13498W        W28967   1.145   0.070   3.359 -0.1159 -0.1040  0.0497
13499W        W28968  11.185   9.482  14.147  0.1842 -0.0992 -0.3252
13500W        W28969   0.749  12.134   1.583  0.1175  0.1786  0.0662
13501W        W28970  13.955   9.055  13.669 -0.1573  0.2579 -0.3175
13502W        W28971   6.380   4.399  14.050  0.1076 -0.1781 -0.0304
13503W        W28972  10.848   8.059   3.141 -0.1991  0.0097  0.0578
13504W        W28973   3.243   6.252  15.711 -0.1019  0.0574  0.0464
13505W        W28974  13.480   2.153  12.197 -0.2531  0.1226  0.2058
13506W        W28975   1.503  13.754   0.487 -0.1954  0.0694 -0.0086
13507W        W28976   3.575   8.842   2.585  0.1418 -0.1835 -0.1984
13508W        W28977  13.369   8.257  11.949  0.0528  0.3467 -0.1143
13509W        W28978   3.383   3.315  13.858 -0.0929 -0.0761  0.0731
13510W        W28979   8.620   6.897   0.648  0.3289 -0.2073  0.2976
13511W        W28980  10.050  14.550  13.123 -0.2226  0.2009  0.1495
13512W        W28981   6.388  12.994  15.591  0.4011 -0.2702 -0.0622
13513W        W28982  11.570   2.681  11.930 -0.3895  0.0663  0.0789
13514W        W28983  17.312  15.795  11.748  0.0927 -0.1030  0.2133
13515W        W28984  16.927  10.076  16.546 -0.2917 -0.1088 -0.0128
13516W        W28985   1.772   8.721  16.667  0.0195 -0.0656 -0.0211
13517W        W28986   9.009   1.032  12.317 -0.0218 -0.0298 -0.1489
13518W        W28987  15.949  14.467   3.190 -0.2437  0.2707 -0.1824
13519W        W28988  12.558   8.883   1.303 -0.2469  0.4119  0.0756
13520W        W28989   9.292  16.895  11.754  0.0438  0.0193  0.1389
13521W        W28990   2.131   7.498  13.294  0.0566 -0.0800 -0.1607
13522W        W28991   4.531   0.370  15.562 -0.1463 -0.1045  0.2080
13523W        W28992   5.153  17.380  11.905  0.3168 -0.0371 -0.0125
13524W        W28993   3.408   4.721  14.848 -0.3397 -0.2410 -0.2235
13525W        W28994  15.702   8.639  13.252 -0.0523 -0.3040 -0.0737
13526W        W28995   2.901   4.157  15.388 -0.2091 -0.0429  0.2679
13527W        W28996  14.390   1.328  15.438 -0.2650  0.2733  0.1650
13528W        W28997   8.168   4.793   3.670 -0.1729  0.0171 -0.0887
13529W        W28998   8.979  13.681  15.317 -0.1587 -0.1027  0.1811
13530W        W28999  15.089   1.814   5.578  0.2875  0.2326  0.1220
13531W        W29000   8.834   4.146  12.096  0.0180  0.0659  0.1711
13532W        W29001   6.836  16.550  15.027 -0.1078 -0.2199  0.2319
13533W        W29002  10.411  11.578   3.568  0.2176 -0.1198 -0.0300
13534W        W29003   6.872  16.363  13.323  0.2635  0.0718 -0.1341
13535W        W29004   8.948  10.230  11.665  0.1544 -0.3866  0.0602
13536W        W29005   4.467   3.423  12.283 -0.0077 -0.0066  0.2417
13537W        W29006  12.840  17.194  13.757  0.2004 -0.0369 -0.0071
13538W        W29007  13.179   7.723  12.048 -0.1898 -0.1377 -0.1173
13539W        W29008   6.361   6.013  13.422  0.1426 -0.2035  0.0731
13540W        W29009   4.076  11.397   0.596  0.2247  0.1899 -0.1813
13541W        W29010   7.729   3.052   5.728  0.3231 -0.1458 -0.0905
13542W        W29011  11.925   7.648   0.528 -0.2138 -0.0244  0.1812
13543W        W29012   8.450  13.048  12.982  0.1636  0.1255  0.0901
13544W        W29013   1.147   6.000  14.653 -0.1506 -0.4194 -0.2602
13545W        W29014   1.278   1.095  15.535 -0.1289 -0.1112  0.0343
13546W        W29015  17.248   1.952   5.631 -0.1337 -0.2606 -0.0900
13547W        W29016   7.125   2.651   3.792 -0.2317 -0.1846  0.1098
13548W        W29017   5.636  15.506  14.859  0.0535 -0.0244 -0.0652
13549W        W29018   9.758  15.467   3.453 -0.1875  0.0753 -0.0168
13550W        W29019   5.430  16.581   2.456  0.1649 -0.2160 -0.0639
13551W        W29020  16.993   5.593   0.735 -0.0422  0.0346  0.0621
13552W        W29021  15.232  14.802   0.011  0.3555  0.0566  0.2176
13553W        W29022   0.423  12.211  11.993  0.2109  0.4688 -0.0946
13554W        W29023   3.850   3.745   2.780 -0.4535  0.2201 -0.2674
13555W        W29024  12.150   7.578  16.752 -0.0186 -0.4021 -0.0345
13556W        W29025   1.042  16.100   4.352  0.1194  0.2849  0.1393
13557W        W29026  13.078  12.732  14.987  0.0407 -0.0932  0.3413
13558W        W29027   1.059   4.653   1.378  0.1221 -0.0643  0.0450
13559W        W29028   0.841   2.552   3.872  0.0478 -0.1632 -0.1029
13560W        W29029  15.621  10.040  13.926  0.1529 -0.2310 -0.1544
13561W        W29030  15.101   9.676   2.646  0.3986 -0.0639 -0.0988
13562W        W29031  16.502  16.035   4.486 -0.0433  0.2001  0.1471
13563W        W29032  14.302   8.666  15.875 -0.1345  0.2477 -0.5436
13564W        W29033   4.425  10.416   5.303 -0.0011  0.1752  0.2987
13565W        W29034   3.635   2.477  16.760  0.1377  0.1365 -0.1414
13566W        W29035  15.047  12.350   5.206 -0.2424 -0.2283 -0.2395
13567W        W29036  10.918  14.722   4.737  0.1333  0.0210  0.2345
13568W        W29037   4.849   4.716   0.650  0.0374  0.1533  0.0832
13569W        W29038   2.238   4.878   4.564  0.0174 -0.1849  0.1221
13570W        W29039  10.402   4.833  16.209  0.1156 -0.0954 -0.1774
13571W        W29040   3.050  10.729  11.740 -0.2148 -0.0380 -0.0906
13572W        W29041  13.877   3.249  14.556 -0.0456 -0.0055  0.1542
13573W        W29042  12.115   2.973   0.689  0.1625  0.1790 -0.0117
13574W        W29043   0.416   5.689  14.439  0.1490  0.1255 -0.0955
13575W        W29044  17.134  10.838  14.298 -0.0038 -0.0316 -0.1982
13576W        W29045   8.431   0.916   5.589  0.0960 -0.0929 -0.1692
13577W        W29046  17.653  13.446   1.503  0.2136  0.0587  0.1779
13578W        W29047  17.038   3.669  13.850  0.3049  0.1069  0.2975
13579W        W29048   9.949  16.789   2.027  0.0113  0.0634 -0.0840
13580W        W29049  11.769   7.297   3.502 -0.1046 -0.2079 -0.0879
13581W        W29050  17.497   3.624  12.750 -0.0421 -0.2594  0.0954
13582W        W29051  11.422   2.830  14.560  0.2705  0.1485  0.0929
13583W        W29052  15.877   6.081   5.995  0.1230  0.1468 -0.2019
13584W        W29053   5.857  14.967   1.403  0.1166 -0.1653  0.1332
13585W        W29054   4.586   1.847  14.127  0.0591  0.1934 -0.0887
13586W        W29055   5.941  17.483  15.636  0.0420 -0.5551 -0.0514
13587W        W29056  15.672   2.764   0.094 -0.3002 -0.3019  0.1482
13588W        W29057   2.301  14.408   2.593 -0.1928 -0.0580 -0.1612
13589W        W29058   3.072   4.123   4.369 -0.1871  0.2587 -0.1584
13590W        W29059   0.603  11.749  12.253  0.3008 -0.2342 -0.2193
13591W        W29060   2.958  13.097  12.824  0.2838  0.1762  0.0187
13592W        W29061   8.978   8.679   0.922 -0.2921 -0.0452  0.0163
13593W        W29062   6.080  15.254  15.121 -0.0757  0.0218  0.2246
13594W        W29063   1.249   9.293   5.524  0.1049 -0.2270  0.1285
13595W        W29064   0.290  10.588  13.843  0.3726 -0.0562  0.3723
13596W        W29065   6.947   0.715  11.515  0.2957  0.2850 -0.0373
13597W        W29066  15.398   9.342   5.025 -0.0974  0.1004 -0.0153
13598W        W29067  12.544  17.554   3.039 -0.1598 -0.0910 -0.1052
13599W        W29068  17.014   6.601   4.160  0.2628  0.1943  0.1510
13600W        W29069   4.427   8.902  12.155 -0.1130 -0.2262  0.1878
13601W        W29070  16.663   7.596  13.548  0.0121  0.0155 -0.2263
13602W        W29071  10.349  15.083  12.893  0.3266 -0.1848  0.2312
13603W        W29072   9.442  15.890   6.148 -0.0288  0.0898  0.1509
13604W        W29073   9.795  17.626   3.456  0.1617  0.2538  0.1722
13605W        W29074   4.062   0.218   6.181 -0.1017 -0.1495  0.1740
13606W        W29075  10.833   5.321  12.970 -0.0058 -0.1142  0.0611
13607W        W29076   4.004  11.295   4.343 -0.1792 -0.0467  0.0180
13608W        W29077  12.064   8.159   4.726 -0.1174  0.2191 -0.0178
13609W        W29078  13.119   6.926  15.858  0.2760 -0.1276 -0.1399
13610W        W29079   9.178  16.225  15.996 -0.3627 -0.0243 -0.3624
13611W        W29080  10.975  17.352  13.005  0.3654 -0.1010 -0.1735
13612W        W29081   2.174  12.172  11.594  0.1107 -0.1939 -0.2952
13613W        W29082  13.318  12.577   0.214 -0.0043 -0.0912 -0.0860
13614W        W29083  16.725  15.238   5.251 -0.0380  0.0502 -0.0223
13615W        W29084  10.627   7.181  16.703 -0.1030  0.1508  0.3778
13616W        W29085   9.284   9.915   4.602 -0.1362  0.0053 -0.1108
13617W        W29086  17.582   8.295   1.507  0.0288 -0.1091 -0.0498
13618W        W29087   0.397   0.550   3.690 -0.3322  0.0371 -0.0391
13619W        W29088  10.589  15.100   2.548 -0.3749 -0.0028 -0.2577
13620W        W29089  13.439  16.607  14.051  0.2988 -0.0592  0.0299
13621W        W29090   7.348  16.357   3.696  0.0443  0.4720  0.2190
13622W        W29091  17.183  17.279   4.987  0.2212  0.1203  0.0059
13623W        W29092  10.581   5.717  12.799 -0.1292 -0.0250 -0.1233
13624W        W29093  13.964   7.234  15.417 -0.0190  0.0023 -0.4392
13625W        W29094   9.317   2.254   3.985  0.2971  0.1166  0.0453
13626W        W29095   5.648   0.786  14.013 -0.0270 -0.1954 -0.2789
13627W        W29096  16.582  13.055  14.123  0.1198  0.3247  0.2910
13628W        W29097   5.073   9.396  13.862  0.0463  0.1851 -0.1488
13629W        W29098   1.855   3.715   1.622  0.1400 -0.1534  0.2612
13630W        W29099  15.497   7.099  11.848  0.1245  0.1038 -0.3265
13631W        W29100   2.096   7.161  14.673  0.0516  0.0287  0.2206
13632W        W29101  16.728  15.098  11.037  0.0521  0.2762 -0.1776
13633W        W29102   6.713  13.490  12.137  0.0335  0.0737 -0.0332
13634W        W29103   8.443   6.333   3.070 -0.1050 -0.1248 -0.1995
13635W        W29104   4.245   1.582  13.226 -0.1720 -0.0924  0.1164
13636W        W29105   2.353  11.002  12.841  0.0666 -0.2668  0.0685
13637W        W29106   8.339  16.276   0.860  0.2371 -0.1067 -0.2188
13638W        W29107  13.184  17.352   5.692  0.0590  0.0531 -0.0656
13639W        W29108  10.661  15.366   4.016 -0.1804  0.0415  0.1314
13640W        W29109   1.417  13.781  12.678 -0.0325  0.0430  0.0282
13641W        W29110   3.605  16.205  14.586 -0.3146 -0.0078 -0.0535
13642W        W29111   0.213   3.557  12.239  0.1591  0.1266 -0.0018
13643W        W29112   8.576   3.858   3.789  0.1907  0.0696  0.0591
13644W        W29113   3.971   5.832   0.682  0.1472 -0.0522 -0.1079
13645W        W29114  17.256  12.935  10.799 -0.4645  0.0182 -0.0816
13646W        W29115   5.994   3.315   0.884 -0.1572 -0.1245  0.1021
13647W        W29116  16.771  15.328   2.393  0.1593  0.1330 -0.1329
13648W        W29117   5.735  16.637  13.518 -0.0789  0.0893  0.2358
13649W        W29118   4.825   1.140   0.739  0.0334  0.0362 -0.0396
13650W        W29119   2.429   5.876  12.184  0.1560 -0.1958 -0.1533
13651W        W29120  16.694  17.708   2.037  0.0181 -0.1183  0.1904
13652W        W29121  17.666  12.451   1.241 -0.2403 -0.2745  0.1519
13653W        W29122  14.983   0.289   5.563 -0.2896  0.0117 -0.4071
13654W        W29123   8.822  15.364   4.990 -0.1153  0.0259 -0.1436
13655W        W29124  17.486  11.719  14.679 -0.2685  0.0734 -0.0043
13656W        W29125   6.882   1.734   1.592 -0.2549  0.0552  0.2175
13657W        W29126   0.289  14.750   0.288  0.0855  0.1072 -0.2487
13658W        W29127  15.935  14.248   0.901 -0.0995  0.1594 -0.1481
13659W        W29128  15.421   7.336   5.391 -0.1097 -0.2223  0.2650
13660W        W29129  10.505   9.359   2.006 -0.0261 -0.2055 -0.1038
13661W        W29130   8.190   9.624   0.859  0.1568  0.0998  0.1695
13662W        W29131   2.899   3.718  13.153 -0.1225 -0.0102  0.3063
13663W        W29132   8.105  10.776   3.207  0.1233  0.0685  0.0402
13664W        W29133  17.588  15.188   3.471  0.0179 -0.0810 -0.2260
13665W        W29134  13.557  14.971   5.773 -0.1056 -0.0739  0.0665
13666W        W29135   0.102  10.573   0.592 -0.0567  0.1247  0.0381
13667W        W29136  10.852   8.073  14.439  0.0548  0.0167  0.1559
13668W        W29137  15.125   5.727  13.727  0.3597  0.0967 -0.0219
13669W        W29138   0.863  17.565  10.291 -0.0237  0.0320 -0.3375
13670W        W29139  12.460   7.055  11.799  0.0604 -0.2721  0.0419
13671W        W29140   4.851  14.457  12.450 -0.0809 -0.2156  0.0614
13672W        W29141   8.682  12.628   0.447 -0.0852 -0.1891 -0.1025
13673W        W29142  17.546   9.488  13.693  0.0061 -0.1220 -0.0725
13674W        W29143  15.609   7.637  11.790  0.3094  0.0074  0.1131
13675W        W29144   5.603   2.247   6.418  0.1505  0.1552 -0.0329
13676W        W29145   1.628  12.681  13.331 -0.0991 -0.2020  0.1381
13677W        W29146   0.418   9.530   5.431  0.0941 -0.0205 -0.0798
13678W        W29147   4.089   5.275  16.123 -0.0819 -0.2122 -0.0455
13679W        W29148   8.412  10.503   0.937 -0.1374  0.0665 -0.0781
13680W        W29149   1.208   2.977  11.657  0.0927  0.0014 -0.1090
13681W        W29150  12.397   4.938   3.110 -0.1370  0.0438 -0.1222
13682W        W29151  11.557  10.493  16.188 -0.1333 -0.0360  0.0252
13683W        W29152  12.560  13.804  13.041  0.1000  0.2012  0.0343
13684W        W29153   9.841   2.339   1.380  0.0232 -0.1945  0.3005
13685W        W29154  13.899  12.888  13.705  0.0673 -0.0646 -0.0272
13686W        W29155  15.675  12.165  15.398  0.2729 -0.0936 -0.2757
13687W        W29156   2.108   2.981   3.766 -0.4308  0.1968 -0.2753
13688W        W29157  15.151   8.416  13.458 -0.3123  0.3387 -0.2440
13689W        W29158   6.615  17.443  14.879  0.0962  0.2338  0.3993
13690W        W29159   3.558  13.307  16.583  0.2742  0.1144  0.1336
13691W        W29160   1.211   5.235  12.854 -0.1148  0.0201 -0.1645
13692W        W29161   7.227  10.748  13.866  0.2249  0.1052  0.0005
13693W        W29162  13.049  12.172   2.926 -0.2723 -0.2381  0.0087
13694W        W29163  10.193   0.826   4.979  0.0097 -0.2592  0.0417
13695W        W29164   9.745   9.695   0.364  0.0616 -0.3224  0.1080
13696W        W29165   2.256  16.360  10.864 -0.0515  0.0900  0.1213
13697W        W29166  15.849   7.030  14.617  0.3178 -0.0102  0.2151
13698W        W29167   2.293  15.115  13.141  0.4194 -0.0572  0.1697
13699W        W29168  15.265   0.012   3.899 -0.1976 -0.1407  0.0503
13700W        W29169  17.263  16.112  15.496 -0.0103 -0.1412 -0.1316
13701W        W29170  17.120   9.210  13.897  0.1281  0.2881 -0.1558
13702W        W29171  10.286  16.902   0.147  0.2312  0.0701 -0.0386
13703W        W29172  16.890  11.705  13.379  0.0357  0.0378  0.0933
13704W        W29173  15.776  12.058   5.424  0.0261 -0.0147  0.4429
13705W        W29174   9.250  14.880  10.798 -0.1542  0.0149  0.0005
13706W        W29175   5.143   2.075   2.681  0.2125  0.3007 -0.0717
13707W        W29176  17.335  10.247   1.945  0.2977  0.0011  0.3347
13708W        W29177  16.305   5.435   1.531  0.0476 -0.1025 -0.0376
13709W        W29178   5.183   2.798   0.240  0.0863 -0.0026 -0.0514
13710W        W29179   0.166   3.134  13.668 -0.1420 -0.1049  0.2023
13711W        W29180  12.248   5.806  16.209 -0.0331  0.1063 -0.2154
13712W        W29181   6.314  16.055  14.833 -0.0515  0.0715 -0.1430
13713W        W29182   7.356  14.111   5.662  0.0687  0.2611 -0.2180
13714W        W29183   3.004  12.399   0.882 -0.0158  0.1605 -0.3192
13715W        W29184  10.679   9.480  11.310  0.0568 -0.0092  0.3165
13716W        W29185   3.812   8.169   1.022  0.1193  0.0823 -0.1300
13717W        W29186  14.653   0.283   1.346  0.2433  0.2143 -0.0128
13718W        W29187  11.901   9.159   5.791 -0.0787  0.0821  0.0450
13719W        W29188   0.040   3.846   0.617 -0.0795  0.1178 -0.2688
13720W        W29189  14.067   2.971   1.750  0.1519  0.1327  0.0771
13721W        W29190   0.150   9.519   0.756  0.2346  0.2367  0.3246
13722W        W29191  11.537   7.420  12.307  0.0219 -0.0411  0.2863
13723W        W29192   5.556  16.248  13.962 -0.0252  0.1713  0.2425
13724W        W29193  10.174   0.285   3.505  0.3154  0.1273  0.2647
13725W        W29194   5.876  12.025   6.334  0.1109  0.0444 -0.0698
13726W        W29195   6.124   6.997   5.174 -0.3687 -0.0254 -0.0052
13727W        W29196   7.448   5.978  16.397  0.1336  0.2787 -0.0784
13728W        W29197   4.680  15.646   2.357  0.1684 -0.0790  0.0097
13729W        W29198   7.489  17.252  15.579 -0.0494 -0.1521  0.1633
13730W        W29199  14.965  11.889   1.718 -0.0404 -0.0329 -0.4997
13731W        W29200   8.011   2.170   3.688 -0.0576 -0.2721  0.2275
13732W        W29201   5.012   2.347  13.347  0.0423 -0.1372  0.1631
13733W        W29202  16.508   5.228   0.620  0.1659  0.2283  0.0974
13734W        W29203   3.667  17.220  13.009 -0.1087  0.0432  0.1321
13735W        W29204  15.866  16.300   0.499  0.0662  0.2269 -0.2413
13736W        W29205   4.152   0.368   3.488  0.0696  0.2703  0.0421
13737W        W29206   9.360   2.818  16.259  0.0585  0.0304 -0.2320
13738W        W29207   7.811   7.975   0.676 -0.1692  0.3702  0.1400
13739W        W29208  17.013  11.492  12.749 -0.0714  0.1147 -0.0208
13740W        W29209   9.240   6.219  16.705  0.3820 -0.1836  0.2783
13741W        W29210   4.115  13.389   2.480  0.1890  0.3384  0.1453
13742W        W29211  17.345  11.964  13.678  0.1744  0.1247  0.1696
13743W        W29212   1.690  17.003  12.043  0.0534  0.1182  0.1176
13744W        W29213  12.722   7.622  12.946  0.0612  0.4158 -0.0692
13745W        W29214   4.373   4.288  11.671  0.1903 -0.0414 -0.0421
13746W        W29215  10.336   3.342  11.770 -0.0839 -0.0297  0.1134
13747W        W29216   5.215  12.339  14.153  0.3330  0.2477 -0.1643
13748W        W29217  14.137   6.705   5.283 -0.0281  0.1110  0.0316
13749W        W29218   2.038  10.055  11.271  0.0196  0.1626 -0.1160
13750W        W29219  17.134   3.766   2.180  0.2347 -0.0203 -0.2020
13751W        W29220   6.437  10.950   3.033 -0.1796  0.2526 -0.0065
13752W        W29221  17.482  17.679   1.852 -0.0985 -0.0096  0.0333
13753W        W29222  10.356  12.709   3.013  0.1234 -0.2982  0.1583
13754W        W29223  15.678  14.118  12.704  0.1396 -0.1610  0.0676
13755W        W29224   9.083  17.281   3.514 -0.0760  0.0077  0.0999
13756W        W29225  12.077  15.454  13.490 -0.0823 -0.1998 -0.0483
13757W        W29226  13.049  12.230  13.334  0.1212 -0.2850 -0.2412
13758W        W29227   4.675   8.760   6.232 -0.1203 -0.0728 -0.2184
13759W        W29228   2.406   9.345  10.885  0.0561  0.1569 -0.1934
13760W        W29229   6.699  16.355  11.050 -0.2391  0.1710  0.2012
13761W        W29230  17.476   7.224  14.530  0.4199  0.1348  0.0662
13762W        W29231  13.252   3.962   2.766  0.0303 -0.0126  0.3892
13763W        W29232   0.342  12.970  16.833 -0.0117  0.4954 -0.1828
13764W        W29233   3.968  11.542   2.133 -0.1161 -0.3113  0.1175
13765W        W29234  17.752   8.436  15.939 -0.0212 -0.4123 -0.0526
13766W        W29235   4.652  10.372   2.362  0.1379  0.0383 -0.0999
13767W        W29236   5.375   4.159  16.106 -0.0301 -0.2304  0.1169
13768W        W29237   7.928   6.800  14.566  0.0591 -0.2196  0.1149
13769W        W29238   4.018   1.173  12.140  0.2349 -0.1017  0.2660
13770W        W29239   8.802  16.660   0.013 -0.0320  0.2346 -0.1389
13771W        W29240   2.898   6.983  12.949  0.0653  0.1543 -0.0540
13772W        W29241  10.222  15.223   5.369 -0.1596 -0.2381  0.1071
13773W        W29242  16.333  17.724   1.121  0.1278  0.3182  0.2779
13774W        W29243   4.055  13.086   0.735  0.0082  0.0641 -0.2082
13775W        W29244   0.223  11.300   4.677  0.0854  0.1294  0.2793
13776W        W29245   0.328   4.765   5.377  0.1693  0.0400  0.3080
13777W        W29246  14.642   0.183  13.470 -0.1362  0.1182  0.0059
13778W        W29247  17.669  10.116  13.664  0.0208  0.1777 -0.2986
13779W        W29248  12.458  14.981   0.955  0.1088  0.1440 -0.1931
13780W        W29249  14.270  11.917  16.034 -0.0425  0.1480 -0.1660
13781W        W29250  13.601   5.287   0.770 -0.0093 -0.1060 -0.4473
13782W        W29251   1.256  10.587  13.724 -0.0370  0.0472 -0.3752
13783W        W29252  13.018  12.257  12.434 -0.0852 -0.1896  0.0188
13784W        W29253  13.115   0.172  11.567 -0.1312  0.1453  0.1604
13785W        W29254  14.402   8.653   5.403  0.0984 -0.4690 -0.3588
13786W        W29255   0.308   8.470   1.169 -0.2168 -0.1044 -0.0771
13787W        W29256   6.373  14.615  11.514 -0.0901 -0.0308 -0.1596
13788W        W29257   0.474   4.523  12.868  0.1041  0.0217 -0.1389
13789W        W29258   9.464  10.901  13.441  0.3088 -0.0137 -0.0865
13790W        W29259  12.045   9.170  13.930  0.0335 -0.0865 -0.1064
13791W        W29260  15.873  14.427  13.819 -0.2458 -0.0996 -0.2582
13792W        W29261  13.335   7.877  15.827 -0.0974 -0.0500  0.0030
13793W        W29262   1.478  15.911   4.510  0.1569 -0.1052 -0.0470
13794W        W29263  13.141  10.077   3.197  0.1999  0.1434 -0.2478
13795W        W29264   1.174  15.499  11.835 -0.3238  0.0460  0.2735
13796W        W29265  13.874   2.606  15.561 -0.2202  0.3446  0.3380
13797W        W29266  10.268   6.084   3.399 -0.0615 -0.0225  0.0909
13798W        W29267   2.024   1.829   4.159 -0.0733 -0.2629 -0.2854
13799W        W29268  17.121   5.926   1.152 -0.0350 -0.0804  0.1023
13800W        W29269   6.352   2.135  12.465  0.1759  0.0239 -0.0287
13801W        W29270   4.696   7.509   2.642 -0.0170 -0.1373  0.1787
13802W        W29271  12.205   5.702  12.032 -0.1286  0.0784  0.1172
13803W        W29272  10.564   3.768  11.709 -0.3158  0.2291  0.1419
13804W        W29273  15.183   3.959   1.806  0.1739 -0.0290  0.0143
13805W        W29274  16.926  16.486   5.274 -0.1347  0.0095  0.2927
13806W        W29275  12.557  10.374  12.382  0.0325  0.0571 -0.1605
13807W        W29276   8.777   8.404   4.036  0.1894  0.0457 -0.1287
13808W        W29277   9.289   6.266   5.135  0.0987  0.0810  0.3402
13809W        W29278  12.784  15.845   3.559  0.0160  0.0884  0.2139
13810W        W29279   1.061  17.581   1.928 -0.1886 -0.0886 -0.0685
13811W        W29280  16.808   6.912  16.487 -0.0229  0.3662 -0.0375
13812W        W29281  13.695   4.907  12.052  0.0830  0.0601 -0.2478
13813W        W29282   4.641  17.477  12.205 -0.2403  0.1782 -0.3202
13814W        W29283   8.388  11.130  13.174 -0.2638  0.1778  0.1850
13815W        W29284  17.288  10.047   1.164  0.2588 -0.0380 -0.2318
13816W        W29285   2.641  13.939  13.597  0.2133 -0.0870  0.1842
13817W        W29286  12.539   0.459   1.170  0.0384  0.0392 -0.2621
13818W        W29287  15.309  14.531  11.480  0.0883 -0.1530  0.0516
13819W        W29288   8.165   5.841  13.455  0.1791  0.0271  0.2098
13820W        W29289  11.218   0.691   2.317 -0.0644 -0.1847  0.0540
13821W        W29290  11.204   2.787  13.694 -0.0802 -0.1416  0.0352
13822W        W29291   1.254   6.502   3.488 -0.0002  0.0353  0.1901
13823W        W29292   7.748  10.524   2.994 -0.1184 -0.1497 -0.3751
13824W        W29293  11.208   6.149  12.914  0.1710  0.2504  0.0507
13825W        W29294   3.902   2.800   3.422  0.0777 -0.3424 -0.3523
13826W        W29295   4.628   3.542  13.297  0.2585 -0.1421 -0.0707
13827W        W29296   9.278   5.292  12.458 -0.0059 -0.0585 -0.3046
13828W        W29297   0.550  14.854   2.251 -0.0298 -0.0780  0.2821
13829W        W29298  16.937  13.820   0.847  0.1393  0.1018  0.2409
13830W        W29299   9.405   8.334   2.263 -0.0786 -0.2842  0.0602
13831W        W29300   3.101   9.374  16.234  0.2307 -0.1952  0.1313
13832W        W29301   2.554  12.954  14.428 -0.1857 -0.0747 -0.3416
13833W        W29302   7.138  17.620   3.652  0.3958 -0.2286 -0.0173
13834W        W29303   5.689   5.646   0.572  0.2257  0.0907  0.1947
13835W        W29304  17.603   8.023  12.711 -0.5068 -0.1813  0.1598
13836W        W29305   4.192   1.896   4.435  0.0451 -0.0745  0.0121
13837W        W29306  13.835   6.101   1.370 -0.1851 -0.0752  0.3060
13838W        W29307   3.535   3.193   1.035  0.1343  0.1620  0.1217
13839W        W29308   9.456   8.672  12.987 -0.0306  0.0355 -0.1055
13840W        W29309  16.354  12.728   0.730 -0.1858 -0.2340  0.1895
13841W        W29310   3.368   6.139   2.591 -0.1960 -0.0221  0.0327
13842W        W29311   5.012   7.510   3.555  0.2644  0.1256 -0.0596
13843W        W29312  10.587  11.753  16.038 -0.0443  0.0348 -0.0173
13844W        W29313   8.852   0.103   3.215  0.1293 -0.0239  0.0243
13845W        W29314   9.063   7.973   5.407  0.0484 -0.0005 -0.0440
13846W        W29315   9.859  10.959   2.370 -0.0923  0.1508  0.0061
13847W        W29316  13.762  16.034   4.977  0.1007  0.2204  0.0552
13848W        W29317   6.562   1.639   2.121 -0.2722  0.0005  0.0582
13849W        W29318   9.374  12.971   1.120  0.3649 -0.0314  0.0344
13850W        W29319   1.301   2.943   0.275 -0.0771 -0.0950  0.0755
13851W        W29320  12.766  16.285  14.870  0.2177 -0.1538  0.0215
13852W        W29321  11.876  15.668   1.760 -0.2978 -0.0345 -0.2242
13853W        W29322  13.504   1.368   1.187  0.0109  0.1230 -0.1838
13854W        W29323  16.698   4.798   0.413 -0.2111  0.0664  0.2696
13855W        W29324   2.733  10.962  12.523 -0.2291  0.1053 -0.0384
13856W        W29325   5.794   6.117   5.275 -0.0341 -0.1649 -0.0338
13857W        W29326   7.736  14.488  14.905  0.3684  0.1690  0.1122
13858W        W29327   1.738   0.292  16.092  0.0784  0.4193  0.0941
13859W        W29328   6.696   7.130   3.637 -0.2364 -0.3635  0.1224
13860W        W29329  14.944   6.512   2.151 -0.2412 -0.0811  0.0760
13861W        W29330  10.177  14.574  11.994  0.0926  0.0435 -0.3197
13862W        W29331  12.373   0.001   3.541  0.3839  0.3187 -0.0996
13863W        W29332  10.284  10.990  15.665  0.1464  0.0015 -0.0811
13864W        W29333   9.669   4.673  11.338  0.1961  0.0096  0.1049
13865W        W29334   7.363   0.762  15.681 -0.2107  0.0212  0.1769
13866W        W29335   3.751   1.017   2.918 -0.0584 -0.1507  0.0391
13867W        W29336   7.296  14.629  15.767  0.0287 -0.1346 -0.3896
13868W        W29337  14.202   2.976  12.359 -0.1271  0.0537 -0.0495
13869W        W29338  17.216   2.639   2.503 -0.0952 -0.0316 -0.0886
13870W        W29339  17.479   5.324   4.895 -0.1614  0.1164  0.1441
13871W        W29340  17.457   3.213  11.436  0.0957 -0.1304 -0.1473
13872W        W29341   4.645  13.640   3.445 -0.1889  0.1613  0.0332
13873W        W29342  14.678   4.373  10.777  0.4293  0.0392 -0.2630
13874W        W29343  16.899   9.027  12.936  0.0169  0.0461  0.2582
13875W        W29344  17.174  13.967  15.523 -0.0689  0.1283 -0.2242
13876W        W29345  14.364   7.659  10.759  0.3948 -0.2629 -0.0181
13877W        W29346   1.483   5.317   1.141  0.0448  0.0708  0.0568
13878W        W29347  11.847  17.105  12.543  0.2318 -0.1526 -0.1501
13879W        W29348  16.427   8.009   5.676 -0.0864  0.0684 -0.1354
13880W        W29349  12.492   9.433   5.525  0.0295 -0.0432 -0.0615
13881W        W29350  15.012  14.497  13.841 -0.1275  0.2230 -0.0587
13882W        W29351   2.325   5.106  12.951 -0.2190 -0.0291 -0.1852
13883W        W29352   0.705   6.596  15.354  0.2708  0.0600  0.0602
13884W        W29353   2.955   6.295   0.845 -0.0136 -0.0135  0.0297
13885W        W29354  13.003  15.746   2.712  0.1275 -0.0532 -0.0232
13886W        W29355   5.045   9.747   5.036  0.0618  0.4937 -0.0419
13887W        W29356   3.586  16.361   1.800 -0.2827 -0.4465 -0.0456
13888W        W29357  16.133  14.837   0.174 -0.1503 -0.1293  0.2976
13889W        W29358   7.372  15.092  16.005 -0.3284  0.0208  0.0289
13890W        W29359   8.512  12.654   1.442 -0.0138 -0.2323 -0.1604
13891W        W29360  16.135  11.774  14.761  0.3103 -0.0440 -0.3002
13892W        W29361   8.813   1.631  16.451  0.0474  0.0960 -0.1634
13893W        W29362   2.023   8.876  16.261 -0.0542  0.0985 -0.1291
13894W        W29363   4.245  17.133   4.882 -0.3027 -0.0955  0.1315
13895W        W29364   1.577   9.059  11.356 -0.0516 -0.1707 -0.0195
13896W        W29365   0.203   6.230   4.568  0.2270  0.2893  0.0396
13897W        W29366   3.117  11.361   1.973  0.0135 -0.0835 -0.0764
13898W        W29367   1.808   0.855   1.451  0.1698  0.0519 -0.0591
13899W        W29368  14.184   9.201   0.025 -0.1186  0.2700  0.2491
13900W        W29369  14.132   7.202   3.105 -0.0531  0.0831 -0.3762
13901W        W29370   2.123   4.218  14.630  0.0582 -0.2902 -0.1445
13902W        W29371   6.652   8.196  16.207  0.0441 -0.3271 -0.0298
13903W        W29372   1.001   1.069  14.651 -0.1692  0.0197 -0.1472
13904W        W29373  13.274   6.190   5.801  0.2219  0.2146 -0.3282
13905W        W29374  14.031   9.313   2.442  0.3230  0.1510 -0.2151
13906W        W29375   6.772  15.325   5.134 -0.1001 -0.1119 -0.0075
13907W        W29376  17.627  15.967  12.661 -0.2033  0.1526 -0.4237
13908W        W29377   5.310  11.464  11.458  0.1119 -0.0913  0.0640
13909W        W29378  17.471   2.239  11.171 -0.4761  0.0374  0.2242
13910W        W29379  12.115   2.761   3.008 -0.1120  0.0050 -0.1196
13911W        W29380   1.178   5.893  13.805  0.1996  0.0185  0.3080
13912W        W29381   6.571   0.705  15.062 -0.0480 -0.0969 -0.0116
13913W        W29382   0.004   9.750   1.154 -0.2062 -0.1639  0.0079
13914W        W29383  14.871  17.697   0.005  0.1426  0.1068 -0.0869
13915W        W29384   5.340  13.694  16.304 -0.0528  0.0931  0.2551
13916W        W29385   8.245  16.036   4.035 -0.2230  0.0386 -0.3098
13917W        W29386  16.908  10.662  16.545  0.1250  0.0547  0.0956
13918W        W29387   5.223  16.015   1.128  0.0447 -0.1751  0.2561
13919W        W29388  10.811   6.018  16.417  0.0117 -0.0167  0.1217
13920W        W29389   5.956   7.434  14.531 -0.0158  0.0848 -0.1854
13921W        W29390   0.576   4.680   1.632 -0.1256  0.1825  0.0708
13922W        W29391   5.182   9.209   3.687  0.0874  0.1769  0.2321
13923W        W29392  13.284   2.111  16.532 -0.1690  0.3236  0.0853
13924W        W29393   5.941   4.281  16.105  0.1812  0.1017  0.2422
13925W        W29394   3.543  14.626  14.417 -0.1884  0.1703 -0.2343
13926W        W29395   7.626  10.221  13.694  0.3162  0.0971 -0.1427
13927W        W29396  14.188   4.011  10.555 -0.3791  0.1302 -0.0140
13928W        W29397  10.912  14.538   5.785 -0.0440 -0.0889 -0.2141
13929W        W29398  10.637  13.156   4.058  0.0211  0.2618 -0.0959
13930W        W29399   2.505  12.667  11.454 -0.2559 -0.3347 -0.1207
13931W        W29400   5.443  10.597  13.559 -0.0252 -0.1107 -0.2747
13932W        W29401  11.029  10.910  15.080  0.0840  0.1665 -0.2912
13933W        W29402   0.050   3.468   3.297 -0.0511  0.1288  0.2932
13934W        W29403   7.182  11.907  16.046 -0.0158  0.1994 -0.2065
13935W        W29404  12.231   3.747   4.761 -0.2833  0.1702  0.0343
13936W        W29405   6.767   0.695  13.933  0.0773  0.0212 -0.1340
13937W        W29406   4.020   7.995  14.276 -0.0102 -0.1191  0.0511
13938W        W29407   0.067  10.410   1.923  0.1154 -0.2061  0.0346
13939W        W29408   9.680  12.111   6.618  0.1603 -0.2353 -0.1362
13940W        W29409   9.314  11.883   0.255 -0.3465 -0.2142  0.0793
13941W        W29410   4.369  15.187  13.552  0.0909  0.0322 -0.0045
13942W        W29411   1.493   2.644   1.713 -0.2680  0.1734  0.1305
13943W        W29412   5.926  10.222   0.566  0.1419 -0.1643 -0.1286
13944W        W29413  17.670  15.725   2.278  0.0472 -0.2990 -0.0473
13945W        W29414  16.622   3.521  16.170  0.1898  0.3209  0.0500
13946W        W29415   4.138   2.982  15.069  0.0164 -0.2793 -0.0145
13947W        W29416   4.838   4.313  12.652  0.0861 -0.0061 -0.0533
13948W        W29417   1.218   1.848  15.245  0.0050 -0.1045  0.2528
13949W        W29418  13.560  14.758  13.460  0.0323 -0.1099  0.1178
13950W        W29419   8.069   2.588   1.762 -0.1905 -0.1828  0.2458
13951W        W29420   4.905   0.619  13.437 -0.0195 -0.1550 -0.0984
13952W        W29421  11.600   7.766   3.397  0.0406 -0.0980  0.0724
13953W        W29422  10.746   6.441  15.558 -0.0471 -0.1174  0.1365
13954W        W29423  16.945  15.537  11.233 -0.0467  0.0797  0.0474
13955W        W29424   2.783   6.182  15.545 -0.0328  0.1241  0.1638
13956W        W29425  15.420   7.537  12.280 -0.2797 -0.1094  0.0180
13957W        W29426   6.258   8.599   4.994  0.0142  0.2905 -0.0544
13958W        W29427  17.421   8.146   3.738  0.1731 -0.0019  0.0668
13959W        W29428   5.688   7.930   2.875  0.0393  0.1101  0.0148
13960W        W29429  10.740   6.592   4.813  0.1601 -0.0965 -0.0706
13961W        W29430   7.198   4.367   2.215  0.2785 -0.0125  0.2543
13962W        W29431   7.373  15.041   2.047  0.1108  0.1465 -0.1787
13963W        W29432   3.770   5.148   5.646  0.0974 -0.0689 -0.0137
13964W        W29433   1.299   7.223   1.332 -0.0376  0.1901 -0.1287
13965W        W29434  15.687  15.513   1.094  0.3383  0.0357  0.0300
13966W        W29435  12.121   0.731   3.508 -0.0704 -0.0979 -0.1006
13967W        W29436   0.276  15.832  16.187  0.0250 -0.2672  0.1478
13968W        W29437  12.049   8.843   5.317 -0.1711 -0.0123 -0.2403
13969W        W29438   3.903   9.472  11.369  0.0769  0.1138  0.2475
13970W        W29439   0.165   2.283   6.133 -0.2245 -0.1774 -0.0888
13971W        W29440   9.923   8.625   5.027 -0.0072  0.1587 -0.2597
13972W        W29441  15.068   3.506  15.954 -0.1359  0.0153  0.0311
13973W        W29442   8.929  10.469  12.773 -0.1690 -0.0347 -0.1353
13974W        W29443   3.840   1.756   4.773 -0.0093  0.0296 -0.0865
13975W        W29444  16.778  15.848   0.312  0.0386 -0.1373 -0.0300
13976W        W29445  17.492   7.914  15.381  0.0471  0.1577 -0.0288
13977W        W29446  11.805  13.158  16.222  0.1196  0.3416  0.0970
13978W        W29447   1.416  15.086  16.108 -0.1023  0.3444 -0.0830
13979W        W29448   4.427   1.674  15.612  0.1207 -0.0691  0.1224
13980W        W29449  13.999   9.194   3.456  0.2534 -0.0458  0.1741
13981W        W29450   5.522  10.586   2.789  0.0751  0.2160  0.1798
13982W        W29451   9.717  12.513  15.069 -0.2187 -0.3328  0.1862
13983W        W29452   0.822  14.580   3.478 -0.2311  0.1022  0.2024
13984W        W29453   9.926  11.146   5.003  0.1683  0.1347  0.1001
13985W        W29454   3.174  15.574  15.964 -0.0072 -0.0530 -0.0472
13986W        W29455  12.257   7.949   4.243  0.3391  0.1125 -0.3833
13987W        W29456  14.009   5.970   2.498  0.1898  0.0883  0.1616
13988W        W29457  16.571   9.176  10.807  0.0921  0.0207  0.0495
13989W        W29458   7.104  10.388   1.436 -0.2050 -0.1577  0.0133
13990W        W29459   5.957   4.371   1.907 -0.0410 -0.2120 -0.1763
13991W        W29460  13.057   4.546   0.317 -0.1274 -0.3447 -0.3506
13992W        W29461   0.758  13.358   1.862  0.2236  0.0404 -0.0468
13993W        W29462  17.455   8.937   5.224  0.0885 -0.3539  0.2296
13994W        W29463   8.500  16.158   5.352 -0.0758  0.0098  0.1360
13995W        W29464  15.223   8.521   3.359 -0.1254  0.1472  0.0236
13996W        W29465   0.777   1.247   1.096 -0.4742 -0.1136 -0.1159
13997W        W29466  17.165  12.152   2.002 -0.1457  0.2357  0.2830
13998W        W29467  16.660   4.063  12.873  0.0055 -0.0116  0.0194
13999W        W29468  14.057  11.624   5.986 -0.3427  0.0702 -0.1955
14000W        W29469  10.739   2.308   0.876 -0.3926 -0.0339  0.0123
14001W        W29470   6.984   6.183   1.752 -0.0880 -0.0567 -0.1368
14002W        W29471   3.243   4.687   0.070 -0.0438 -0.0872  0.0295
14003W        W29472   5.286  13.367  11.320  0.0441 -0.2643  0.0552
14004W        W29473  16.578   2.797  16.721  0.2201  0.0227 -0.4190
14005W        W29474   3.816   9.363  10.910  0.1594  0.0329  0.0227
14006W        W29475  12.262  12.616  12.420 -0.0208 -0.0807  0.1338
14007W        W29476  14.476  17.453   2.874  0.1640  0.1357 -0.2220
14008W        W29477   7.141  10.955   3.704 -0.3780 -0.0198  0.0836
14009W        W29478  14.800   0.566   1.981  0.1168  0.1482  0.1161
14010W        W29479   5.106  14.965  13.803  0.0920  0.0855 -0.0401
14011W        W29480   2.733  14.085   1.162  0.5232 -0.0874 -0.2693
14012W        W29481  16.177  17.610   2.986  0.0154  0.0179  0.3243
14013W        W29482   8.850   6.085   3.258  0.1215  0.0756  0.1919
14014W        W29483   1.679   3.880  11.169 -0.1099  0.0235 -0.2837
14015W        W29484   9.070   3.341  12.833 -0.2814 -0.1561  0.3005
14016W        W29485   2.689   6.832   4.339 -0.2015 -0.0049 -0.1143
14017W        W29486  15.193   3.987  12.239  0.0732 -0.0663  0.1127
14018W        W29487  14.452   6.755  13.166  0.1188 -0.0286 -0.0606
14019W        W29488   4.439  17.064   1.313 -0.0874 -0.2212  0.1543
14020W        W29489  14.213   9.468   1.505 -0.2129  0.2015 -0.2384
14021W        W29490   2.321   3.155  11.336  0.3431  0.3434 -0.2680
14022W        W29491   2.385  10.657  12.448  0.0218  0.1576 -0.1390
14023W        W29492   2.463  10.124   1.424  0.2061 -0.1592 -0.1079
14024W        W29493  15.550   5.964  13.860 -0.0751 -0.0078  0.1324
14025W        W29494   9.758   4.851  15.392  0.1706  0.1445 -0.1773
14026W        W29495   9.158  17.717   4.903  0.1081 -0.0278 -0.0659
14027W        W29496  15.324   1.160  13.662 -0.2485  0.2884 -0.0163
14028W        W29497   1.334   7.538  12.915  0.0801  0.2083 -0.1228
14029W        W29498   1.175  14.936  11.089  0.0508 -0.3413  0.1870
14030W        W29499   5.115   9.301  14.984  0.1783  0.3203  0.0607
14031W        W29500   2.376   8.273  13.658 -0.2449 -0.1795  0.0971
14032W        W29501   1.669  11.414  15.701  0.2200 -0.0918 -0.0010
14033W        W29502  15.996  14.086   4.109  0.1036 -0.2124 -0.1389
14034W        W29503  10.031  14.595  15.800 -0.0410 -0.1859  0.2606
14035W        W29504   2.576   8.629  13.322 -0.2463  0.1051  0.1660
14036W        W29505   9.811   3.035   2.309 -0.0612 -0.1575  0.2389
14037W        W29506  12.025   4.035   3.742  0.0220  0.3428  0.0261
14038W        W29507   2.428  16.619   0.625  0.1321 -0.1006  0.0082
14039W        W29508  12.164   0.302   2.451  0.0214  0.0765  0.1769
14040W        W29509  12.449   5.874  14.105 -0.1690 -0.1661 -0.0533
14041W        W29510   1.425  10.950  15.641  0.3044  0.1768 -0.1916
14042W        W29511   5.352   3.126   2.016 -0.1600  0.1306  0.1782
14043W        W29512   9.812  15.537  12.034 -0.1252  0.1731 -0.1756
14044W        W29513   6.773   5.136  13.573  0.2930  0.1867  0.0508
14045W        W29514  17.389  17.570  15.636 -0.0729  0.1961  0.0137
14046W        W29515  15.355   8.914   2.439  0.1912  0.1358 -0.0051
14047W        W29516  10.776   5.687   4.539  0.1111 -0.0143 -0.2113
14048W        W29517  11.166   8.485   1.303  0.0215  0.1522 -0.1122
14049W        W29518   3.520  12.766   1.855 -0.1458  0.2223 -0.0464
14050W        W29519   3.074   1.318  13.735  0.0236  0.1957  0.2098
14051W        W29520  10.660  16.172  14.770 -0.2843  0.0546  0.0536
14052W        W29521   6.693  13.350   5.203  0.0651  0.0455 -0.0751
14053W        W29522  17.229   7.291  16.586 -0.1071  0.1546  0.1129
14054W        W29523   9.459  10.223   0.211 -0.1755  0.2357 -0.1800
14055W        W29524  16.866   6.606   1.501 -0.3617 -0.1228  0.1526
14056W        W29525   0.525  13.826   2.992 -0.1464 -0.0764  0.1017
14057W        W29526  10.858   4.562   2.011 -0.3663 -0.3486  0.1394
14058W        W29527  14.869  11.532   2.031  0.1822  0.0869  0.0896
14059W        W29528  11.181   7.766   5.205  0.1537 -0.3715 -0.1598
14060W        W29529  15.286  11.924  15.100 -0.0888  0.3461 -0.0423
14061W        W29530   9.311  13.016   1.684  0.1007  0.0633  0.1749
14062W        W29531   5.752   5.776  12.669  0.0055  0.0068 -0.2778
14063W        W29532  15.847   3.729  12.842  0.1463  0.1325  0.1708
14064W        W29533  13.651  15.486  15.611  0.1294  0.1084 -0.1253
14065W        W29534   7.427   6.399  13.902 -0.0482 -0.2859  0.1393
14066W        W29535   6.474   6.254   1.614 -0.0482 -0.0076 -0.1198
14067W        W29536   1.800  13.231   5.271 -0.0370 -0.2370  0.0104
14068W        W29537   3.102  16.404   2.901  0.2548 -0.0358 -0.0689
14069W        W29538   2.039  17.624  16.721  0.2271 -0.0199  0.1161
14070W        W29539   8.017  10.653  16.558 -0.1044 -0.2651  0.1840
14071W        W29540   9.927  14.207  15.477  0.3447 -0.0978 -0.0958
14072W        W29541   7.908   7.514   2.599 -0.0219  0.1539 -0.0692
14073W        W29542  17.168  17.027  15.614 -0.2654  0.2297  0.1243
14074W        W29543  10.114  15.161  14.374  0.3603  0.0417 -0.0158
14075W        W29544  17.630  15.270   4.913  0.2414 -0.1652  0.2174
14076W        W29545   0.386   5.241   4.892  0.0187  0.1159  0.1507
14077W        W29546   3.340   4.120  15.723  0.2827  0.3822  0.1853
14078W        W29547   8.960   5.752   1.422 -0.1461  0.1762  0.0037
14079W        W29548  15.237  12.196  10.184 -0.1923  0.0253 -0.2622
14080W        W29549  12.736  13.103  15.184 -0.1910  0.2201  0.0163
14081W        W29550  14.712   2.929  12.139  0.1982  0.0662 -0.0540
14082W        W29551  15.739  17.063   1.997 -0.2102 -0.1941 -0.0659
14083W        W29552   8.659   4.249   2.198 -0.2410 -0.1499  0.0437
14084W        W29553   5.826  13.060   4.792  0.0282  0.1292 -0.0137
14085W        W29554  12.089   6.202  13.860 -0.0738 -0.1458  0.0603
14086W        W29555   6.134   8.749   3.128 -0.0721 -0.2244  0.2952
14087W        W29556   8.506   2.411   4.353  0.1446 -0.0331  0.4839
14088W        W29557   0.428   2.553  16.843 -0.3113 -0.0941  0.0511
14089W        W29558  13.561  13.116  15.639  0.1367 -0.0348 -0.0038
14090W        W29559  14.553   2.005   5.147  0.2867  0.0898 -0.2016
14091W        W29560  10.169  17.586  11.490  0.1424 -0.1292 -0.1282
14092W        W29561   0.086   1.635  14.677 -0.2572 -0.2177  0.3353
14093W        W29562  10.770   0.401   0.715 -0.1315 -0.1872 -0.1837
14094W        W29563  14.409   8.042  12.546 -0.4621 -0.1418 -0.1022
14095W        W29564  13.419  11.663   0.754 -0.1056 -0.0829 -0.3327
14096W        W29565   9.880   9.717   4.579  0.2543 -0.0045 -0.2522
14097W        W29566   2.013   3.835  10.682 -0.2298  0.0019 -0.0229
14098W        W29567  11.869   2.973   4.906 -0.0672  0.2032  0.2857
14099W        W29568   0.852   6.150  15.414  0.0653  0.0030  0.1089
14100W        W29569   2.221  17.555  12.473  0.2400  0.1196 -0.2036
14101W        W29570  16.302   9.033   3.095  0.0380 -0.0706  0.1861
14102W        W29571  13.734  17.766  12.664  0.0939  0.1124  0.1511
14103W        W29572   7.666   7.123   2.368  0.3147 -0.0064 -0.0294
14104W        W29573  15.267  10.153   4.787 -0.0421  0.1559 -0.1515
14105W        W29574   1.374  13.784   0.984 -0.0576  0.0547 -0.0675
14106W        W29575   0.589  12.680   1.378 -0.0521 -0.0555  0.0405
14107W        W29576  12.920  11.430  15.941 -0.0179 -0.2028 -0.3249
14108W        W29577   6.224   2.600  16.327 -0.1186 -0.1581  0.0586
14109W        W29578  12.987   5.295   5.707 -0.0801 -0.0497 -0.1337
14110W        W29579  17.592   9.319   1.248  0.3056 -0.1081  0.1016
14111W        W29580  12.757   1.779  13.118  0.0250  0.3676 -0.0436
14112W        W29581  15.707   0.482   1.433 -0.2006  0.4273 -0.0786
14113W        W29582   1.173   9.605  11.856 -0.0053  0.1698  0.1045
14114W        W29583   4.178   8.158   2.554  0.1347  0.0835  0.1294
14115W        W29584   9.893  10.186   3.288  0.1542  0.0533  0.0052
14116W        W29585   6.538   9.038  11.560  0.0497 -0.0824 -0.2820
14117W        W29586   2.965   6.480  12.967 -0.1398  0.0373  0.1819
14118W        W29587   0.025   1.712   2.371 -0.2689  0.1597 -0.3270
14119W        W29588  13.532  12.996   3.898 -0.1332  0.0568 -0.1200
14120W        W29589  14.781  17.690  12.163  0.1942 -0.2699 -0.0885
14121W        W29590   9.578  13.688   0.030  0.0390  0.2028  0.3489
14122W        W29591   5.885  15.715  11.584  0.1627  0.1144 -0.1894
14123W        W29592   5.379  10.164   3.970 -0.2329  0.0745 -0.1417
14124W        W29593  10.662   3.909   3.585 -0.2755  0.0315 -0.0532
14125W        W29594   9.731  17.107  16.251  0.2246  0.0252 -0.0894
14126W        W29595   1.131  15.992  14.073  0.1150  0.1465  0.1928
14127W        W29596   8.420  11.072  12.235 -0.1962 -0.5589 -0.1881
14128W        W29597  17.059   9.130   0.923  0.0205 -0.0732  0.2114
14129W        W29598   5.006  14.049   3.506 -0.1981 -0.3772 -0.2035
14130W        W29599  16.555   9.728  11.543  0.0639 -0.0387 -0.1702
14131W        W29600   0.413   4.065   4.703  0.0971  0.0363  0.1533
14132W        W29601   3.781   6.518   3.186  0.1090  0.2889  0.1986
14133W        W29602  17.494  12.811   4.750 -0.0823  0.0480  0.2460
14134W        W29603   3.823   3.276   3.562  0.0668  0.1360 -0.0737
14135W        W29604  17.174  11.253  11.301  0.0162  0.1258 -0.0052
14136W        W29605   6.611   5.231  14.576  0.2011 -0.0198  0.2093
14137W        W29606  15.613  10.976   3.584  0.1284  0.2357  0.0026
14138W        W29607  13.499   0.058   1.341 -0.0212  0.2165 -0.1615
14139W        W29608   9.784  17.015  12.661  0.3274 -0.2294 -0.2641
14140W        W29609  15.599  16.512  12.044  0.2313  0.0166 -0.1846
14141W        W29610  17.194   0.026  14.889  0.1144 -0.2985  0.3159
14142W        W29611  11.929  16.501   4.726 -0.1218 -0.0119 -0.2468
14143W        W29612  12.110   6.641   3.999  0.0933 -0.0425  0.2126
14144W        W29613   6.503   4.581   1.665 -0.0719 -0.0125 -0.0802
14145W        W29614   9.796  13.700   6.812  0.0571 -0.2107 -0.0331
14146W        W29615   0.477  15.029  15.705 -0.5540 -0.3356  0.0353
14147W        W29616   3.808   4.181  15.572  0.1946 -0.0762  0.3312
14148W        W29617  11.079   6.093  15.400 -0.2914 -0.1551  0.1235
14149W        W29618   4.139   3.519  16.276  0.0011  0.1260 -0.0914
14150W        W29619   3.270  10.938  14.368  0.2057  0.0557 -0.1089
14151W        W29620  13.974  13.309   4.701  0.1799 -0.4051  0.1358
14152W        W29621  13.479  11.119   1.740  0.0931 -0.1253 -0.1192
14153W        W29622  12.541  11.734   0.126 -0.2309  0.1866 -0.1125
14154W        W29623   9.672   9.597   2.888  0.3190 -0.1571 -0.0965
14155W        W29624   6.671  15.552   0.222  0.0830 -0.0284  0.0573
14156W        W29625  11.396  11.589   2.675  0.1495 -0.2759  0.2110
14157W        W29626   0.018   4.250  16.347 -0.0394  0.2651  0.1009
14158W        W29627   5.559   4.144   5.417  0.1418  0.0884  0.1415
14159W        W29628   3.258  17.098   0.843 -0.0768 -0.2620  0.0885
14160W        W29629  11.342   1.367   1.721  0.0884  0.1987 -0.1286
14161W        W29630   2.855   0.001   2.417 -0.2389  0.7158  0.1281
14162W        W29631   5.363   6.756   0.663 -0.0452  0.2537 -0.0923
14163W        W29632   6.872  15.525  13.282  0.0312 -0.0155  0.0091
14164W        W29633   6.559  15.733   1.397  0.0116  0.0461  0.1639
14165W        W29634  14.551   9.017   3.576 -0.1244 -0.1582 -0.3120
14166W        W29635  14.501  15.209   1.047 -0.1884 -0.2009 -0.1318
14167W        W29636   9.885   7.504   1.712 -0.1916  0.1549  0.0164
14168W        W29637  10.836   1.847  16.425 -0.0818 -0.0504 -0.0807
14169W        W29638   3.305  14.492  10.858  0.0582 -0.0485  0.1881
14170W        W29639   5.180  11.465   5.863  0.1130  0.2198  0.1325
14171W        W29640  11.316   5.987  14.420  0.0556 -0.4150  0.0736
14172W        W29641   3.956   7.801  11.562 -0.0528  0.1284  0.0788
14173W        W29642  16.096  13.014  11.849  0.0330  0.1218  0.0532
14174W        W29643   3.763  14.533  13.478  0.0139 -0.1465  0.0399
14175W        W29644   8.167  12.448   1.801  0.0605 -0.3257 -0.3049
14176W        W29645  16.598   9.455  13.001 -0.3208  0.0143 -0.2540
14177W        W29646   3.288   6.335   1.972 -0.1478 -0.1311 -0.0082
14178W        W29647   7.803  14.399   0.396 -0.0653  0.2639  0.0135
14179W        W29648  15.855   4.683   1.875 -0.3006 -0.4502 -0.1481
14180W        W29649   5.195  11.156   0.571  0.1523 -0.0626 -0.0246
14181W        W29650   4.616   8.094   4.562  0.1182 -0.0951  0.1689
14182W        W29651   9.641   7.316   2.977 -0.3151  0.0610  0.2256
14183W        W29652  16.333  15.260   2.203 -0.0706 -0.1038  0.0816
14184W        W29653  10.635  13.976  16.029 -0.3378  0.0364 -0.1803
14185W        W29654   8.774  12.375  15.042 -0.3053  0.2994  0.0933
14186W        W29655  13.666  10.706   3.939  0.1200  0.1969  0.0950
14187W        W29656   6.008  11.650  13.884  0.1801 -0.1809 -0.1389
14188W        W29657   6.703  13.844   5.104  0.0896 -0.3026  0.0765
14189W        W29658   5.052  13.944   1.688  0.0419 -0.1097  0.2446
14190W        W29659   3.847  10.624   4.755  0.0538  0.0619 -0.1295
14191W        W29660   7.862   1.428   2.533 -0.0293 -0.1266  0.1918
14192W        W29661   0.393   1.230   1.524 -0.1116  0.0680  0.0239
14193W        W29662   9.753  12.540   0.454 -0.0001  0.1004 -0.1355
14194W        W29663  15.787  17.182  16.800 -0.1888 -0.0718  0.0913
14195W        W29664   9.485   8.525  13.528 -0.0101  0.0267 -0.3119
14196W        W29665  12.799  16.245   4.376  0.1263 -0.2590  0.1548
14197W        W29666   3.299   7.733  14.736 -0.2264 -0.1659 -0.3532
14198W        W29667   0.874   2.610  15.531  0.0050  0.2988 -0.1325
14199W        W29668  13.260  15.388  15.333 -0.0826  0.4193  0.2243
14200W        W29669   4.240   1.247  15.939  0.0926 -0.1820 -0.0062
14201W        W29670   5.989  16.887  14.426  0.0414  0.0450 -0.0614
14202W        W29671  12.502   1.776   5.337 -0.3951 -0.1496  0.2961
14203W        W29672   0.196   0.720   4.259 -0.2574  0.2275  0.1330
14204W        W29673   0.095  16.737   4.863  0.1653  0.1164 -0.0512
14205W        W29674  13.043   4.686   5.580  0.1338  0.1864  0.2018
14206W        W29675  14.093   0.822  12.719 -0.2306 -0.3113  0.1243
14207W        W29676  11.048   6.301   2.337  0.0663  0.0082  0.1373
14208W        W29677   0.028   9.688  13.294  0.1369 -0.2259  0.5061
14209W        W29678  13.562  16.263  12.517  0.3426  0.0636  0.0132
14210W        W29679  10.620  12.914  14.735 -0.0516 -0.2962 -0.1856
14211W        W29680  14.717  14.077  15.957 -0.2361  0.1416  0.2805
14212W        W29681  16.561  10.334  15.499  0.3618 -0.1274 -0.0613
14213W        W29682   1.038   7.661  16.442 -0.0204 -0.0562 -0.1195
14214W        W29683   4.843   7.491   4.053 -0.0689 -0.2058 -0.0860
14215W        W29684   1.315   4.072   4.671  0.0213 -0.1605  0.3203
14216W        W29685   5.416  13.125   6.080  0.0045 -0.1200  0.2902
14217W        W29686   5.566  17.772   4.691  0.1303 -0.3753 -0.1487
14218W        W29687  10.337  13.759  14.331 -0.3213  0.0899 -0.1288
14219W        W29688  11.364  14.371  15.613  0.3195  0.2609 -0.4257
14220W        W29689   7.490  12.348  15.743  0.0603 -0.0848 -0.0965
14221W        W29690   1.190   3.194   2.876  0.0079 -0.2267  0.0407
14222W        W29691   9.473   0.389   6.266 -0.2019 -0.0465 -0.1168
14223W        W29692  16.049   2.266   3.447 -0.1967 -0.1396  0.0607
14224W        W29693   2.183   5.711  15.373  0.0091 -0.1560 -0.1400
14225W        W29694   5.372  13.801  12.966  0.3062 -0.0490 -0.1663
14226W        W29695  12.373   2.673   1.435 -0.1719 -0.0286 -0.1139
14227W        W29696   0.900   9.602   0.753 -0.0413 -0.0064 -0.1674
14228W        W29697  14.397  10.198   2.245 -0.0008  0.2437  0.0643
14229W        W29698  11.103  17.692   5.416 -0.1795 -0.1665  0.1795
14230W        W29699   6.380  17.428   1.480 -0.0501  0.2075  0.1089
14231W        W29700  14.250  11.690   0.296 -0.1316 -0.1508  0.0228
14232W        W29701  15.232  17.255   5.028 -0.0211  0.3339  0.3188
14233W        W29702   1.968   8.665   0.610  0.0222  0.0146 -0.3008
14234W        W29703  16.543  10.197   3.970  0.0861 -0.0535  0.0110
14235W        W29704   8.498  13.676  16.651 -0.1032  0.0733 -0.0751
14236W        W29705  15.847   2.195  11.998 -0.1286 -0.0667 -0.0721
14237W        W29706  15.433   4.865   0.549  0.1631 -0.4677 -0.0590
14238W        W29707   0.538   3.292  13.314 -0.0132 -0.2425  0.1850
14239W        W29708  17.647  14.062   3.144  0.0202 -0.2899 -0.2422
14240W        W29709   8.912  17.192  12.022 -0.0965 -0.0079  0.2620
14241W        W29710  12.264  16.655  10.693 -0.0728  0.3614 -0.1786
14242W        W29711   8.392  13.509   1.995  0.0531 -0.2531 -0.0484
14243W        W29712  14.948   7.407  12.087 -0.2894  0.1889 -0.1961
14244W        W29713   4.439  13.707  12.357 -0.0467  0.2403  0.3801
14245W        W29714  14.202   8.749   3.376 -0.1001 -0.3180  0.0311
14246W        W29715  16.130  12.176  11.356 -0.1391  0.0330  0.0796
14247W        W29716  11.307   6.662  12.876 -0.4244 -0.2210  0.0318
14248W        W29717  11.390   2.463   3.200 -0.2432  0.0066 -0.0327
14249W        W29718   6.702   3.149  15.066 -0.0794 -0.0385 -0.1385
14250W        W29719  16.459   1.019   3.026 -0.1623 -0.2740  0.1340
14251W        W29720   6.379  12.867   4.777 -0.1473 -0.0919  0.1336
14252W        W29721  10.671   4.581  12.043  0.0376 -0.1054 -0.2802
14253W        W29722   1.279  17.764   3.929  0.3929 -0.0705  0.0500
14254W        W29723   8.312   3.525   4.906 -0.0805 -0.2191 -0.1717
14255W        W29724  14.757  10.958   2.469  0.1831  0.0241  0.0810
14256W        W29725  12.117  12.671   2.259 -0.5409 -0.2281 -0.3746
14257W        W29726  13.970  12.220   5.015  0.1980 -0.0609  0.0093
14258W        W29727  17.398   2.141   0.028 -0.1278 -0.1660  0.0832
14259W        W29728  15.144   0.190  14.841  0.0161 -0.1582  0.1456
14260W        W29729   2.478  16.702  12.230 -0.0654  0.0364  0.3936
14261W        W29730   0.824   6.175   5.723 -0.0658 -0.0135 -0.1929
14262W        W29731   6.040  12.203   4.412  0.1740  0.1071  0.0778
14263W        W29732  16.529   8.995  15.699  0.0268  0.0638 -0.0597
14264W        W29733   9.681  15.123   3.885 -0.1028  0.1038  0.0995
14265W        W29734   9.031  16.178   0.183 -0.3002  0.2061  0.3011
14266W        W29735  14.398  13.401  11.390 -0.3211 -0.0163  0.1509
14267W        W29736   2.613   0.467   5.208 -0.1265 -0.0199 -0.1974
14268W        W29737   2.733   8.578   2.345 -0.0023  0.1331  0.0044
14269W        W29738  10.534  17.494  13.745  0.0834  0.3530 -0.2548
14270W        W29739   1.451   0.396   2.997  0.1417 -0.1466  0.0416
14271W        W29740   8.170  13.881   3.426 -0.2269 -0.2079  0.0880
14272W        W29741  14.316  11.115   6.040  0.1768 -0.0909  0.2176
14273W        W29742  13.677   3.475   3.364  0.0104 -0.3087  0.0725
14274W        W29743  16.536   2.975   4.139  0.2199  0.1541 -0.1073
14275W        W29744   9.314  14.872   2.393  0.0486  0.2449  0.2096
14276W        W29745   9.178  16.507  13.608  0.0189  0.0200 -0.0507
14277W        W29746   9.737   3.997   2.396  0.0702  0.2132  0.1257
14278W        W29747  14.728   7.557   0.298 -0.3062  0.0599  0.0585
14279W        W29748   7.422   1.508  16.339 -0.0367 -0.0035  0.1999
14280W        W29749   2.094  12.834  15.829  0.0700 -0.2086 -0.0287
14281W        W29750  16.201  17.109  11.282 -0.2686  0.1475  0.1358
14282W        W29751  12.454  13.383  16.703  0.1305  0.1491 -0.1604
14283W        W29752  14.071  13.836   0.216 -0.1189  0.0823 -0.2602
14284W        W29753   1.430  16.180   3.978 -0.0528 -0.0629 -0.1414
14285W        W29754   2.531  11.191   0.587 -0.1086  0.0462 -0.0747
14286W        W29755  11.657   1.840  11.744  0.2854  0.2303  0.1315
14287W        W29756   1.692   3.291   2.800  0.0448  0.0870 -0.0885
14288W        W29757   4.698  13.526   4.366  0.0252 -0.1592 -0.2949
14289W        W29758  17.067   5.611   4.718 -0.3615 -0.3287  0.0369
14290W        W29759  11.401  17.021   4.286 -0.0975 -0.0506  0.0441
14291W        W29760   3.940   2.354  15.754  0.2797 -0.2213  0.0208
14292W        W29761  10.248  13.478  13.812  0.0197  0.5391 -0.3479
14293W        W29762  11.291   9.687  16.175  0.0067  0.0468  0.2254
14294W        W29763   0.830   8.386   1.050  0.0078 -0.3034  0.0737
14295W        W29764  14.918   1.756   0.904  0.1951 -0.1121 -0.2824
14296W        W29765   6.995   2.440   0.930 -0.2851  0.2627 -0.3015
14297W        W29766   3.161   8.159  14.976  0.2927 -0.0934  0.0246
14298W        W29767   0.284  14.549  13.200 -0.1840 -0.0701  0.1377
14299W        W29768   2.048   1.253   0.641 -0.1348  0.0417  0.0961
14300W        W29769  17.404  13.993  12.224 -0.2588  0.3187 -0.0135
14301W        W29770   6.077   0.863  15.121  0.0473  0.0053  0.0017
14302W        W29771  11.562  10.658   0.736  0.0417 -0.0691  0.2748
14303W        W29772  12.049   2.398  16.563  0.1783 -0.0167 -0.1531
14304W        W29773  16.548   9.666   1.420 -0.0812 -0.1320  0.2105
14305W        W29774  11.693   3.675  13.517  0.2886  0.0974  0.1951
14306W        W29775   7.288  10.347   2.197 -0.1846 -0.3003  0.0545
14307W        W29776  14.537  14.319  11.919 -0.0246  0.1073 -0.1936
14308W        W29777   0.204   7.187   5.454 -0.1138 -0.2487 -0.1260
14309W        W29778   2.161   9.679  11.684  0.1270 -0.0716 -0.0944
14310W        W29779  16.509   5.358   3.084  0.1344  0.2514  0.0971
14311W        W29780   1.690   8.448   3.348  0.0437 -0.2904 -0.0770
14312W        W29781  12.910   3.538   5.690  0.3082  0.4975  0.0061
14313W        W29782   1.187  13.341   2.093  0.0495  0.0347  0.5396
14314W        W29783   9.958  15.349  16.358 -0.1604 -0.0671 -0.3420
14315W        W29784  13.765   2.550  14.589  0.0735 -0.1439 -0.1642
14316W        W29785   2.705   5.901  13.857  0.0316  0.0386 -0.2138
14317W        W29786  17.076   4.486   0.377  0.1185 -0.0384  0.1230
14318W        W29787   7.691  11.172  13.895 -0.1573 -0.0942 -0.0057
14319W        W29788   7.208   7.995   2.847 -0.0118 -0.1662  0.1047
14320W        W29789  10.191  12.241  12.622  0.1954  0.0503  0.0459
14321W        W29790   9.557  15.355   1.703  0.1136  0.0930  0.0456
14322W        W29791   1.073   7.183   2.080 -0.1413  0.1309 -0.2380
14323W        W29792   9.221   9.429   1.925 -0.1686 -0.4720 -0.2975
14324W        W29793   0.685   4.884   4.153 -0.0144 -0.2381 -0.0004
14325W        W29794   9.684  12.720   3.199 -0.3498 -0.2077  0.1419
14326W        W29795   2.809   0.693  14.505  0.3948  0.3177 -0.0996
14327W        W29796   8.644   1.084   0.867 -0.0121 -0.1562 -0.2644
14328W        W29797   5.121   2.471  16.113 -0.1785  0.1019  0.2268
14329W        W29798   9.913   7.169   0.406 -0.2126  0.1287  0.0288
14330W        W29799  14.499   3.803   0.728 -0.0569  0.1314  0.2327
14331W        W29800   1.633   8.452  12.066  0.1706  0.1137 -0.0211
14332W        W29801   6.897   3.236   0.907  0.0343  0.3629 -0.1776
14333W        W29802   3.929   0.029  15.553 -0.3397  0.2680  0.0196
14334W        W29803   3.639   4.138   2.942  0.2796 -0.0866 -0.0431
14335W        W29804   5.600  13.257   3.395 -0.0919  0.0746  0.0786
14336W        W29805  16.989  16.340  13.365  0.1959  0.0357 -0.1397
14337W        W29806   6.795   5.311   3.637  0.2394  0.0688 -0.0299
14338W        W29807   7.127   1.233  11.796 -0.0783 -0.0886 -0.0853
14339W        W29808   3.802  14.325  14.040 -0.0396 -0.1806  0.1521
14340W        W29809   1.155   8.036  16.112  0.2440 -0.2327 -0.1569
14341W        W29810  12.593   4.091   2.029  0.0743 -0.1733 -0.1036
14342W        W29811   9.171   8.130   6.480 -0.0702  0.0567 -0.2669
14343W        W29812  16.707   4.112   4.999  0.1752  0.0703 -0.2620
14344W        W29813   7.092   4.061  13.087  0.1411  0.0948  0.2115
14345W        W29814   3.570  13.382   4.351 -0.0707  0.0323  0.3748
14346W        W29815   5.447  15.648   3.833  0.1623  0.2163 -0.1814
14347W        W29816   5.672   9.121  12.793 -0.2602  0.1498 -0.0611
14348W        W29817  11.279   6.255   1.141  0.0800 -0.0253 -0.1372
14349W        W29818  15.794   4.116   3.546  0.1854 -0.2203  0.0635
14350W        W29819  16.806  12.318  15.878  0.1801 -0.1550  0.0257
14351W        W29820   4.298  15.859   2.128 -0.1251  0.2055  0.0400
14352W        W29821   0.341  12.687  16.349 -0.1430  0.1261 -0.1623
14353W        W29822  16.617   9.676  10.969  0.2473 -0.1543  0.0479
14354W        W29823  15.776   2.645  15.518  0.0236 -0.2319 -0.0989
14355W        W29824   0.548   6.308  10.893 -0.1329  0.3657  0.0955
14356W        W29825  15.686  17.590   2.115 -0.0189  0.1196  0.3949
14357W        W29826   0.693  14.376   4.217  0.0268 -0.1708  0.0644
14358W        W29827  16.941  13.428  16.748  0.0105  0.0902 -0.2158
14359W        W29828   7.990   0.430   1.492 -0.0475  0.0313 -0.0987
14360W        W29829   4.899  16.492   2.041  0.0528 -0.0223  0.1055
14361W        W29830  14.302   5.851   0.497 -0.1267 -0.1435 -0.2751
14362W        W29831   5.631  12.160  16.750  0.1821  0.0147  0.1578
14363W        W29832  16.301  11.383   0.844 -0.0595  0.0011  0.1073
14364W        W29833   8.545   2.774  12.260  0.3268 -0.1629  0.2937
14365W        W29834  15.197   0.198  12.201  0.0277 -0.0567  0.0376
14366W        W29835  14.672  16.493   4.998  0.2403  0.1580  0.3099
14367W        W29836  13.225   8.393  13.629  0.1646  0.0237  0.1170
14368W        W29837  11.643   6.358  12.533 -0.0153 -0.3386  0.0308
14369W        W29838   3.438  13.935   3.195 -0.0007  0.1302  0.3278
14370W        W29839   6.264   0.876   4.768  0.1547  0.1012 -0.1723
14371W        W29840   0.970  16.021   5.330 -0.1279 -0.0718  0.2074
14372W        W29841  16.107  14.426  15.773  0.1541 -0.0383 -0.1496
14373W        W29842   2.991   3.549   4.284 -0.0067 -0.0121 -0.2384
14374W        W29843   9.621  11.044   3.290  0.0408  0.1256  0.2415
14375W        W29844  15.612  16.391  16.631  0.3175  0.1377  0.0553
14376W        W29845   4.919   2.530   3.678 -0.0502 -0.0075 -0.0998
14377W        W29846   9.389  15.394   3.055  0.0556 -0.0945 -0.0070
14378W        W29847   9.281   2.352   1.577  0.1618  0.0239  0.0862
14379W        W29848   4.960  11.884  14.399  0.0948  0.0537  0.2326
14380W        W29849   6.917   9.149  12.934 -0.0740  0.3117  0.0338
14381W        W29850  12.218  17.482   5.428 -0.1168  0.0643  0.4804
14382W        W29851  17.123  12.131   2.475  0.0451 -0.3886 -0.0032
14383W        W29852   8.294   0.773   1.152  0.2093  0.1328  0.1693
14384W        W29853   4.694   1.823   3.937 -0.1427  0.2469 -0.3038
14385W        W29854   6.516  14.165   6.400  0.0025  0.0740 -0.4038
14386W        W29855  11.474   1.287  14.829 -0.0127 -0.2173  0.4526
14387W        W29856   5.529  14.392  13.180  0.2830 -0.2458 -0.0745
14388W        W29857   1.102   9.061   4.639 -0.0603 -0.1870  0.0819
14389W        W29858  13.942  12.899  15.902  0.0835 -0.1202 -0.3220
14390W        W29859   2.627   8.480  11.978 -0.0168  0.2110 -0.0164
14391W        W29860   0.111   2.468  11.057 -0.0050  0.0826 -0.0113
14392W        W29861   0.539  13.051   1.033  0.3769  0.0184  0.1356
14393W        W29862   8.774  16.865  12.755  0.3131 -0.0349 -0.0529
14394W        W29863   8.822   8.551  11.101 -0.1030  0.1505  0.1394
14395W        W29864  14.133   4.921   5.030  0.0028 -0.3016  0.0295
14396W        W29865   8.038  11.454   2.641  0.1359  0.1018 -0.1473
14397W        W29866  13.973   6.502   2.710  0.2492  0.2329 -0.0645
14398W        W29867   9.357   5.787   0.733 -0.3490  0.0173 -0.0253
14399W        W29868   8.150  16.482  14.623 -0.2013  0.0889 -0.3982
14400W        W29869  17.329   4.256  16.388  0.0266 -0.0164  0.0669
14401W        W29870  12.991  12.950   0.289  0.1468 -0.0011  0.1027
14402W        W29871  15.231   8.548   2.795 -0.1279 -0.2157 -0.1624
14403W        W29872   8.859   0.227   5.146  0.0088  0.0281 -0.2277
14404W        W29873   1.766   8.601  12.787 -0.3205  0.0229  0.2671
14405W        W29874   7.885  13.341  12.026  0.3512 -0.1187  0.0970
14406W        W29875   4.336  12.603   4.213 -0.0289  0.0009 -0.1995
14407W        W29876   5.210   1.173   1.146 -0.0719 -0.0729  0.0797
14408W        W29877  12.682   8.411  13.722  0.1382  0.0478 -0.0872
14409W        W29878  13.698  14.219  12.196  0.0349  0.1079 -0.1926
14410W        W29879   3.667   8.161  11.145  0.1201 -0.3941 -0.0669
14411W        W29880  14.470  16.935   4.608 -0.0567  0.1147 -0.0049
14412W        W29881  14.170  17.234   4.236  0.3680  0.0543  0.0436
14413W        W29882   4.871   3.155  14.589 -0.3788  0.1711  0.1130
14414W        W29883  13.155   9.256   2.095 -0.1529 -0.2092 -0.3042
14415W        W29884   1.588  12.912  15.694  0.1483 -0.0201 -0.0281
14416W        W29885   7.041   9.322   4.205 -0.2205  0.3721 -0.1163
14417W        W29886   5.290   8.267   2.636  0.1606 -0.0739 -0.2278
14418W        W29887   2.220  14.785  14.572  0.0551  0.3902  0.0914
14419W        W29888   9.917  11.463  15.315 -0.0335  0.1619 -0.3203
14420W        W29889   0.951  13.924   0.377  0.3764 -0.2839 -0.0261
14421W        W29890   2.312   1.893   4.538  0.0981  0.0685 -0.1178
14422W        W29891   1.852  14.941  15.965  0.1301  0.0867 -0.1345
14423W        W29892   0.145   4.699  11.297  0.1721  0.3675  0.0785
14424W        W29893  10.787  14.821   1.369 -0.0810  0.3780 -0.4564
14425W        W29894   5.310   4.003  15.620  0.1571 -0.1261  0.3182
14426W        W29895   6.425  15.011  14.742  0.1367  0.0300 -0.1585
14427W        W29896  12.832   3.455  14.413  0.4591 -0.0747 -0.0078
14428W        W29897  16.050  13.596  14.708  0.1578  0.2271 -0.1520
14429W        W29898   1.038  15.634   4.459  0.2111 -0.0744  0.1152
14430W        W29899  17.717   6.607   2.414 -0.3337 -0.1314  0.0065
14431W        W29900  15.487  17.760  15.233 -0.0949 -0.0295 -0.2514
14432W        W29901   8.141   4.060   5.189 -0.2356  0.2106  0.1501
14433W        W29902   2.287  11.102  12.320 -0.1331 -0.0030 -0.0439
14434W        W29903   3.982   2.584   4.827 -0.1873 -0.0900 -0.0042
14435W        W29904  10.726   6.291  12.953  0.0776  0.0634  0.1745
14436W        W29905  11.246   1.648  11.951  0.1542 -0.0800  0.2323
14437W        W29906  11.189  16.400   2.025  0.1147 -0.0700 -0.2669
14438W        W29907   3.693   7.811   0.097 -0.0314 -0.1971 -0.1068
14439W        W29908   0.627  14.666  14.501 -0.1862 -0.1412  0.1501
14440W        W29909   1.499   9.133  16.777 -0.1132  0.2366  0.1677
14441W        W29910   2.204  10.345   5.223 -0.0837  0.0689  0.2395
14442W        W29911  13.654   3.253  16.567 -0.2260 -0.1605 -0.0196
14443W        W29912   8.695   2.430   3.373 -0.0466 -0.0416 -0.0544
14444W        W29913  16.776   2.485   1.162  0.1078  0.0742 -0.0822
14445W        W29914  11.854   2.245   0.184  0.2403 -0.2300  0.0022
14446W        W29915  16.554   7.957  15.676 -0.1093  0.1235  0.2335
14447W        W29916   5.697   5.130  11.214  0.2380 -0.0507  0.0566
14448W        W29917   6.612   2.669   1.350  0.0174 -0.1034  0.1178
14449W        W29918  11.796   9.972  15.925  0.2445  0.0059 -0.0542
14450W        W29919  15.282   0.537  16.240 -0.2806 -0.0232  0.0110
14451W        W29920  12.118  11.977  13.098 -0.1096  0.0863 -0.1116
14452W        W29921   7.859   3.039   3.314 -0.0110  0.1538 -0.0616
14453W        W29922  12.225  16.631   0.220  0.1812  0.1708 -0.1066
14454W        W29923  13.364   5.042   2.645 -0.1114 -0.0760 -0.1235
14455W        W29924   4.186  15.307  14.597 -0.1685 -0.0990  0.1563
14456W        W29925   6.065   1.615   1.962  0.1534  0.2262 -0.0210
14457W        W29926  12.886   9.245  13.982 -0.2286 -0.1813 -0.2814
14458W        W29927   6.496   5.897   4.433  0.2372  0.1115 -0.0133
14459W        W29928   1.768   4.399   0.256 -0.2649 -0.0049 -0.2190
14460W        W29929   5.562  13.717  15.774  0.1692  0.0212  0.0435
14461W        W29930   6.806   8.794   0.258  0.3620  0.0020 -0.1332
14462W        W29931   3.054  10.579  16.511 -0.0219 -0.0990 -0.1789
14463W        W29932  12.529  10.579   3.961 -0.1264  0.2069  0.0240
14464W        W29933   3.839  12.045   3.196  0.3991  0.0404 -0.1217
14465W        W29934   5.804  13.670  13.712  0.1298 -0.2180  0.0029
14466W        W29935  12.308   4.508   2.896  0.2187 -0.1348  0.1614
14467W        W29936  16.072   5.970  14.654  0.1064  0.0622  0.1170
14468W        W29937  13.578  15.698   0.039  0.0604 -0.1288  0.1891
14469W        W29938   4.502  17.055   3.322 -0.0280 -0.0079 -0.1983
14470W        W29939   1.263   8.750  11.636 -0.0360 -0.2218 -0.0874
14471W        W29940   5.591   3.645   5.605 -0.0835  0.2638 -0.2060
14472W        W29941   4.321   3.925  12.030 -0.0562 -0.0199 -0.4513
14473W        W29942   0.656   0.275  10.367 -0.2198 -0.2992  0.0417
14474W        W29943   9.244   0.425   3.309  0.4870 -0.2023  0.0257
14475W        W29944  11.967  13.824  16.293 -0.0010  0.1002 -0.0764
14476W        W29945   2.809   8.568  14.885 -0.0397 -0.1621  0.0813
14477W        W29946   3.861   1.938  12.468 -0.1522 -0.0241 -0.1653
14478W        W29947   0.589   8.649  12.203 -0.1181  0.0930  0.1701
14479W        W29948  14.719  15.091   0.619 -0.1479 -0.0282  0.1812
14480W        W29949   6.844  10.296   1.895 -0.1003  0.1621 -0.2365
14481W        W29950   7.786  15.637   4.866 -0.0594  0.1480 -0.1365
14482W        W29951  12.894   8.972   5.622 -0.1799  0.0764  0.3401
14483W        W29952   4.622   5.684  14.629 -0.1301  0.1576  0.3066
14484W        W29953  12.805   4.165   4.247 -0.1367  0.1292  0.3999
14485W        W29954   3.678  17.579   5.957 -0.1570 -0.0868 -0.3780
14486W        W29955  16.671  13.623   5.986  0.3363  0.0899 -0.0099
14487W        W29956   0.988  16.234   3.293  0.0405 -0.1388 -0.2246
14488W        W29957   1.776   4.014  12.266 -0.2253 -0.0536 -0.1720
14489W        W29958   1.524   0.059  14.776 -0.1131  0.0734  0.0182
14490W        W29959   4.049   4.347  12.102 -0.0305 -0.2142  0.0655
14491W        W29960   2.284  17.705   1.343 -0.1602 -0.0786 -0.0503
14492W        W29961  13.105  14.834  12.173  0.0161  0.0582  0.0818
14493W        W29962   5.881   6.151  15.286  0.1275  0.0916 -0.3899
14494W        W29963  12.085   4.915  15.552  0.0583 -0.0778 -0.0617
14495W        W29964   3.402   4.989  14.424 -0.0973 -0.0556 -0.0514
14496W        W29965   2.864   8.764   0.109 -0.0148  0.0865 -0.0805
14497W        W29966   0.837   7.595   5.005  0.0260 -0.0148  0.0216
14498W        W29967  12.587   6.958  15.908  0.1607  0.1823  0.3948
14499W        W29968   0.470   5.191  16.527 -0.3225  0.0517 -0.2580
14500W        W29969   6.034  15.524   0.574 -0.0535  0.1296  0.0351
14501W        W29970  12.326  16.151  12.422  0.0310 -0.0149  0.0312
14502W        W29971   9.213   6.713   3.980 -0.0454  0.1345  0.0373
14503W        W29972   7.263   6.907  12.253 -0.0901 -0.1696 -0.0699
14504W        W29973  11.385   3.311  14.608 -0.2802 -0.2250  0.0364
14505W        W29974   8.221   5.879   2.823 -0.0369  0.1149  0.2751
14506W        W29975   6.394  12.323  16.361  0.1267 -0.0559 -0.1364
14507W        W29976   1.437  15.681   2.000 -0.2880 -0.1037  0.2301
14508W        W29977   5.190   7.409  11.639 -0.4034  0.0279 -0.2510
14509W        W29978   5.154   1.993  12.929  0.2037  0.0270 -0.2012
14510W        W29979   0.397   1.620  11.428 -0.0377  0.2087  0.2278
14511W        W29980  14.417  14.405   6.120 -0.1972 -0.0703  0.2371
14512W        W29981   8.703   8.776  15.946 -0.2283 -0.1319  0.3127
14513W        W29982  11.433  12.345   1.447 -0.2165  0.2081 -0.0931
14514W        W29983   7.160  14.202  16.163 -0.0901  0.1225 -0.0122
14515W        W29984  17.490  15.374   0.908 -0.0734  0.1102 -0.0930
14516W        W29985   9.429   4.247   5.126  0.2230  0.0094 -0.2075
14517W        W29986   3.836   8.001   4.685  0.0948  0.0456  0.1672
14518W        W29987   2.211   8.329   3.465 -0.0579 -0.0255 -0.3032
14519W        W29988   0.803   0.560  15.008 -0.1282  0.3100 -0.2615
14520W        W29989  13.972  12.263  12.856  0.0764 -0.0397 -0.0888
14521W        W29990  12.224   5.094   1.153 -0.0017 -0.4746  0.2696
14522W        W29991   4.913  13.304  16.318 -0.3967  0.4099  0.1824
14523W        W29992  15.100  15.867  15.926 -0.1670 -0.3114 -0.1669
14524W        W29993  12.916  15.195  16.815 -0.0160  0.0935  0.2322
14525W        W29994   3.149   3.867  10.944  0.2512  0.1479 -0.1130
14526W        W29995   5.983   6.991   1.255  0.1495  0.3797  0.0646
14527W        W29996   0.595  11.684  11.696  0.1742  0.0838 -0.0166
14528W        W29997   6.873  14.078   1.156  0.0748  0.4251 -0.0099
14529W        W29998   2.893   5.916  12.041  0.0406  0.0688 -0.0114
14530W        W29999  17.210   8.079  16.470  0.2453  0.1431  0.0088
14531W        W30000  16.436  14.822   2.061 -0.1254  0.0902 -0.2092
14532W        W30001   0.002   2.999  14.680 -0.2585  0.2455  0.1461
14533W        W30002   2.899   6.697   2.063 -0.3784  0.0502  0.1054
14534W        W30003   3.252   0.863  13.745  0.0004 -0.0190  0.0554
14535W        W30004   3.478  10.040  15.123 -0.1853 -0.2699 -0.0693
14536W        W30005  13.355   5.562  13.174 -0.1159  0.4743 -0.1750
14537W        W30006  14.941  16.772   0.866 -0.2110 -0.1427 -0.1950
14538W        W30007   5.012   5.532   5.548 -0.0374 -0.0604  0.0366
14539W        W30008  12.513   7.722   3.118 -0.1628  0.1472 -0.1200
14540W        W30009   7.175   4.214  14.091  0.1502  0.2627 -0.0049
14541W        W30010   6.811   6.447  14.750 -0.1036 -0.2716 -0.0062
14542W        W30011  12.866  16.853  12.721 -0.1231  0.0038  0.0156
14543W        W30012  15.953   3.652  12.334  0.0155 -0.2233  0.2767
14544W        W30013  16.358  15.142  13.302  0.0750  0.1028  0.2329
14545W        W30014   8.641   1.199   1.360  0.1367  0.0008 -0.1163
14546W        W30015   4.968   0.361   0.411 -0.0682 -0.0742  0.0697
14547W        W30016   0.245   2.695  13.881  0.2335  0.1484 -0.0585
14548W        W30017  16.142  14.252  16.248  0.0353  0.0917  0.0743
14549W        W30018   8.342  15.360   5.241 -0.0731  0.1008  0.1001
14550W        W30019   5.541  10.237   0.164 -0.3583  0.0495 -0.0315
14551W        W30020  15.717   9.013   4.757  0.1738 -0.2144  0.1295
14552W        W30021  13.795  10.029  11.728  0.2226 -0.3605 -0.0266
14553W        W30022  13.328   4.514   1.906 -0.2451  0.1767 -0.1022
14554W        W30023  11.418   9.749  11.641  0.0384 -0.2226  0.2836
14555W        W30024   4.719   1.928   2.334  0.2866 -0.1464  0.1199
14556W        W30025   8.750   7.906   3.819  0.0414 -0.2477  0.0161
14557W        W30026   4.053  14.733  13.859 -0.0035  0.1581  0.2887
14558W        W30027   8.020  17.213   2.190 -0.1518 -0.1231 -0.2423
14559W        W30028   1.844   1.488   2.202 -0.0249  0.0980 -0.1218
14560W        W30029  13.088  17.203  14.660  0.2167  0.1386  0.1653
14561W        W30030  15.988  10.274  11.396  0.2527  0.4829 -0.1218
14562W        W30031   4.182   6.688  12.564 -0.1551  0.1699  0.3059
14563W        W30032   8.171  16.880   3.765  0.2247  0.0566 -0.2518
14564W        W30033  13.174   6.921   4.166  0.1864  0.2176 -0.1318
14565W        W30034  16.351  15.679   2.541 -0.2243 -0.2242  0.0928
14566W        W30035   3.065   1.460  16.478  0.0872 -0.0592  0.1163
14567W        W30036   9.645   2.740   4.832 -0.0948  0.0758 -0.2707
14568W        W30037   0.376  16.060  15.109 -0.0022 -0.1690  0.0003
14569W        W30038   3.645   1.777   0.519  0.0350 -0.0375  0.0013
14570W        W30039  15.485   0.298  14.472  0.0495 -0.1499 -0.1887
14571W        W30040   2.112  14.933  12.391  0.1493 -0.0023  0.0128
14572W        W30041  15.921  14.639  14.384 -0.1013 -0.0214 -0.0016
14573W        W30042  16.149  13.259   2.319 -0.2675  0.0236 -0.0754
14574W        W30043   5.442   1.426  11.820 -0.2194  0.3270 -0.2899
14575W        W30044   3.521   5.164  13.238 -0.0405  0.1702  0.4619
14576W        W30045   7.944   6.452   5.263  0.0276  0.3412 -0.0759
14577W        W30046   4.040   5.800  15.262  0.1895 -0.1227  0.2041
14578W        W30047   2.857   4.624  15.103  0.0948  0.0894 -0.1855
14579W        W30048  12.056   7.642   3.185 -0.1061 -0.1962 -0.0031
14580W        W30049  13.061  12.774   3.834  0.2546  0.0237 -0.2827
14581W        W30050  16.235   6.152   2.509  0.0824 -0.1066  0.0472
14582W        W30051   9.291  16.349  11.769 -0.0028  0.1733  0.2111
14583W        W30052   0.787  16.366  15.096 -0.3047 -0.1036  0.0491
14584W        W30053   8.497   8.283   3.282  0.0523  0.1682  0.2461
14585W        W30054  10.412   5.141  12.819 -0.1198  0.2351 -0.1679
14586W        W30055  16.023   3.321  14.951 -0.0333 -0.1973 -0.2631
14587W        W30056  12.420   0.610   4.465 -0.2480 -0.1586 -0.0342
14588W        W30057  17.131  11.987  15.596  0.1996 -0.1144 -0.0336
14589W        W30058  11.608  11.856  12.628 -0.1626 -0.2005  0.1354
14590W        W30059   6.668  12.947   3.400  0.1138 -0.1751 -0.1683
14591W        W30060   8.526  14.129  13.342 -0.3020 -0.1703  0.2291
14592W        W30061   6.066   2.988   4.383  0.2901  0.1689 -0.0852
14593W        W30062  17.773   7.659   4.508 -0.0631  0.2639 -0.1125
14594W        W30063   2.563   2.297   3.253  0.0804 -0.0323  0.1281
14595W        W30064   2.644  11.098  10.888  0.1408 -0.1558  0.2324
14596W        W30065   1.083   5.375   5.113  0.1069 -0.0751  0.0976
14597W        W30066   0.645   0.574  12.934 -0.0943 -0.1485 -0.1053
14598W        W30067  10.904   2.879  13.288 -0.0172  0.0853  0.0262
14599W        W30068  10.711   4.181   6.497  0.1485 -0.1921  0.0364
14600W        W30069  15.283   1.362   5.636  0.1326 -0.2405 -0.2120
14601W        W30070   5.906   6.974   3.537  0.0594  0.0709 -0.0977
14602W        W30071   6.241  15.775   3.329 -0.1181  0.1280  0.5626
14603W        W30072   7.559   8.044   2.495 -0.1121  0.1399 -0.0455
14604W        W30073   1.409  12.756   5.254  0.1805  0.1336 -0.1698
14605W        W30074  10.760   3.389   3.530  0.0220 -0.5179  0.2134
14606W        W30075  10.575   7.260  13.453 -0.0673  0.0347 -0.3500
14607W        W30076   8.598   7.799  15.903  0.0725  0.1192 -0.2061
14608W        W30077  11.238   5.496   4.695  0.0473  0.0149  0.2026
14609W        W30078  12.010   1.579  13.549 -0.0140 -0.0595  0.2250
14610W        W30079  11.433   3.425  13.186  0.2561  0.2513  0.0597
14611W        W30080  17.433   1.810  11.502 -0.2095  0.1357  0.2193
14612W        W30081   4.577   3.786   5.741 -0.0285  0.0781  0.2001
14613W        W30082   7.685  16.491  15.826  0.0734  0.1304 -0.1052
14614W        W30083   6.767   1.082   0.093  0.1578  0.1474 -0.2048
14615W        W30084   1.339  12.539   4.345 -0.2517  0.3208 -0.1821
14616W        W30085  17.420  16.836   0.177 -0.3457 -0.3061  0.1424
14617W        W30086   3.176  13.765   4.419 -0.1372 -0.0357  0.0174
14618W        W30087   5.154   7.830  12.024 -0.3753  0.0600  0.0773
14619W        W30088  11.201  14.493   0.333 -0.3151  0.0134 -0.3105
14620W        W30089   9.043   8.500   5.394  0.0513 -0.0127  0.0707
14621W        W30090   2.522   8.343   0.019 -0.2305  0.2062  0.1057
14622W        W30091   9.227  14.601   6.046  0.1725 -0.1839 -0.0748
14623W        W30092  13.352  15.813  13.316  0.0960  0.0514  0.0858
14624W        W30093   7.022   9.971   6.328 -0.0340  0.1779 -0.1157
14625W        W30094   8.645  16.025   4.338 -0.1166  0.3608  0.0462
14626W        W30095   3.660  15.459  16.709  0.0642  0.0001 -0.1660
14627W        W30096  15.662   4.611  12.811 -0.1197 -0.2154 -0.1353
14628W        W30097   9.915  16.029  12.896  0.2192  0.2870  0.1160
14629W        W30098   2.467   2.651   1.607 -0.1998  0.1355  0.1204
14630W        W30099  16.800   1.958   4.395 -0.1659  0.0327 -0.1856
14631W        W30100   9.926   7.228  12.888 -0.1850 -0.0816 -0.2079
14632W        W30101  13.295   6.455  15.743  0.1291 -0.2781 -0.3800
14633W        W30102   5.650   9.196   3.861 -0.2298  0.2190  0.1090
14634W        W30103   5.650   7.151   6.942  0.2053 -0.0110  0.1077
14635W        W30104   7.910   2.866   4.428  0.0396  0.1303 -0.0583
14636W        W30105   0.040  11.411  15.136 -0.3160  0.0791  0.2283
14637W        W30106   8.530  14.187  14.564  0.0087  0.0784 -0.1099
14638W        W30107   2.018  17.390  11.642 -0.2239 -0.2277  0.0785
14639W        W30108   3.263  10.608   1.650  0.1445 -0.0595  0.1503
14640W        W30109   1.283   8.739   3.118  0.1013  0.0323 -0.0483
14641W        W30110  13.626   0.285   4.463 -0.0321 -0.1510 -0.0163
14642W        W30111   0.306   2.341   5.625  0.0450 -0.5010 -0.1863
14643W        W30112  17.090   0.517   2.048  0.1989 -0.3135 -0.1952
14644W        W30113  16.485  12.084  11.651  0.3767 -0.1886 -0.2397
14645W        W30114  13.919   4.193   2.258  0.0356 -0.0219 -0.1356
14646W        W30115   3.373   2.548  14.041 -0.0699 -0.0195  0.1236
14647W        W30116  17.220  17.278   0.347  0.2626 -0.1742 -0.1675
14648W        W30117  16.882  10.564  11.106 -0.0540 -0.0371  0.1558
14649W        W30118  15.970   9.361   4.429  0.0844 -0.0159  0.6225
14650W        W30119   2.708   8.497   1.300  0.2017 -0.1211  0.0241
14651W        W30120   2.176  16.400  12.597 -0.2080  0.0757 -0.0040
14652W        W30121   0.788   2.228   1.332  0.0821 -0.1084 -0.0883
14653W        W30122   6.907  14.551   4.557  0.0471 -0.0010  0.0387
14654W        W30123   8.429   5.178  12.749  0.0559  0.1098 -0.0737
14655W        W30124  12.486   9.352  14.202  0.0975 -0.0215 -0.4190
14656W        W30125  13.580   3.769  13.336 -0.1642 -0.1182 -0.1530
14657W        W30126   8.215   4.519   4.906 -0.2985  0.1817 -0.2211
14658W        W30127   0.117   0.905  16.546 -0.1030 -0.1312  0.2759
14659W        W30128   8.389  11.911   6.052 -0.1734 -0.1445  0.2163
14660W        W30129  11.842  12.758  15.911 -0.2645 -0.1804 -0.2413
14661W        W30130   2.818  15.586   4.483  0.1158 -0.1766  0.2406
14662W        W30131   6.204   6.990  12.227 -0.0152  0.0778 -0.0125
14663W        W30132  13.444   5.470  13.948 -0.0575 -0.2618  0.0500
14664W        W30133  15.956  16.515  12.902  0.4135  0.0076  0.0081
14665W        W30134  15.705  15.080  12.340 -0.1981  0.0310 -0.0060
14666W        W30135  11.771   8.168  12.532 -0.2049  0.0025 -0.0519
14667W        W30136  13.241   9.727  15.692  0.1001 -0.0193  0.2151
14668W        W30137  16.900  16.105   4.874  0.0904  0.0071 -0.4808
14669W        W30138  14.308   5.543   3.868  0.1148  0.2378  0.0618
14670W        W30139   8.052   1.989   6.147 -0.0773 -0.1432  0.3947
14671W        W30140  14.606  12.213   0.953  0.0947  0.0671  0.1642
14672W        W30141   7.730  10.443  15.259  0.0488  0.0448  0.2831
14673W        W30142  14.004  10.685  12.908  0.3985  0.0000  0.1677
14674W        W30143   5.908   7.536   4.267 -0.0823 -0.0216  0.3498
14675W        W30144   1.195   1.333  15.119 -0.2323  0.2135 -0.3496
14676W        W30145   2.959  15.533  13.800  0.0440 -0.1055  0.0999
14677W        W30146   5.378  15.093   1.272  0.0151 -0.2553  0.0850
14678W        W30147   9.009   0.672  14.105 -0.1464  0.0863 -0.0350
14679W        W30148  12.039   8.074  12.965  0.2180 -0.1863 -0.1302
14680W        W30149   0.247   0.559  15.878  0.0705 -0.2122 -0.0298
14681W        W30150  10.320  10.491  13.542 -0.0784  0.0047 -0.1477
14682W        W30151   3.825  15.458   4.887 -0.1840  0.0160 -0.1871
14683W        W30152   1.122  12.382   4.910 -0.0500 -0.2982 -0.1071
14684W        W30153   8.815   7.926   2.965  0.2488  0.0977  0.2889
14685W        W30154   5.085  16.563  12.316 -0.1554 -0.0396 -0.3617
14686W        W30155   1.985   3.508   5.170 -0.2257  0.1825 -0.0625
14687W        W30156   0.908   0.313  10.843  0.5110  0.0455  0.1889
14688W        W30157   0.268  14.020  11.011 -0.1341 -0.1037  0.1026
14689W        W30158   2.470  10.716   1.825 -0.0727  0.1290 -0.1734
14690W        W30159   5.393  14.381  14.238  0.0413 -0.1735  0.3290
14691W        W30160   9.880   0.362  14.498  0.1416  0.0045  0.0614
14692W        W30161   7.069   5.332  14.339  0.3386 -0.0160  0.1123
14693W        W30162  16.882  12.785  11.257  0.0826  0.3153  0.1901
14694W        W30163  12.290  12.859  15.292 -0.0277  0.0271 -0.0195
14695W        W30164   2.022  11.906  11.110  0.1667  0.0366 -0.1181
14696W        W30165   4.082  13.677  14.740  0.0414 -0.0129 -0.1447
14697W        W30166  11.203  11.787   5.570 -0.0339 -0.2654 -0.0139
14698W        W30167  17.617   8.699  14.835 -0.0409  0.2588 -0.2627
14699W        W30168   2.371  17.033  13.211 -0.2682  0.1709 -0.0516
14700W        W30169  16.121   6.817  13.616 -0.0288 -0.0513  0.1835
14701W        W30170   7.371   6.993  11.733 -0.0634 -0.1317  0.2026
14702W        W30171   9.419   0.683  12.107 -0.2768  0.1431  0.2463
14703W        W30172  12.312  14.491  12.982 -0.0748 -0.0903  0.1521
14704W        W30173  15.620  13.822   3.892 -0.2240 -0.2743  0.1918
14705W        W30174   1.717   4.361   0.786 -0.3246 -0.0434 -0.0435
14706W        W30175   5.610   3.102   0.645 -0.2162 -0.1254  0.0136
14707W        W30176  14.340   6.285   1.630 -0.2872  0.1688  0.1465
14708W        W30177  14.737   8.009   1.289 -0.1473 -0.1343  0.0955
14709W        W30178   2.295  14.005  15.098  0.0115 -0.0214 -0.0034
14710W        W30179  13.449   9.730  16.557 -0.2015  0.0086  0.0534
14711W        W30180   9.991   5.561   6.039 -0.1953  0.0469  0.1826
14712W        W30181  13.093   3.792  14.136  0.0958 -0.0933  0.0164
14713W        W30182   5.135  16.102  15.634 -0.0976  0.0284  0.2320
14714W        W30183  10.257  15.031   2.212 -0.0155 -0.1657  0.0879
14715W        W30184   4.234   2.939  12.430 -0.1250 -0.0874  0.0007
14716W        W30185   5.411   4.926   0.539  0.0975 -0.2608 -0.1210
14717W        W30186   8.057   1.917  13.175  0.1691 -0.2910  0.0967
14718W        W30187  10.080   6.656  12.842 -0.0689  0.1527 -0.0250
14719W        W30188  12.556   0.133  12.592 -0.2463 -0.3537 -0.0181
14720W        W30189   3.699   8.474  12.643  0.2641 -0.0864  0.0373
14721W        W30190   5.842   5.594  15.363 -0.1163 -0.4540  0.0137
14722W        W30191  13.444   1.744   3.410 -0.3791  0.3134 -0.2039
14723W        W30192   7.277   4.748   0.147  0.0756 -0.0576  0.2841
14724W        W30193  14.182   7.429  14.993 -0.1092  0.1061  0.0066
14725W        W30194  12.846  10.811   0.726  0.0425 -0.1560 -0.2129
14726W        W30195   9.328   9.900   2.508 -0.4221 -0.0780  0.0765
14727W        W30196   9.203  10.215  16.163 -0.3570  0.0050  0.0095
14728W        W30197  12.926  13.119  16.678 -0.1444  0.1883  0.0259
14729W        W30198  13.091   7.537  14.123 -0.1925 -0.1335  0.0615
14730W        W30199   4.245   0.443   0.266 -0.0233 -0.2054  0.1146
14731W        W30200   9.220  15.857   5.098  0.2711 -0.0982 -0.1874
14732W        W30201   0.063   6.082   0.723 -0.1804  0.0629  0.1504
14733W        W30202  12.802  10.470  13.607  0.1274 -0.1916 -0.1157
14734W        W30203  10.256   6.126   0.844  0.0666  0.2265 -0.0855
14735W        W30204   0.994   4.235   1.660 -0.0226 -0.0072  0.2552
14736W        W30205  10.155  11.874  15.743  0.0829  0.1190 -0.0919
14737W        W30206  10.529  17.637  15.274 -0.4124 -0.1570  0.0791
14738W        W30207   0.458   6.451  15.856 -0.1258 -0.0838 -0.1203
14739W        W30208  17.152  15.902  16.315 -0.0948 -0.0069 -0.1285
14740W        W30209   8.351   6.075  15.550  0.0148 -0.0541  0.0032
14741W        W30210  17.220   3.619   4.347  0.2297  0.2736 -0.0088
14742W        W30211   0.575   9.443   2.704  0.2562  0.0287  0.0714
14743W        W30212  16.820  15.145  15.740 -0.1780  0.0726 -0.1050
14744W        W30213  17.660  14.360   0.959 -0.0392  0.2937 -0.1822
14745W        W30214   9.124  16.488   3.678  0.4981 -0.2280  0.1126
14746W        W30215   0.217  10.214   3.799  0.0162  0.4232  0.1268
14747W        W30216   5.238  14.743   3.483 -0.0590  0.1738 -0.0488
14748W        W30217  16.020  12.912   4.057 -0.3614  0.0394  0.2408
14749W        W30218  17.639  15.824  13.196 -0.0144  0.2135 -0.0404
14750W        W30219   5.269  12.643  12.675 -0.0104  0.1703 -0.0826
14751W        W30220   6.206  12.621   5.974  0.0020 -0.2147  0.0260
14752W        W30221  11.331   4.725   5.251 -0.4156 -0.0331 -0.0554
14753W        W30222  13.636   8.467  12.744  0.1158 -0.0787  0.1917
14754W        W30223  12.500   7.937  15.872 -0.2827 -0.1445  0.0782
14755W        W30224   8.873   7.819   4.825 -0.0760 -0.0515  0.1088
14756W        W30225   6.254   2.636  15.848  0.3351 -0.1388  0.0329
14757W        W30226   5.877   7.785  15.658  0.3633 -0.0366 -0.0050
14758W        W30227  15.461  17.516  14.092  0.2143 -0.0255 -0.1303
14759W        W30228   4.959  12.540  13.759 -0.0704  0.1178  0.0132
14760W        W30229   1.560   9.004  10.831  0.1624 -0.1582  0.0085
14761W        W30230   0.951   3.802   3.599 -0.3311  0.2561 -0.1346
14762W        W30231   0.279  13.185   2.162 -0.3668  0.1934  0.0188
14763W        W30232   5.726   5.409  14.087  0.1197 -0.0495 -0.2104
14764W        W30233   0.744  12.282  13.285 -0.0012 -0.1603  0.0553
14765W        W30234  11.564   9.067   5.443  0.2091  0.0793  0.2571
14766W        W30235   7.282  15.482   1.825  0.0597 -0.0555 -0.2856
14767W        W30236   5.891   3.671  13.418 -0.2856  0.0944 -0.1468
14768W        W30237   3.087  15.081  12.128  0.3407 -0.0742 -0.3432
14769W        W30238  16.731  15.739   4.117  0.0430 -0.0613 -0.2062
14770W        W30239  12.079   1.877   6.148  0.1493 -0.1131 -0.0230
14771W        W30240  10.395   9.082   4.834 -0.2179  0.1094  0.0775
14772W        W30241  10.771  11.817   3.314 -0.1008  0.2251 -0.1294
14773W        W30242  11.165  15.015   0.530  0.1211 -0.0209  0.0038
14774W        W30243   5.086   1.367  16.405  0.0651 -0.1322  0.2516
14775W        W30244   6.454   1.209  12.937  0.1128  0.0759  0.0027
14776W        W30245   5.116  11.397   3.388 -0.1766  0.0360 -0.1105
14777W        W30246   2.401   7.545  10.771 -0.3021 -0.2285 -0.0720
14778W        W30247   8.837   2.994   0.756 -0.0004  0.1129  0.0803
14779W        W30248   5.629   3.166   1.134  0.0137 -0.0317 -0.0246
14780W        W30249   4.822   6.034   4.718 -0.0981  0.0199  0.0447
14781W        W30250   7.468  11.509  13.028  0.0371  0.0617 -0.1323
14782W        W30251   7.944  10.422   1.602 -0.0936  0.3208 -0.3454
14783W        W30252  12.559   5.533   4.150 -0.2971  0.0750  0.1231
14784W        W30253  13.435   8.065  12.441 -0.2615  0.1766 -0.2702
14785W        W30254   2.955  13.606   3.992 -0.4594  0.0538 -0.1868
14786W        W30255  10.278  14.064   5.175 -0.2315 -0.0594 -0.0654
14787W        W30256  11.624  13.688   1.203 -0.1003 -0.0812  0.1505
14788W        W30257   5.691  10.512  13.097  0.2120  0.3172 -0.1610
14789W        W30258   8.936  16.964  15.920 -0.1624 -0.0716 -0.2241
14790W        W30259   8.216   9.947  14.197  0.3089  0.0231  0.0790
14791W        W30260  11.198   1.949  15.616  0.1520  0.1893  0.0098
14792W        W30261   9.871  17.643   2.561  0.1266 -0.0964  0.0437
14793W        W30262   3.741  16.502  12.642  0.0340 -0.0679  0.0214
14794W        W30263  12.313   1.956  13.287 -0.0304  0.0451  0.0438
14795W        W30264   2.286   9.706   4.384  0.2649 -0.0447  0.0913
14796W        W30265   4.821   8.926  15.227 -0.4682  0.1710 -0.0085
14797W        W30266   4.461   9.705   3.394  0.1035 -0.2419 -0.0249
14798W        W30267  10.148   4.322   4.435  0.0349  0.2714 -0.1532
14799W        W30268   7.565   1.823   5.927  0.2799  0.2198  0.1286
14800W        W30269   6.333   5.134  13.285 -0.2189 -0.0829  0.0384
14801W        W30270   5.129  16.079   5.740  0.1975 -0.0803  0.0051
14802W        W30271   8.353  12.921  14.294 -0.1535  0.1001 -0.0701
14803W        W30272   1.075   0.918   4.552 -0.3766 -0.0133 -0.0694
14804W        W30273   9.053   9.741  15.187 -0.1650  0.1726 -0.1093
14805W        W30274  14.420  14.430   0.026 -0.0281  0.0864  0.0363
14806W        W30275   9.921   0.803   3.037  0.1786  0.2144  0.0195
14807W        W30276  16.189  12.895   1.892 -0.2498  0.0737 -0.0781
14808W        W30277  16.018   2.684  15.971  0.0107  0.0046  0.1231
14809W        W30278  15.433   9.036  11.797 -0.4002 -0.0247  0.2999
14810W        W30279   0.548  11.759   0.977  0.2861  0.0639 -0.4150
14811W        W30280   5.546  14.399   5.192  0.1836  0.1188 -0.1820
14812W        W30281   9.687  12.635   5.840  0.0462  0.0098  0.1092
14813W        W30282  10.336   0.636  11.844 -0.0009 -0.0747  0.0830
14814W        W30283   0.388   7.765  11.840  0.2378  0.0115 -0.2692
14815W        W30284  13.626   4.757   0.982 -0.0692  0.0300 -0.2478
14816W        W30285   4.129   7.947  15.076 -0.1604  0.0672 -0.4028
14817W        W30286   7.736   1.554   2.972  0.1201  0.0057  0.0844
14818W        W30287   1.845  12.639   3.109 -0.3607 -0.3765  0.1750
14819W        W30288   2.416   8.684   2.017 -0.1844 -0.0865  0.0801
14820W        W30289  15.644   5.928  12.754  0.1538 -0.1542  0.0264
14821W        W30290  10.291  14.312   3.477  0.3695 -0.0210  0.0016
14822W        W30291   9.472   5.255   0.069 -0.3193  0.0348  0.1369
14823W        W30292   8.607   6.277   6.351  0.0486 -0.1577 -0.0248
14824W        W30293   9.488   0.883   3.341  0.0102  0.0413 -0.0476
14825W        W30294   4.052   0.540  15.720  0.0561 -0.1720 -0.0364
14826W        W30295  17.659   3.306   2.337  0.0698 -0.2495  0.3713
14827W        W30296   1.702  12.970   4.401 -0.1786 -0.0433  0.0539
14828W        W30297   0.706  16.291  12.874  0.0030  0.1500  0.0315
14829W        W30298  16.607   7.765  11.767  0.1037 -0.0111 -0.0721
14830W        W30299   4.810  17.606   5.635  0.1889 -0.0326 -0.3074
14831W        W30300  15.499  11.650  15.487  0.1202  0.0524 -0.1177
14832W        W30301  16.019   0.790  11.883  0.1679 -0.1297 -0.1546
14833W        W30302  10.452  13.211   5.062  0.0291 -0.0131  0.1450
14834W        W30303   7.039   2.342  16.748 -0.1825  0.4198  0.1249
14835W        W30304  16.952   3.651  10.290 -0.0152  0.2147 -0.1039
14836W        W30305  12.477  16.232  13.549 -0.1596 -0.0633  0.1048
14837W        W30306  13.985   1.956   5.581  0.1595  0.2716  0.0318
14838W        W30307  12.524   1.703   0.061 -0.2020  0.1153  0.2122
14839W        W30308  12.854  15.186   2.759  0.0107  0.0343  0.3439
14840W        W30309  11.550  12.455  16.175 -0.0161  0.1296  0.0686
14841W        W30310  13.607   8.192   4.390  0.1140 -0.2215 -0.1631
14842W        W30311   4.522   3.321   5.072  0.0561  0.2165 -0.0629
14843W        W30312  15.872   8.029   3.342  0.2071 -0.3343  0.0196
14844W        W30313   6.760  14.269   1.654  0.0837 -0.1548  0.1167
14845W        W30314   8.273   4.388  14.581  0.0021  0.2879 -0.0046
14846W        W30315  15.666   9.664   2.975 -0.2654 -0.2054 -0.0125
14847W        W30316  11.304  10.059   0.254 -0.3638  0.1914 -0.0750
14848W        W30317  12.706  12.798  12.754 -0.2252  0.1282 -0.0028
14849W        W30318   3.959   3.187  13.846  0.3323  0.0145 -0.1571
14850W        W30319   9.751   0.572   4.765  0.2580  0.1441  0.5376
14851W        W30320   2.463  12.662   1.712  0.2680  0.0428  0.1754
14852W        W30321  13.174  16.269  13.374  0.1270 -0.0807  0.1832
14853W        W30322  11.754   4.003   5.085  0.0598  0.1164  0.0747
14854W        W30323  14.047  15.268   5.465  0.1536 -0.0109 -0.1224
14855W        W30324   8.129  14.585  11.677  0.0286  0.0547 -0.0241
14856W        W30325  15.658   6.902  12.350 -0.2731 -0.0604  0.0572
14857W        W30326   9.255   5.839   3.096  0.4033  0.2399 -0.2186
14858W        W30327   8.641  11.192  10.779 -0.0867 -0.0712 -0.1784
14859W        W30328  13.765   7.868   0.272 -0.0895 -0.0159  0.2622
14860W        W30329  12.646   7.345  16.670  0.5131  0.1318  0.1623
14861W        W30330   6.134   8.529  14.131  0.0484 -0.0847 -0.0598
14862W        W30331   8.877  14.427   0.476  0.0293  0.1076  0.0320
14863W        W30332   9.136  15.943  13.609 -0.2657 -0.1625  0.0160
14864W        W30333   8.388  14.649  14.830  0.2676 -0.2652 -0.0349
14865W        W30334  13.421   0.930   6.099 -0.2711 -0.0484  0.1474
14866W        W30335   9.038   0.862   5.759  0.6463  0.0988 -0.2080
14867W        W30336  17.476   8.937   5.702  0.0478 -0.1745  0.1613
14868W        W30337   1.731   9.914  12.553  0.2525 -0.0401 -0.0249
14869W        W30338  17.760   0.260   2.913 -0.2478  0.4241  0.1550
14870W        W30339   0.435  17.637  14.416 -0.2213  0.0785 -0.2065
14871W        W30340   8.385  12.109   6.652 -0.2780 -0.3379 -0.0846
14872W        W30341  12.365  14.139  16.105  0.0839 -0.1669  0.1151
14873W        W30342  12.300  15.941   4.869  0.0967 -0.0580  0.1203
14874W        W30343   5.179  10.036   1.669  0.0552  0.1419  0.1269
14875W        W30344  15.786  10.112   4.952 -0.2835 -0.2930 -0.4065
14876W        W30345  12.025   8.063   0.850 -0.0196 -0.1551  0.0538
14877W        W30346  15.567  12.577  12.578  0.1489 -0.1713  0.2675
14878W        W30347  10.581  11.193   5.610 -0.4919 -0.1413 -0.3228
14879W        W30348  15.842  16.968  13.052 -0.3026 -0.2137 -0.1181
14880W        W30349   2.542  16.085  14.332 -0.1447  0.0064 -0.2743
14881W        W30350   0.133   0.409  16.644 -0.0687 -0.3928 -0.2768
14882W        W30351   3.194   2.048   3.834 -0.1292 -0.0795  0.2695
14883W        W30352  17.526   4.693   6.228  0.2375  0.0995 -0.2558
14884W        W30353   9.735   1.502  13.554 -0.2080  0.4022 -0.0173
14885W        W30354   3.422   8.456  16.410 -0.0607 -0.2802  0.2117
14886W        W30355  11.241  15.498  12.963  0.3672  0.1628 -0.2297
14887W        W30356  17.419  10.553   0.989 -0.1938  0.2413 -0.0197
14888W        W30357  10.187  17.086   4.155  0.0937  0.0715 -0.3511
14889W        W30358  10.658  11.670   1.562 -0.0363  0.2520 -0.1786
14890W        W30359  10.402   1.349  15.390 -0.2709 -0.0187  0.0066
14891W        W30360   5.669   8.976  16.751  0.0546  0.1050 -0.0044
14892W        W30361   4.168   6.303   2.046 -0.3435 -0.0196  0.4327
14893W        W30362   9.077  16.209  15.492  0.5745 -0.3151  0.2212
14894W        W30363  10.724   0.808   2.978 -0.0436  0.3007 -0.1887
14895W        W30364  11.379  14.046  13.112  0.1552 -0.1616  0.0819
14896W        W30365  10.009   6.129   2.062 -0.3830  0.1120 -0.3588
14897W        W30366   6.546  17.194  13.721  0.0555 -0.0859  0.1512
14898W        W30367  17.398  15.305  12.244  0.0127  0.0667  0.0908
14899W        W30368   3.077  13.462  12.345 -0.2033 -0.1574  0.3086
14900W        W30369   8.946   1.730   5.005 -0.1279 -0.0666 -0.1304
14901W        W30370  16.908   6.275  15.991 -0.1925 -0.1096 -0.1329
14902W        W30371   0.202   1.975  11.059  0.2975  0.2709  0.1079
14903W        W30372  14.849   9.994   0.938  0.2973 -0.3598 -0.3208
14904W        W30373   8.416   0.167   0.197 -0.1170  0.0383 -0.0593
14905W        W30374   9.960   9.251  13.611  0.0096  0.2110 -0.1875
14906W        W30375  15.585  14.002   1.304 -0.2304 -0.2804  0.1443
14907W        W30376   3.218   8.026  16.014  0.0775  0.1248 -0.1723
14908W        W30377   1.152   4.308  11.481  0.0269  0.0223 -0.1315
14909W        W30378   8.422   5.245  14.217 -0.5083 -0.0697 -0.3444
14910W        W30379  16.138   1.216   2.615 -0.0362  0.0879  0.0245
14911W        W30380   0.984   5.930  16.188 -0.1405 -0.0047 -0.2978
14912W        W30381  10.072   6.775   3.996  0.1680  0.4858 -0.1784
14913W        W30382   0.938   5.767  14.210 -0.0141  0.3851 -0.1480
14914W        W30383   3.134  16.591  14.701 -0.2224  0.4415 -0.1207
14915W        W30384  16.029  17.632   0.691  0.3215 -0.0059 -0.0165
14916W        W30385  10.214   7.583  13.298  0.0363  0.1810 -0.0935
14917W        W30386   0.520   4.707   4.821 -0.0260  0.0565  0.1780
14918W        W30387  17.041   2.943  15.223 -0.1810 -0.0400  0.3189
14919W        W30388   4.460   4.472   3.179  0.0401 -0.1792 -0.0674
14920W        W30389  13.978  15.497   0.929 -0.1899 -0.0532  0.0353
14921W        W30390  11.461   0.576  16.041 -0.1797  0.0418  0.1041
14922W        W30391   2.659  10.064  15.921 -0.4149 -0.1544  0.0519
14923W        W30392   1.517  15.560   2.866  0.3762 -0.2433  0.0071
14924W        W30393  10.576  15.136   1.801  0.0717 -0.1458  0.0122
14925W        W30394  11.083  16.528  16.493  0.0472 -0.3144  0.5955
14926W        W30395  14.032   0.954   2.459 -0.0336 -0.0663  0.2468
14927W        W30396  11.096   7.209  12.299 -0.1343 -0.0414  0.2734
14928W        W30397  10.567  14.853   3.547  0.0822  0.0010  0.0154
14929W        W30398   6.752   0.022   2.440 -0.1142 -0.0119 -0.1843
14930W        W30399  10.965   4.879   2.450  0.0579 -0.2610 -0.0232
14931W        W30400   3.371   4.785   4.810  0.1145  0.0362  0.3163
14932W        W30401  11.368  17.608   2.649 -0.2929 -0.1921  0.0383
14933W        W30402   9.962   8.715  11.819 -0.0031  0.0566 -0.0541
14934W        W30403  12.507   4.674  14.044  0.0185 -0.2264 -0.1957
14935W        W30404   3.013   6.127  12.634 -0.0119  0.0843 -0.0464
14936W        W30405   1.723   7.763   5.263 -0.1338 -0.0015 -0.1800
14937W        W30406  11.114  11.565   1.808  0.1260 -0.1163  0.0555
14938W        W30407   2.918   1.841  12.534 -0.1342 -0.0641  0.0950
14939W        W30408   8.270  10.881   5.006 -0.0234  0.0155 -0.3683
14940W        W30409  14.002   3.189   1.300  0.3589 -0.2225 -0.1625
14941W        W30410   0.360   1.445   0.994 -0.0078  0.1711 -0.0783
14942W        W30411  17.081  16.001   3.763  0.1093 -0.1991  0.0583
14943W        W30412  15.110   5.612   0.295 -0.1839  0.1336  0.0018
14944W        W30413  12.057   7.760  14.227  0.1040  0.0448 -0.2836
14945W        W30414   0.069   5.996  15.098  0.0609 -0.0654 -0.1671
14946W        W30415   4.671   3.575  16.293 -0.1719 -0.1325  0.2829
14947W        W30416  12.406   8.677  15.170 -0.1288  0.0428  0.1077
14948W        W30417  17.643   0.418  12.301 -0.0452 -0.1260  0.0473
14949W        W30418  12.297  15.063   5.103 -0.0550 -0.1234  0.0159
14950W        W30419   9.573  16.983  15.186 -0.0278  0.2458  0.1911
14951W        W30420  13.008   0.272  14.163  0.2325  0.0581 -0.0368
14952W        W30421  11.778  14.186   3.009  0.1702  0.0901 -0.1446
14953W        W30422  12.842  13.632  15.489 -0.0263  0.0121 -0.2917
14954W        W30423   7.387   3.732  13.895  0.0691  0.2160 -0.0041
14955W        W30424   4.811   1.367  16.006  0.2444 -0.0027 -0.1235
14956W        W30425   1.265  13.284  14.002 -0.2988  0.1801 -0.0919
14957W        W30426  14.623  12.246   0.430  0.2131  0.0672  0.0760
14958W        W30427   0.434  14.653  10.240 -0.1420 -0.3750 -0.0089
14959W        W30428  11.249   8.320  12.032 -0.2947  0.0908 -0.1469
14960W        W30429   4.671  14.158  12.119 -0.1450 -0.2470 -0.2265
14961W        W30430   8.810  16.472  15.913  0.1089  0.0027 -0.0006
14962W        W30431  11.972  11.524  12.800 -0.0802  0.1166  0.0584
14963W        W30432   5.281   5.593  11.741 -0.1206  0.0398  0.1583
14964W        W30433   9.446   5.782  12.256  0.2251 -0.1328  0.0046
14965W        W30434   7.402   9.181  13.542  0.0771 -0.3289 -0.1419
14966W        W30435   2.434  12.665   2.203 -0.0582 -0.0865 -0.2236
14967W        W30436  10.010  13.871   0.696  0.1787  0.0728 -0.1239
14968W        W30437   4.158  17.513   6.244 -0.0947 -0.1305 -0.1759
14969W        W30438  15.579  17.695  13.083  0.4233 -0.0519  0.0899
14970W        W30439   3.590  11.362   1.682 -0.2114 -0.2710 -0.0504
14971W        W30440   7.524  15.516   2.789 -0.0802  0.2520 -0.1765
14972W        W30441   1.540   8.648  14.824  0.2676  0.0483 -0.1063
14973W        W30442   0.632   1.531  11.884  0.0520 -0.1177  0.0654
14974W        W30443   2.791   4.075  16.812  0.1502  0.0457  0.1591
14975W        W30444   4.745  11.537   5.459 -0.3788 -0.1043 -0.1406
14976W        W30445  17.302   9.363   5.858 -0.2896 -0.0867  0.1831
14977W        W30446  12.080   9.273  16.457  0.0628  0.0523  0.0978
14978W        W30447   9.932   3.171   0.098 -0.3688 -0.0472  0.0110
14979W        W30448   9.088   4.613   2.181 -0.0617 -0.2101 -0.2544
14980W        W30449  13.718  15.215  16.131  0.1937  0.2632  0.0191
14981W        W30450  13.929  11.350   3.543  0.2350 -0.0884 -0.1912
14982W        W30451  14.715   6.463   3.530 -0.1111 -0.2228 -0.2284
14983W        W30452   9.425   3.284   1.882 -0.3102  0.1960 -0.2471
14984W        W30453  15.529   4.793  11.042 -0.2184  0.0479  0.0223
14985W        W30454  15.042  16.505  13.247 -0.1938  0.0504  0.1326
14986W        W30455   6.130  14.265  12.560 -0.1802  0.0570 -0.1481
14987W        W30456   0.662  12.394  14.249  0.1731 -0.0722  0.0766
14988W        W30457  15.732   0.550   4.782 -0.1716 -0.1258  0.2861
14989W        W30458  11.324   4.619   0.921 -0.2425 -0.3740  0.1244
14990W        W30459   7.811  10.847   5.223  0.1651 -0.3652 -0.0594
14991W        W30460   5.273   6.939   2.098 -0.0523  0.0470  0.1174
14992W        W30461   2.204  11.161  14.313  0.2525 -0.3100  0.1587
14993W        W30462  17.779   7.334  16.500 -0.0906  0.1291  0.1420
14994W        W30463   9.575  13.271   7.193 -0.2665 -0.1003  0.1524
14995W        W30464  11.372  10.138  13.641 -0.1844  0.0289 -0.0954
14996W        W30465  12.904   3.894  14.704 -0.1075  0.1952  0.0214
14997W        W30466   9.583   7.566  15.705 -0.4309 -0.0074 -0.1533
14998W        W30467   3.215  13.124  15.485 -0.1285  0.0691  0.1398
14999W        W30468   9.529  12.036  14.757 -0.1483 -0.0594  0.1325
15000W        W30469  12.505  17.396  15.151 -0.1063 -0.1350  0.1070
15001W        W30470   4.081   4.669  11.465  0.1056  0.1229 -0.3196
15002W        W30471   7.815  16.289   0.692  0.1633 -0.2435 -0.1466
15003W        W30472  12.902  16.871   1.464  0.1985  0.2146 -0.0709
15004W        W30473   8.010  16.947  11.952  0.4701  0.0096  0.2944
15005W        W30474  11.780  15.800  15.504  0.2743 -0.1523 -0.0005
15006W        W30475   6.418   3.966  12.716  0.1824 -0.0834  0.0102
15007W        W30476  15.467   4.941   3.505 -0.1863  0.1103 -0.1202
15008W        W30477   0.757  15.578   5.687  0.0207  0.4162 -0.1447
15009W        W30478   7.139   1.554   5.324  0.1128  0.0881  0.2421
15010W        W30479   7.724  16.468   2.118  0.2022  0.1806  0.0373
15011W        W30480  14.321   2.048  12.326  0.0833  0.0010  0.1982
15012W        W30481  15.783   7.872   4.384  0.0221 -0.1552  0.4487
15013W        W30482  12.318   8.028  11.687  0.0213 -0.0285 -0.4213
15014W        W30483  15.337  17.586  14.563  0.0916 -0.0093 -0.1398
15015W        W30484  10.523   6.928   3.907 -0.3501  0.0638  0.1167
15016W        W30485   8.662   6.930   2.329  0.0209  0.2502 -0.2626
15017W        W30486  13.868   9.333   0.549 -0.0884  0.2558  0.0063
15018W        W30487   2.131  14.636   4.159  0.1788 -0.0845  0.0554
15019W        W30488  17.774   2.890   0.181 -0.2500  0.0331 -0.0098
15020W        W30489  12.272   3.399  15.398  0.2674  0.1082  0.0861
15021W        W30490   0.937   7.980  13.830  0.0399  0.1052 -0.0108
15022W        W30491  16.704  17.438   4.712  0.0756 -0.0536 -0.0775
15023W        W30492  10.127  13.612  14.795 -0.0096 -0.0975  0.2069
15024W        W30493  16.560   0.732  13.571  0.0258 -0.1236  0.5147
15025W        W30494  11.750  11.056   3.400 -0.1293 -0.3063 -0.0887
15026W        W30495   2.414  15.382  13.684 -0.2256 -0.0746 -0.1440
15027W        W30496   2.675   2.759  16.064  0.2251 -0.0329  0.1203
15028W        W30497   5.448   5.579   1.147  0.2313 -0.2418 -0.2487
15029W        W30498   7.073   2.818  12.695 -0.1297  0.3274 -0.1020
15030W        W30499  12.758  16.700   0.265 -0.0029  0.3117  0.2953
15031W        W30500  16.681  16.161  13.020 -0.0270  0.0232 -0.0636
15032W        W30501   9.639  16.040   4.392  0.1642  0.2275 -0.1473
15033W        W30502  12.564  16.065  15.323  0.2987  0.0809  0.3152
15034W        W30503  13.388   8.904   3.884 -0.1240 -0.0092 -0.1359
15035W        W30504  13.374  15.658   4.902  0.0780 -0.0830 -0.0896
15036W        W30505  15.989  17.772  16.694 -0.0000  0.0220  0.1859
15037W        W30506   0.467   8.928   0.312  0.4439 -0.2276  0.2232
15038W        W30507   7.831   6.441   4.403  0.1144  0.0461  0.1056
15039W        W30508  11.547  12.275  16.696  0.2051  0.4749 -0.1188
15040W        W30509   4.140  14.849  14.362 -0.1934 -0.1346  0.0412
15041W        W30510   1.029  16.595  12.552  0.0822  0.0029 -0.1311
15042W        W30511  14.645   3.850  12.243  0.1390 -0.2007 -0.0427
15043W        W30512  16.739   0.790  15.121  0.1272 -0.2173  0.0181
15044W        W30513  11.542  11.954   5.887  0.0639  0.0826  0.0211
15045W        W30514   5.418   3.646  16.767 -0.0935 -0.0326 -0.0597
15046W        W30515   0.298   6.370   2.059 -0.0526 -0.2332 -0.0867
15047W        W30516  13.802  17.516   2.199 -0.1734 -0.1261 -0.0201
15048W        W30517   7.261   9.683  15.170 -0.0848 -0.0281 -0.1459
15049W        W30518   1.842   7.425  12.851 -0.1844  0.5565 -0.0118
15050W        W30519  16.457   5.993   4.020 -0.0309 -0.0071  0.5270
15051W        W30520   3.339  15.630   4.498  0.0935  0.1352 -0.1740
15052W        W30521   8.587   3.336   3.878  0.0139  0.0944  0.2416
15053W        W30522  12.565  14.163   4.562  0.1324 -0.0693 -0.0637
15054W        W30523   6.542   8.060   1.143 -0.1235  0.1324  0.1165
15055W        W30524   7.021   9.440  12.174  0.2501 -0.4909 -0.0040
15056W        W30525   4.881   8.094  14.644 -0.0367  0.1410  0.1289
15057W        W30526   2.541   6.138   3.190 -0.4372  0.3702  0.0863
15058W        W30527   8.864   1.827  15.552  0.2484 -0.0263  0.2202
15059W        W30528   8.444  15.044   3.110  0.2035 -0.0842 -0.0113
15060W        W30529  10.301   5.380   1.702  0.1907 -0.2789  0.4625
15061W        W30530   1.012   2.929  16.002  0.0448  0.2263  0.1024
15062W        W30531   7.056  14.575  16.780  0.0888  0.1332 -0.0267
15063W        W30532  14.033   3.333   3.749 -0.0211  0.1488  0.0330
15064W        W30533   8.428   8.890  14.208  0.1994 -0.2280 -0.1194
15065W        W30534   9.048  16.422  12.646  0.2598 -0.1443 -0.1071
15066W        W30535   9.454   6.221  13.535  0.0177 -0.1914  0.1841
15067W        W30536   4.817   9.396  15.503  0.0278  0.2022 -0.0159
15068W        W30537  13.078   0.378  16.728  0.0967 -0.0498  0.0438
15069W        W30538   4.716   8.348  16.061  0.2461 -0.1167 -0.0729
15070W        W30539  15.472  16.333  12.576  0.1422  0.2731  0.1602
15071W        W30540  12.486   4.196  14.811 -0.0988 -0.2032  0.3159
15072W        W30541   3.643  10.335   2.511 -0.0059 -0.1035  0.1023
15073W        W30542   4.782   3.840   1.204  0.0946 -0.0815 -0.0950
15074W        W30543   5.096   0.261  15.486 -0.1706 -0.0987 -0.1565
15075W        W30544  11.632  14.948  13.743 -0.2407 -0.1551  0.0974
15076W        W30545  15.004   3.481   2.668  0.2400 -0.3215 -0.0375
15077W        W30546   5.372  17.077   3.510  0.1590  0.1580 -0.2360
15078W        W30547  13.604   8.180  11.230 -0.0589 -0.0170 -0.3795
15079W        W30548   5.696   6.191  12.907 -0.3498 -0.3288  0.1023
15080W        W30549  14.758   2.673   3.877  0.1279 -0.3573 -0.0758
15081W        W30550   2.195   9.215  16.618  0.0815  0.3717  0.3046
15082W        W30551  12.784  15.248  14.496 -0.0545  0.0645 -0.0865
15083W        W30552  17.417   4.525   5.413 -0.1254 -0.1836  0.0749
15084W        W30553   7.701  10.223  12.986 -0.0567 -0.0770 -0.0640
15085W        W30554  11.047  15.022   3.413  0.1119 -0.0004  0.1788
15086W        W30555  10.368  15.811   0.557 -0.2911 -0.0030  0.0277
15087W        W30556   2.845  10.891   0.158 -0.1714 -0.0086 -0.0556
15088W        W30557  14.248   8.760  14.774  0.0972  0.1573  0.0260
15089W        W30558  17.692  13.700  14.938  0.0100  0.1688 -0.0995
15090W        W30559   1.277  10.122  11.719  0.1775  0.0995 -0.1112
15091W        W30560   9.869  14.616   4.675 -0.2853  0.0175  0.0002
15092W        W30561   3.066   5.257   2.917  0.0468 -0.1851 -0.2837
15093W        W30562   0.816   6.707   2.810  0.0262  0.2699 -0.3274
15094W        W30563   1.510  15.799  15.464  0.2651 -0.1704  0.3883
15095W        W30564  16.384   5.259  11.817  0.0242 -0.1390 -0.3438
15096W        W30565   8.797  15.808  12.833 -0.4872 -0.0224  0.0877
15097W        W30566  13.834   8.220  11.676  0.1321  0.0246  0.0031
15098W        W30567   8.581   4.383   3.046  0.1231 -0.2701 -0.1156
15099W        W30568  11.356  13.441  13.005  0.0505 -0.2425 -0.0812
15100W        W30569  11.111   3.619  14.789  0.0273  0.0033 -0.0183
15101W        W30570   6.280   8.228  14.536 -0.0503 -0.0409  0.1028
15102W        W30571  16.121  10.488  15.338 -0.1296 -0.0232 -0.0254
15103W        W30572  17.684   1.025   4.514 -0.0764  0.0404 -0.1913
15104W        W30573  14.706  10.176   1.404  0.0790 -0.3168  0.0716
15105W        W30574  14.605   0.065   1.837 -0.1551 -0.1793 -0.0283
15106W        W30575  17.712  13.547   4.023  0.0155 -0.2133  0.1398
15107W        W30576   4.109  13.093  16.548 -0.2645  0.0557 -0.2212
15108W        W30577   1.044   3.463  15.341  0.1972  0.0350  0.1785
15109W        W30578   3.663   7.388  11.480  0.3143  0.0675  0.3141
15110W        W30579   4.354   8.336   1.169 -0.1142 -0.3239  0.1187
15111W        W30580  13.468  12.366   3.769  0.1246 -0.1024  0.3727
15112W        W30581   3.383   8.117   2.923 -0.0732  0.1393  0.0690
15113W        W30582  14.739   6.733   0.056  0.0258 -0.4297 -0.0938
15114W        W30583  16.944  14.371  16.789  0.3092 -0.3020  0.0423
15115W        W30584  13.520  10.202  13.427  0.0289  0.0901 -0.0363
15116W        W30585   1.632  12.311   5.289  0.2377  0.3251 -0.0789
15117W        W30586   7.166   7.756   2.251  0.0446  0.3398  0.0577
15118W        W30587   9.680   5.068  11.649 -0.1926  0.0195  0.2574
15119W        W30588  14.936   4.871  16.616 -0.2731 -0.3088  0.0057
15120W        W30589   0.524   6.512   4.854 -0.0838  0.1184  0.0230
15121W        W30590  12.356   8.270   3.236  0.0510  0.1346  0.1669
15122W        W30591  11.190   4.734   1.706  0.0161 -0.2068  0.0896
15123W        W30592   6.064   5.261   0.570 -0.1409  0.1056 -0.0720
15124W        W30593   0.478  10.134   2.012 -0.1480 -0.2788 -0.2419
15125W        W30594  10.308   7.152   4.330  0.0848  0.1130 -0.2422
15126W        W30595   0.934   5.547  11.455 -0.1388  0.1066  0.0388
15127W        W30596   6.604  13.235   1.217  0.2082  0.1145 -0.0576
15128W        W30597   4.631   6.863   5.141 -0.2033 -0.0905  0.2402
15129W        W30598   4.645   4.643  14.209  0.0381 -0.0012  0.4138
15130W        W30599   5.953   0.568  13.632 -0.3209  0.0172  0.0353
15131W        W30600  12.577   9.277   0.521 -0.4277  0.2774  0.0974
15132W        W30601  15.979  13.648  14.124  0.3148  0.4148  0.1361
15133W        W30602   3.644  15.795  12.369 -0.1359  0.1392 -0.0995
15134W        W30603  13.665   3.527   4.498  0.4519 -0.3323 -0.0522
15135W        W30604   2.883  14.840   5.124  0.1658  0.1588  0.0743
15136W        W30605  11.436  16.078  15.642  0.2648  0.1189 -0.4353
15137W        W30606  16.636   0.784   1.992 -0.0151 -0.0422 -0.2144
15138W        W30607   5.381  10.650  15.949  0.2643  0.0573 -0.1920
15139W        W30608  16.868  14.658  14.340 -0.1243  0.1889 -0.1648
15140W        W30609  14.111  11.090  13.853 -0.1962  0.0249 -0.2699
15141W        W30610  12.329  10.475  13.477 -0.1941  0.2325 -0.1257
15142W        W30611  10.265   0.805   2.727 -0.1289 -0.2050 -0.2822
15143W        W30612  11.915   5.923  13.334 -0.1396  0.1530 -0.0360
15144W        W30613  13.315  15.033   1.168  0.0321  0.0555  0.0138
15145W        W30614   3.466   1.001  12.809 -0.0850 -0.1511  0.2679
15146W        W30615   0.115   6.650  13.275 -0.3939  0.0318 -0.1437
15147W        W30616  10.810  14.316   1.616  0.1950  0.0247  0.0255
15148W        W30617   4.279   0.954   3.712  0.4635  0.0489 -0.0340
15149W        W30618  14.093   6.123   5.290 -0.1569  0.1153  0.0132
15150W        W30619   0.356  13.064  13.675 -0.3087  0.2067 -0.2008
15151W        W30620   9.134  11.400   4.386  0.0199 -0.0400 -0.0556
15152W        W30621  13.617   8.666  11.830 -0.0620  0.1875 -0.0899
15153W        W30622   0.756   5.179   1.959  0.1389  0.2137  0.0231
15154W        W30623   6.049  17.173  16.053 -0.1070 -0.2333 -0.3277
15155W        W30624  10.263   5.521   4.561  0.2515 -0.1363  0.0075
15156W        W30625  10.647  10.437   2.865  0.1306 -0.0912 -0.0168
15157W        W30626   2.651  14.317  13.253 -0.1258  0.0780 -0.2389
15158W        W30627   3.895   8.719   1.178 -0.0326  0.3072  0.0761
15159W        W30628  14.524   7.953   0.008 -0.1763 -0.0669 -0.0924
15160W        W30629   2.529  17.451  14.174 -0.0656  0.3431 -0.1809
15161W        W30630   9.079  11.326   0.683 -0.0745 -0.0095  0.0210
15162W        W30631   1.621   9.281   2.307  0.0475 -0.0002  0.1124
15163W        W30632  11.280   5.043   4.888 -0.1288 -0.0722  0.2794
15164W        W30633  17.313  17.701  16.126 -0.3027  0.0063  0.3165
15165W        W30634   3.272  10.231  15.644 -0.2915 -0.0603  0.2165
15166W        W30635   6.179  11.736   4.342 -0.1382  0.0673 -0.0932
15167W        W30636   1.262  17.599  12.683 -0.2484 -0.0378  0.1691
15168W        W30637   3.137  12.012  13.192  0.1600  0.0799  0.1945
15169W        W30638  15.917   5.788   0.591  0.0682 -0.1263  0.1792
15170W        W30639  14.930   4.077   5.464  0.3210 -0.0424 -0.2378
15171W        W30640   2.911   4.261  11.175 -0.0518 -0.0364  0.2575
15172W        W30641   7.432   4.613  16.165 -0.1536 -0.0906 -0.1202
15173W        W30642  13.524   6.473  16.249  0.1589  0.1192 -0.1975
15174W        W30643  10.524  14.612   5.419  0.1006 -0.1014 -0.0995
15175W        W30644   4.808   0.034  16.339  0.2140 -0.0108 -0.2777
15176W        W30645   0.579   9.725   0.282  0.3200  0.1012  0.3835
15177W        W30646   8.825   5.583  14.038 -0.3931 -0.0721  0.4729
15178W        W30647   7.677  12.842   2.242  0.0899  0.2328 -0.0205
15179W        W30648  13.500   1.926   0.193 -0.2056 -0.0440 -0.0658
15180W        W30649   0.998   3.451  10.323  0.3305 -0.0717  0.0213
15181W        W30650  16.271   1.651   5.707  0.1421 -0.1795  0.0263
15182W        W30651   0.616   8.047  11.330 -0.0934  0.3704 -0.1540
15183W        W30652   9.952  16.678   2.504  0.0708 -0.0630 -0.1035
15184W        W30653  14.232   3.072  15.943  0.2287 -0.0720  0.0911
15185W        W30654  15.769  13.296   1.132  0.1818 -0.3852  0.1771
15186W        W30655   3.718   2.383  13.667  0.0749 -0.0599  0.0640
15187W        W30656   9.950   9.517   1.261  0.1736 -0.2019  0.3111
15188W        W30657   5.308  12.330   5.743  0.0286 -0.1376 -0.1346
15189W        W30658  13.475   2.692  15.831 -0.0457  0.0490 -0.0977
15190W        W30659   9.508   4.899   4.267 -0.1201 -0.1911 -0.1975
15191W        W30660   7.422   9.662  13.715  0.0948  0.1257 -0.1330
15192W        W30661   2.413   3.838   3.468  0.1268  0.1738 -0.2204
15193W        W30662   7.320   8.320   3.191 -0.0217 -0.1320 -0.3210
15194W        W30663   6.544  14.369  14.737  0.1028  0.0531 -0.0785
15195W        W30664  17.626  15.731  12.098 -0.1758 -0.0276 -0.4928
15196W        W30665   7.587  13.219   5.490  0.2779 -0.0401 -0.1991
15197W        W30666   5.531   3.878  13.625 -0.2022 -0.4237  0.0577
15198W        W30667   6.084   3.610   3.476 -0.1408  0.0105 -0.1683
15199W        W30668   8.807   3.802   2.206 -0.1020  0.1064 -0.0176
15200W        W30669   2.141  10.317  15.706 -0.2211  0.2040  0.1138
15201W        W30670   4.802   3.366   5.909  0.4208  0.0291 -0.1065
15202W        W30671   3.564  12.226   4.215  0.2717  0.3221 -0.0609
15203W        W30672  15.643   2.692  16.371  0.0044 -0.1139 -0.2169
15204W        W30673  12.243   2.346   2.815 -0.0983  0.3114  0.1848
15205W        W30674   7.392  12.278  15.135 -0.1572 -0.0582  0.0274
15206W        W30675   5.675  15.163   4.772  0.3042  0.1785  0.1991
15207W        W30676   7.573   4.548  13.440  0.1337 -0.2151  0.1503
15208W        W30677   7.948   3.598   3.255  0.2943 -0.1386 -0.0252
15209W        W30678  14.755  16.453   3.481  0.0583 -0.0243 -0.0071
15210W        W30679   8.735   9.969   3.627  0.2908  0.0803  0.0746
15211W        W30680   8.665  17.154  13.213  0.1478  0.1562  0.1231
15212W        W30681   7.890  14.973  14.781 -0.0817  0.1936 -0.0786
15213W        W30682  13.899   9.967  13.676  0.2075  0.0618 -0.2454
15214W        W30683  14.412  11.293   3.197  0.1716 -0.3475  0.2441
15215W        W30684  10.852   2.751   1.702  0.2679 -0.0447  0.0576
15216W        W30685  13.289  15.201   4.867 -0.0269  0.2865  0.0005
15217W        W30686   6.209  16.794  13.626  0.1790 -0.3139 -0.4010
15218W        W30687   7.781  11.790  11.829 -0.2042  0.1029 -0.1868
15219W        W30688  11.669   4.694   1.421  0.3700  0.0186 -0.2386
15220W        W30689  12.294   5.152   0.210  0.1487 -0.1860 -0.0239
15221W        W30690   6.525   7.897   2.580  0.0395  0.1045 -0.1660
15222W        W30691  17.539   7.593   2.904  0.0519 -0.1992 -0.0845
15223W        W30692  16.376  14.216   4.408  0.1233  0.2832 -0.0466
15224W        W30693   6.679   5.212   0.628  0.1233 -0.2589  0.0662
15225W        W30694   7.426   8.231   0.292 -0.0627  0.0186 -0.2524
15226W        W30695  12.737  10.110  12.018 -0.0482  0.0071 -0.1733
15227W        W30696   6.103   2.933  11.366  0.1882 -0.1302  0.0291
15228W        W30697   2.519   5.185   3.827 -0.0431  0.2292 -0.1551
15229W        W30698   0.020  13.902   1.233  0.2318  0.1588 -0.1729
15230W        W30699  12.466   2.670   5.623  0.0799  0.0068  0.0471
15231W        W30700   6.369  11.159  13.718 -0.2688 -0.0183 -0.2253
15232W        W30701   3.196   5.121  11.472 -0.1937 -0.0714 -0.0094
15233W        W30702   2.135  15.195  11.890  0.0694  0.0457 -0.1891
15234W        W30703   5.631  14.729  11.887  0.3511  0.0719  0.2164
15235W        W30704   1.861   6.359  13.504 -0.1698 -0.3736  0.0950
15236W        W30705   7.722   2.778   2.101  0.4238  0.1483 -0.0045
15237W        W30706  15.395  12.140   2.629  0.0382 -0.1667  0.2040
15238W        W30707  14.808  15.547  14.458 -0.0574  0.0330  0.0370
15239W        W30708   6.478  10.268  12.637  0.0981 -0.3307  0.1755
15240W        W30709   3.057   2.669   1.551 -0.2495 -0.4650 -0.3090
15241W        W30710   4.736  13.037  13.810  0.0579  0.3975  0.1180
15242W        W30711   6.647  11.528  13.503  0.1497  0.0598 -0.1494
15243W        W30712   9.635   7.332   2.076  0.1747  0.1337 -0.1736
15244W        W30713  15.407  16.652   0.615  0.0456  0.1670  0.1150
15245W        W30714  10.327  10.095   0.338  0.2661 -0.1082 -0.0693
15246W        W30715   9.936  14.444   0.114 -0.1894 -0.1508 -0.0235
15247W        W30716   5.644   0.733  11.419 -0.2153  0.1502  0.4563
15248W        W30717   7.296  12.184   6.150 -0.2244 -0.1693 -0.0592
15249W        W30718  10.223  13.736  15.852  0.3935  0.1222  0.0031
15250W        W30719   9.100   1.824   1.633 -0.2099 -0.0739  0.1491
15251W        W30720   6.478  14.157  12.175 -0.1663 -0.2835 -0.0145
15252W        W30721  11.932  12.304   2.961 -0.2428 -0.0535 -0.1943
15253W        W30722   5.625   4.937  14.185  0.1859 -0.0997  0.2863
15254W        W30723   0.024  15.782   1.816  0.0605 -0.2936 -0.1830
15255W        W30724  12.210   1.550  13.085 -0.1968  0.0062  0.1490
15256W        W30725   4.062  14.905   3.372 -0.1438  0.0397  0.0605
15257W        W30726  16.278   6.346  15.790 -0.0546 -0.1101 -0.0141
15258W        W30727  13.849  13.179  12.725 -0.3664 -0.0269  0.0117
15259W        W30728   4.199  14.295  13.473  0.2985  0.0635 -0.0466
15260W        W30729   2.471  13.665   0.046 -0.1472  0.0483 -0.1998
15261W        W30730  15.876  15.826   3.702  0.2294 -0.3087 -0.1398
15262W        W30731  13.676  13.678  14.395  0.1145 -0.0083  0.1159
15263W        W30732  14.046   7.126   0.990  0.1752  0.0276  0.1684
15264W        W30733  11.877  14.118  15.935 -0.0046 -0.0616  0.0884
15265W        W30734   4.515   3.462  15.800  0.1055 -0.1581 -0.2340
15266W        W30735  16.118  13.680  12.058  0.1878 -0.1564 -0.1274
15267W        W30736   6.230   8.573  12.107  0.0048  0.2246 -0.0451
15268W        W30737  12.637  17.227  14.205 -0.1954  0.1244  0.0211
15269W        W30738   5.396  13.512  13.952 -0.0844  0.1085  0.0274
15270W        W30739   6.878   2.071  11.903 -0.1897 -0.0144 -0.0375
15271W        W30740   4.750  17.752   5.155 -0.3406  0.1011  0.1216
15272W        W30741   3.685  13.397  11.552 -0.4520  0.0133 -0.0820
15273W        W30742  14.340   1.051   1.429 -0.1487  0.0065  0.0295
15274W        W30743  16.603  13.430   1.946  0.0083 -0.2626 -0.1099
15275W        W30744   7.172   1.871  12.611  0.0911  0.0336 -0.0631
15276W        W30745  11.746  12.051   1.697  0.0537 -0.0270 -0.2362
15277W        W30746   1.573  16.165   2.112  0.0350  0.2479 -0.1932
15278W        W30747   9.636  11.069   1.462  0.1594  0.1448 -0.1196
15279W        W30748  11.371  12.250  15.323  0.2324 -0.2245 -0.0560
15280W        W30749  15.426  15.804  16.640 -0.2624  0.0068  0.0482
15281W        W30750  17.356  12.990   3.493  0.3915 -0.0103  0.3240
15282W        W30751   5.121   7.030   3.858  0.0115 -0.0299  0.1419
15283W        W30752   3.699  13.466   3.395 -0.3279 -0.2405  0.1928
15284W        W30753  11.686  17.660   1.691  0.0606  0.1691 -0.2298
15285W        W30754   8.027   3.210   2.929 -0.0158 -0.2026  0.3626
15286W        W30755   5.153  12.657  12.159  0.1779  0.1872  0.2653
15287W        W30756   6.281  10.918   1.645 -0.0206  0.1292 -0.2562
15288W        W30757   1.098  11.540   4.878 -0.0349  0.1814 -0.0047
15289W        W30758  13.898   4.423  15.126  0.1190  0.0755  0.2374
15290W        W30759   5.224  12.363   5.225  0.2379  0.0833  0.0401
15291W        W30760   5.056  12.853  16.540 -0.1604  0.0149 -0.1216
15292W        W30761   9.261  13.971  16.233 -0.2208  0.0036  0.0338
15293W        W30762   9.763   6.541  13.326 -0.3676 -0.2528  0.0394
15294W        W30763   7.422  11.163  16.223  0.2020  0.0336 -0.2179
15295W        W30764   8.312   1.184   4.018  0.1273  0.0498 -0.1668
15296W        W30765   2.888   4.315   2.431  0.1324  0.3474  0.0145
15297W        W30766   4.223   9.190   3.411 -0.0748 -0.2063 -0.1008
15298W        W30767  10.777   1.419   0.525 -0.0561  0.0916  0.1165
15299W        W30768  10.740   9.013   2.491 -0.1448  0.0128 -0.1554
15300W        W30769  16.788  14.454  11.865 -0.0820 -0.0863  0.1840
15301W        W30770   1.406  15.006   4.154 -0.0229  0.1363 -0.3018
15302W        W30771  13.571  16.052   0.362  0.2103  0.0182  0.3226
15303W        W30772   6.074  14.567   0.943  0.0943  0.1058  0.0684
15304W        W30773   0.404  13.590  13.736 -0.2526  0.2291 -0.0812
15305W        W30774   5.747  13.280   1.832 -0.0191 -0.2356  0.0975
15306W        W30775   9.781  13.629  16.050  0.0043  0.0138  0.1344
15307W        W30776   3.426  11.300   4.263  0.0798 -0.2226  0.1025
15308W        W30777  14.707  16.182   2.921 -0.0635 -0.3285 -0.0207
15309W        W30778  16.813  16.014   5.439 -0.0293 -0.0369  0.1000
15310W        W30779   6.401   7.115  15.364 -0.0204  0.1240  0.3235
15311W        W30780  17.274  11.990   0.904  0.3154 -0.0800 -0.0447
15312W        W30781   5.585   9.881   4.304  0.0497  0.2938  0.1257
15313W        W30782   6.489   8.107  13.634 -0.0323  0.1103  0.2333
15314W        W30783   5.966  15.808   3.762 -0.0212  0.1474 -0.1273
15315W        W30784   0.880  12.046  11.905 -0.1825  0.1446 -0.1487
15316W        W30785  10.971  14.339  12.735 -0.1622 -0.3294  0.1701
15317W        W30786  17.474  11.765   2.196 -0.0536 -0.1570  0.0398
15318W        W30787   1.279  14.414  15.471  0.0119 -0.0456 -0.0840
15319W        W30788   2.326   1.672   0.117 -0.1209 -0.0023 -0.2616
15320W        W30789  14.032   4.015  13.129 -0.0363  0.0378 -0.1237
15321W        W30790   4.862  13.091  11.349 -0.1132 -0.0804  0.0149
15322W        W30791   6.211  16.489   2.801  0.4196  0.2942  0.1172
15323W        W30792  11.690  15.321  12.792 -0.0301  0.2774  0.0582
15324W        W30793   9.450  15.739   1.445 -0.0026  0.2896  0.0146
15325W        W30794   6.315   5.342   3.684 -0.1924  0.1465 -0.0620
15326W        W30795  14.507   3.567   3.912  0.4204 -0.0048 -0.0682
15327W        W30796   7.989   3.061   1.717 -0.3077 -0.0951  0.0180
15328W        W30797   8.384   6.448  14.584 -0.3242  0.2003  0.2819
15329W        W30798  10.029   7.641  16.558  0.1186  0.2537 -0.2736
15330W        W30799   8.236   6.722  15.019 -0.1943  0.1543 -0.1168
15331W        W30800  11.125  10.692  12.373  0.2361  0.0850 -0.0159
15332W        W30801   9.830  10.984  15.378  0.1140  0.1391 -0.2413
15333W        W30802   7.044   4.638   3.962  0.0164 -0.3426 -0.0507
15334W        W30803  11.024  15.209   4.945 -0.0363  0.1145 -0.0873
15335W        W30804  16.937  10.231   3.659  0.2703 -0.0178  0.5337
15336W        W30805  10.196  16.807  13.334 -0.2851  0.1402 -0.0346
15337W        W30806   5.287   3.396  11.250  0.0387 -0.1833 -0.1176
15338W        W30807   9.783  14.705   2.621  0.0166 -0.1944 -0.2188
15339W        W30808   2.586   8.593   2.815 -0.0455  0.2854 -0.0506
15340W        W30809  15.640   6.845   5.268 -0.1822  0.2804 -0.2646
15341W        W30810   3.853   9.698  12.306 -0.0028 -0.1147  0.0876
15342W        W30811  11.179  17.299  11.836  0.4916  0.2335  0.1038
15343W        W30812   0.947  11.382   1.017  0.2671 -0.1771 -0.1347
15344W        W30813   2.674   4.727  11.282 -0.0236  0.0070  0.2187
15345W        W30814   7.352   0.235   5.199  0.0429  0.2148 -0.0547
15346W        W30815  16.990   5.014  14.752  0.1370  0.2008 -0.2024
15347W        W30816   1.328  14.867   1.546  0.0419  0.1497 -0.1105
15348W        W30817  15.416   9.696   2.105 -0.0916  0.1411 -0.2038
15349W        W30818   4.440  13.135   4.294 -0.0524 -0.0414 -0.0096
15350W        W30819  13.920   2.570   4.815  0.1758 -0.2023  0.0527
15351W        W30820   3.214  13.881  13.487  0.0808  0.2134 -0.1050
15352W        W30821  15.647   8.547   4.649  0.0518  0.0342  0.1983
15353W        W30822   2.516   9.374   3.275  0.0401 -0.1077 -0.1799
15354W        W30823   4.054   2.440  13.174 -0.0711  0.0322 -0.4926
15355W        W30824  15.072   3.786   0.507  0.1361  0.1870 -0.0900
15356W        W30825  17.131   8.714  13.798  0.2403  0.1628  0.1360
15357W        W30826  16.745  16.058   1.574  0.1346  0.3302  0.2168
15358W        W30827   5.854  17.207   3.483  0.0291  0.1349 -0.1953
15359W        W30828   9.475  10.663  15.287 -0.0842 -0.1132 -0.0311
15360W        W30829  16.253   9.123   2.332  0.0338  0.2820 -0.2442
15361W        W30830   9.703   7.968   0.952 -0.0029  0.0165  0.0213
15362W        W30831  17.638  13.457   2.025 -0.0150  0.1870  0.3245
15363W        W30832   5.362  13.596  13.439 -0.1093 -0.1781 -0.2556
15364W        W30833   0.066   1.112   2.323 -0.0120  0.0996 -0.3250
15365W        W30834   0.082  15.939  11.748 -0.5792 -0.0087 -0.1545
15366W        W30835   6.543   9.086   1.383 -0.2459 -0.1153  0.2784
15367W        W30836  11.088  16.508   0.785 -0.0912  0.3735  0.0360
15368W        W30837   4.366  17.733  14.714 -0.2763 -0.2746  0.0683
15369W        W30838  17.337   9.848  13.395 -0.1023  0.0036 -0.0594
15370W        W30839  14.748   0.142  12.995 -0.3631 -0.0127  0.1322
15371W        W30840   7.710   7.943  16.119  0.1659  0.0646  0.0076
15372W        W30841  10.478   1.017  10.866  0.0553  0.0045  0.1487
15373W        W30842   2.814   7.191   1.906 -0.0351  0.0947 -0.3456
15374W        W30843   2.989   3.337   3.837 -0.0811  0.3093  0.2272
15375W        W30844   2.580   6.689  13.384 -0.1096  0.0293  0.0852
15376W        W30845   2.883  15.881  12.864 -0.1422  0.2208  0.0660
15377W        W30846  15.307   7.427   2.170 -0.1818  0.2479  0.0470
15378W        W30847  16.826  17.512  12.759  0.1334 -0.3003  0.3653
15379W        W30848  16.983  15.616   1.513 -0.0349 -0.0139 -0.0661
15380W        W30849   6.924   6.130  13.441  0.1623 -0.0415  0.1122
15381W        W30850  12.691  14.376   2.374 -0.0739 -0.2104  0.1394
15382W        W30851  15.554  12.578   5.882 -0.1823 -0.3372  0.4334
15383W        W30852   3.351  15.096  11.697 -0.2403 -0.0109 -0.1143
15384W        W30853  17.240   9.664  12.305 -0.1513 -0.0623  0.0974
15385W        W30854   8.243  11.196  15.501 -0.2590  0.1674  0.0519
15386W        W30855   2.479   4.770   1.937 -0.2197  0.2785  0.1753
15387W        W30856  15.204   6.617  12.587  0.0349 -0.1388  0.0636
15388W        W30857   5.327  14.940  12.343 -0.1858  0.1442 -0.2675
15389W        W30858  17.194  10.631  16.059  0.1577 -0.0776  0.0522
15390W        W30859   8.789   6.698  14.328  0.0219  0.1210 -0.2197
15391W        W30860   0.402   1.531  12.305 -0.0920  0.2402  0.0145
15392W        W30861  14.085   7.150  15.877 -0.0371  0.0225  0.1853
15393W        W30862   2.969   1.965   3.375  0.0299 -0.0781  0.1199
15394W        W30863   2.816   7.828  15.035  0.0187  0.0994  0.1495
15395W        W30864  13.904   1.656  15.452 -0.1551  0.2154  0.0671
15396W        W30865  16.928   3.044   3.229 -0.0749 -0.1551 -0.0072
15397W        W30866  15.143  17.086   5.517 -0.2661 -0.0865 -0.1681
15398W        W30867   5.055  15.884  16.073  0.3104  0.2680 -0.0594
15399W        W30868   4.964  16.464   4.808 -0.0680  0.1851 -0.0110
15400W        W30869   9.195   4.011   6.004  0.0913 -0.0574 -0.0211
15401W        W30870  11.750   6.543   1.544  0.4029 -0.3858 -0.1968
15402W        W30871   5.870   2.504   4.558  0.0764  0.3483  0.0819
15403W        W30872   2.739  16.411   3.324 -0.0420  0.0489 -0.0892
15404W        W30873  13.698   2.036  11.703  0.0412  0.0814  0.0443
15405W        W30874  10.375   9.901  11.630 -0.2195  0.2366  0.0982
15406W        W30875   4.741   7.309   0.178  0.1197 -0.0199  0.0178
15407W        W30876   2.631   9.327  12.259  0.0902 -0.1342 -0.1787
15408W        W30877  13.570  16.520   5.936  0.0244 -0.0399 -0.4321
15409W        W30878  11.356  11.749   0.088 -0.0974 -0.0708 -0.2177
15410W        W30879  13.152   4.941   3.831 -0.1623 -0.2634  0.1781
15411W        W30880  15.352   9.487  12.121 -0.0653  0.1490 -0.2190
15412W        W30881  15.578   3.375  13.630 -0.0840  0.1010  0.2635
15413W        W30882   5.401  13.291   0.904 -0.0256  0.0633 -0.1294
15414W        W30883  13.393  11.128  14.466 -0.0635 -0.0420  0.1637
15415W        W30884   7.410   2.509   5.313 -0.0508 -0.0290 -0.0618
15416W        W30885   8.985   0.655   6.257 -0.0072  0.0934 -0.1694
15417W        W30886  10.520  15.504  13.173 -0.4439 -0.1893 -0.1007
15418W        W30887  14.827   8.820  13.572 -0.1334  0.4374 -0.3657
15419W        W30888  15.369  17.184  12.758 -0.0308  0.1040 -0.1112
15420W        W30889   0.953  15.745  11.387 -0.1785  0.0046 -0.1162
15421W        W30890  16.484   9.307  16.445  0.0604  0.2206  0.1172
15422W        W30891  12.531   0.934   3.695  0.1766 -0.0582  0.0606
15423W        W30892   8.993  10.851   5.820  0.1093 -0.0586 -0.4860
15424W        W30893   8.967   2.241  13.673 -0.3906  0.3396  0.2679
15425W        W30894  13.223  11.279   4.278  0.0623  0.1030  0.1141
15426W        W30895   7.554   8.504   6.128 -0.0752  0.3524  0.0336
15427W        W30896  16.743  14.826   1.297 -0.0594 -0.3243 -0.0701
15428W        W30897   7.770   0.758  14.491  0.1805 -0.0199 -0.0404
15429W        W30898   6.170  13.547  14.915 -0.0880  0.1047  0.0611
15430W        W30899   7.368  10.534  12.808  0.0933 -0.1096  0.0285
15431W        W30900   5.357   1.935   0.855  0.1202 -0.1461 -0.1894
15432W        W30901  17.468  17.390  14.042  0.0305 -0.1028  0.3637
15433W        W30902  14.112  16.840  16.277  0.2454  0.1307  0.1489
15434W        W30903   6.177  13.558   5.185  0.2314 -0.4220 -0.0454
15435W        W30904   6.130  11.064   1.087 -0.0376  0.2018  0.1786
15436W        W30905   3.092   0.570  11.567  0.3627 -0.0377  0.1329
15437W        W30906   0.224   5.951  11.135 -0.1426  0.1601 -0.0394
15438W        W30907  15.445  14.520   3.198 -0.2032  0.2855 -0.1166
15439W        W30908   7.360   3.423   5.256 -0.1404 -0.0435 -0.2352
15440W        W30909   5.837   8.282   5.586  0.0772 -0.2339  0.0623
15441W        W30910   3.019   4.737   2.741 -0.3097  0.3998 -0.1785
15442W        W30911   6.535   5.993   3.066  0.1638 -0.0693  0.0996
15443W        W30912   0.707   3.670  13.010  0.0253 -0.3436  0.2103
15444W        W30913   6.136  11.098  12.283 -0.3344  0.0802 -0.0365
15445W        W30914   3.551   5.355  11.771  0.0546 -0.0021  0.0048
15446W        W30915   0.334   8.047   1.526  0.0575 -0.0212 -0.0188
15447W        W30916   0.101  14.913   2.624  0.2537 -0.1685  0.1381
15448W        W30917  16.526   2.137   3.558 -0.2225  0.1190  0.2161
15449W        W30918   4.878   0.536  16.385 -0.0483  0.1874 -0.0869
15450W        W30919  10.094  16.706   3.806 -0.0683 -0.0305  0.2565
15451W        W30920   0.602   3.959   2.560 -0.0550 -0.1117  0.0789
15452W        W30921   5.860   6.515   1.006 -0.1603 -0.1186 -0.0664
15453W        W30922  12.696  16.261  11.975 -0.3856  0.1075  0.2677
15454W        W30923  10.796   6.976   4.380 -0.0837  0.0122  0.0523
15455W        W30924   2.512  16.228   5.603  0.0993 -0.1918  0.2598
15456W        W30925   5.508   0.422   2.346  0.0546  0.1992  0.1054
15457W        W30926   5.502  12.208  12.125 -0.1676  0.0832 -0.0850
15458W        W30927  11.482   5.999   3.003  0.1706 -0.1278  0.1447
15459W        W30928  16.602   4.232   0.974  0.1244 -0.2182 -0.2281
15460W        W30929   1.557  11.267  12.932 -0.0348 -0.0163 -0.0639
15461W        W30930   3.208  13.932   1.048  0.2356 -0.0780  0.2163
15462W        W30931  11.838   7.760  13.306  0.4072 -0.0263  0.0804
15463W        W30932  15.982  13.249  16.100 -0.0819  0.0949  0.1035
15464W        W30933   3.765  11.847   1.743  0.0310  0.3630  0.0856
15465W        W30934   8.411  17.571  16.699 -0.0953 -0.0118 -0.1202
15466W        W30935   1.282   0.912   2.981 -0.0003 -0.0536 -0.3675
15467W        W30936  14.829   7.314   2.469  0.0080  0.0954 -0.3067
15468W        W30937   3.534   3.499  14.371  0.0732 -0.1479 -0.3308
15469W        W30938  12.730  10.996   5.407  0.3339  0.0790  0.1773
15470W        W30939  11.438   9.195  13.817 -0.0643 -0.0428  0.1577
15471W        W30940  11.099  10.271   5.103  0.0619  0.0857 -0.1505
15472W        W30941  12.866   8.991   4.675 -0.1946 -0.1003 -0.1905
15473W        W30942   9.896  16.478  14.427  0.1869 -0.0742 -0.0602
15474W        W30943   9.822   7.039   6.099  0.1587 -0.1654 -0.0370
15475W        W30944   7.408  12.253   0.016 -0.3671  0.2851  0.1558
15476W        W30945   4.456   2.334   0.464 -0.2893  0.0010  0.0273
15477W        W30946  15.021   8.117   4.853 -0.1156 -0.2215 -0.0866
15478W        W30947   6.815  15.013   2.928  0.0792  0.2520  0.1204
15479W        W30948   8.910   4.577   2.698 -0.0987  0.1180 -0.1573
15480W        W30949  14.481  11.905   4.682 -0.0359 -0.0174 -0.0284
15481W        W30950   3.460   9.895   4.303 -0.3354  0.0244  0.0525
15482W        W30951  11.323  15.008  12.927 -0.2546  0.0889  0.0292
15483W        W30952   8.319  12.664  13.883 -0.0025  0.0038  0.0367
15484W        W30953   6.414   4.931   3.245  0.0615 -0.0095  0.2130
15485W        W30954  13.350   6.239  12.049 -0.5936  0.0040 -0.1088
15486W        W30955   1.476   4.254   2.621  0.1516  0.0549 -0.1125
15487W        W30956  11.482   6.457   2.722 -0.0836 -0.1242 -0.2141
15488W        W30957  15.725   2.663   3.690  0.0694  0.1777 -0.0091
15489W        W30958  10.182  10.228   2.681 -0.1793  0.0720 -0.2137
15490W        W30959   1.317   8.134   3.170 -0.1721  0.2462  0.1988
15491W        W30960   1.421   6.733  14.057 -0.0296  0.1140 -0.0428
15492W        W30961   3.217   8.642  15.155 -0.1617  0.1885  0.2929
15493W        W30962  15.949   2.149   1.672  0.0733  0.0984  0.0002
15494W        W30963   2.486   6.851  11.898  0.1834 -0.2631 -0.0973
15495W        W30964   3.695  16.538   1.349  0.0447 -0.2079  0.1440
15496W        W30965   2.234   4.168   1.306 -0.0674  0.1818 -0.0668
15497W        W30966   1.822   9.680   2.617 -0.1137  0.2321  0.2760
15498W        W30967  12.644   9.429  11.229 -0.1736  0.0736 -0.1319
15499W        W30968   2.786   0.802  11.854 -0.2742  0.3301  0.2861
15500W        W30969  12.717   1.394   3.551 -0.0631 -0.3427 -0.2487
15501W        W30970   9.884  13.008  13.953  0.0197 -0.0630  0.2502
15502W        W30971  10.520  11.981  16.577  0.1508  0.0811  0.1963
15503W        W30972   5.663   4.830  14.743  0.3254 -0.1073 -0.2189
15504W        W30973   4.608  13.633  13.273  0.0907  0.0652 -0.1261
15505W        W30974   5.321   5.444  15.875 -0.0536  0.3176  0.1072
15506W        W30975  16.617  12.722   4.873 -0.0547  0.3519 -0.0645
15507W        W30976   1.517   2.755   2.788 -0.2717  0.0218  0.0798
15508W        W30977   7.479   3.381  15.047 -0.1878 -0.4452  0.1114
15509W        W30978   3.702  13.826   4.591  0.1978 -0.1276 -0.0568
15510W        W30979   7.605  14.609   2.214  0.1436  0.0899  0.0852
15511W        W30980  10.063  17.508  15.120 -0.0929  0.2525  0.0914
15512W        W30981  13.861   0.904   1.559  0.0700  0.1443 -0.2481
15513W        W30982  13.240   3.558   5.339 -0.0534  0.2458  0.2703
15514W        W30983   5.314  12.080   1.474 -0.0291  0.1634 -0.1054
15515W        W30984   8.414  14.410  14.160  0.1539 -0.0100  0.0506
15516W        W30985   6.861   2.020  10.767 -0.2958 -0.2126  0.2176
15517W        W30986   3.189   3.274  13.401  0.1391 -0.2204  0.1444
15518W        W30987  11.470  17.221  11.435 -0.2313 -0.0190  0.0537
15519W        W30988   0.033   0.714  14.579 -0.3905  0.0253  0.0281
15520W        W30989  17.730   7.882   4.975 -0.0479  0.1846  0.1992
15521W        W30990  12.608   6.857  16.470  0.0127  0.1269 -0.0798
15522W        W30991   1.102  10.458  15.034  0.0859 -0.1013  0.2373
15523W        W30992   2.323  12.550  10.389  0.2868  0.2698  0.4122
15524W        W30993   8.626   5.944  13.004  0.0871  0.0900 -0.0210
15525W        W30994   8.583  15.735   6.145  0.0001  0.1975 -0.1034
15526W        W30995  12.149   8.507  11.664 -0.1057  0.1352  0.1531
15527W        W30996   2.735   9.314   2.818 -0.0024  0.0095 -0.0568
15528W        W30997   8.731   9.291  12.400 -0.1510 -0.1327 -0.1948
15529W        W30998   1.063   1.132   0.662 -0.4911 -0.1568 -0.0778
15530W        W30999   3.515  13.754  12.353  0.0122  0.3687 -0.2199
15531W        W31000   7.128  13.583   4.365 -0.0953  0.0528  0.1300
15532W        W31001   4.257  16.832  13.512 -0.0061 -0.0704  0.1812
15533W        W31002   6.268  17.185  12.278  0.2790 -0.0810  0.1424
15534W        W31003  12.929  13.590  16.740  0.1444  0.0416 -0.0277
15535W        W31004  10.342   9.344   2.692  0.0431  0.3284  0.0808
15536W        W31005  14.558   8.786  15.123 -0.0755  0.1408 -0.0150
15537W        W31006  16.071   3.829  13.848 -0.0639 -0.1448 -0.1279
15538W        W31007   8.533   8.153  14.898  0.0195 -0.1439  0.2499
15539W        W31008  14.405  15.410   2.781  0.1325 -0.0236 -0.1476
15540W        W31009  10.301  17.512   3.545  0.1051 -0.1846  0.0613
15541W        W31010   9.876   8.613   2.452 -0.0518  0.2692 -0.1061
15542W        W31011   0.511   4.450   4.370 -0.3822  0.0083 -0.2660
15543W        W31012   9.048  13.165  15.188  0.3044 -0.1449 -0.0611
15544W        W31013   8.529   2.803   1.765  0.0438  0.1289  0.1527
15545W        W31014   0.751   8.728  11.661 -0.1907 -0.0640  0.1398
15546W        W31015   3.488  10.689  16.696 -0.2252  0.1919  0.2112
15547W        W31016   1.849   1.364  11.134  0.0078 -0.1270  0.1827
15548W        W31017   0.647  15.413   0.761 -0.0116  0.2226 -0.2570
15549W        W31018   0.575   3.136  12.835  0.1193  0.1280 -0.0058
15550W        W31019   6.799   1.480   1.087 -0.0314 -0.1938 -0.1614
15551W        W31020   2.868   7.811   3.988  0.1548 -0.1174 -0.3147
15552W        W31021  12.024  16.590  16.584  0.3256  0.1542  0.0256
15553W        W31022  11.132   1.095   2.066  0.1912  0.0136  0.0266
15554W        W31023  14.452   2.751   1.972  0.3529 -0.2753 -0.1415
15555W        W31024   8.404   7.293   4.400  0.1610  0.1020 -0.1830
15556W        W31025  15.590   2.672  13.902 -0.1142  0.0396  0.0928
15557W        W31026  17.270   3.803  13.399  0.0052 -0.2111  0.0162
15558W        W31027  12.348  16.095   6.049 -0.1417 -0.1544 -0.1306
15559W        W31028   1.288   8.351  15.124  0.0614 -0.1425 -0.0974
15560W        W31029   3.783   5.171   5.124  0.1756  0.3399 -0.2146
15561W        W31030   1.202   4.637   2.673  0.2941 -0.0041  0.1473
15562W        W31031  17.234  14.541  14.996 -0.1581  0.0405 -0.0156
15563W        W31032   8.191   2.717   3.607  0.0117 -0.1898  0.1246
15564W        W31033   9.282   6.313   0.631 -0.0724  0.2297  0.1981
15565W        W31034   2.608  14.529   1.602  0.1799 -0.1465  0.1204
15566W        W31035  12.163  10.182   0.123 -0.0800  0.3131 -0.1238
15567W        W31036  17.153   6.757  12.138 -0.0149 -0.0208  0.1063
15568W        W31037  12.844   7.467   0.856  0.1658 -0.1658 -0.0512
15569W        W31038  13.611  12.903  12.383 -0.0265 -0.0548 -0.1925
15570W        W31039   5.771   3.252   3.361  0.0418 -0.0548  0.0913
15571W        W31040   6.324   3.038  16.751  0.1042  0.4966  0.1789
15572W        W31041  11.988   7.556   1.076 -0.0686 -0.0134  0.2971
15573W        W31042  13.916   8.722   5.543  0.2051  0.0122 -0.2611
15574W        W31043   8.942  10.808   0.500  0.1238 -0.2225  0.0934
15575W        W31044   5.149  14.267  15.240  0.1386 -0.0047  0.2536
15576W        W31045   1.328   9.531  12.742 -0.0852 -0.0851 -0.0476
15577W        W31046  10.028  13.371  14.324  0.1097 -0.2158  0.1218
15578W        W31047   1.680   6.462  12.350  0.0760  0.2540 -0.0076
15579W        W31048   3.173  16.131   0.550 -0.2125 -0.2119  0.3375
15580W        W31049   5.205   8.868  16.472  0.0520  0.2119 -0.1059
15581W        W31050  14.906   2.446   0.292 -0.3738 -0.1590  0.3317
15582W        W31051  11.065   5.189  12.516  0.0109 -0.2600  0.2045
15583W        W31052   4.127  16.923   2.494 -0.0225  0.1496  0.1338
15584W        W31053  15.317   1.625   1.190 -0.1201 -0.0913  0.4230
15585W        W31054  14.605  16.185   1.310  0.1571 -0.2936  0.1788
15586W        W31055  11.446  17.628   2.102  0.2799 -0.0357 -0.0194
15587W        W31056  15.961  14.487  14.972 -0.1717  0.3366 -0.0885
15588W        W31057  15.693  12.780  16.550 -0.1631  0.1729 -0.0277
15589W        W31058  12.296   8.148  11.155  0.0178  0.1458  0.0263
15590W        W31059   4.962  17.084   3.123 -0.0634 -0.1410 -0.0189
15591W        W31060   6.160   6.020   1.301 -0.0096 -0.2827 -0.3741
15592W        W31061   2.039   8.814   3.394  0.0474  0.0492 -0.1083
15593W        W31062   9.644  10.520   1.003 -0.0237 -0.1924 -0.1776
15594W        W31063  13.585  13.611   3.068 -0.1228  0.2508  0.4308
15595W        W31064   0.514   3.658   5.100  0.0682 -0.1889  0.2944
15596W        W31065   0.738   3.291   9.922 -0.1983 -0.1559  0.1940
15597W        W31066   0.048  11.990   1.592  0.1853  0.0223  0.1172
15598W        W31067   8.794   3.205  14.157 -0.0065 -0.1317 -0.2239
15599W        W31068   7.338   7.627   5.699 -0.3205 -0.0532 -0.1574
15600W        W31069   4.547   6.388   4.447  0.0442  0.1859  0.2210
15601W        W31070  15.056  11.402  16.803  0.1786  0.0963 -0.1557
15602W        W31071   6.018   5.549  10.918 -0.0092  0.6414  0.0752
15603W        W31072   3.959   6.862  15.968  0.0784  0.0569 -0.0660
15604W        W31073   7.806   8.327  13.664  0.0643  0.0338 -0.1964
15605W        W31074   5.240  16.273  10.597 -0.1756 -0.2441  0.0737
15606W        W31075  15.875  11.022   3.160 -0.0278 -0.3377  0.0013
15607W        W31076   4.074   0.447   1.090  0.1742 -0.0949 -0.3490
15608W        W31077  14.812   1.118  12.090 -0.1834  0.0591  0.2125
15609W        W31078   1.952  11.630  16.541  0.2985 -0.0517 -0.1410
15610W        W31079  13.613   6.948   2.897 -0.0325 -0.0393 -0.1291
15611W        W31080   6.863   1.468  12.732  0.5583  0.1936 -0.1982
15612W        W31081   0.351   6.006  14.042 -0.0150 -0.0450 -0.2544
15613W        W31082  10.183  11.998   4.632  0.1842 -0.2890 -0.1382
15614W        W31083  14.338   0.156  12.399  0.2816  0.1653  0.2627
15615W        W31084   7.055   4.171   0.004  0.0617  0.1216  0.1145
15616W        W31085   1.768  15.384   1.869 -0.2141  0.3386 -0.0774
15617W        W31086   2.459  11.453  15.019 -0.1154 -0.1179  0.0643
15618W        W31087  15.762   1.861   3.588  0.0103 -0.0216 -0.1465
15619W        W31088  17.289  15.811   5.060 -0.0867 -0.1855  0.2604
15620W        W31089  13.484  15.659  16.058 -0.2156  0.2210 -0.1657
15621W        W31090   6.068   8.740   0.591 -0.3004 -0.0739  0.0560
15622W        W31091  11.764  13.494  15.302  0.1372  0.2225 -0.0640
15623W        W31092  10.517  10.725   1.341 -0.1159 -0.1868 -0.0520
15624W        W31093   0.970  10.641   0.161  0.2232 -0.3421  0.1788
15625W        W31094   4.388   8.696  11.156  0.0879  0.0548  0.0427
15626W        W31095   3.466  12.899  13.071 -0.0154  0.2645 -0.0742
15627W        W31096   4.713  15.601   0.223 -0.3255 -0.0271  0.0227
15628W        W31097  10.513  13.253   5.565  0.1857  0.0963 -0.2090
15629W        W31098  13.968   1.122   0.977 -0.0130  0.2732 -0.2171
15630W        W31099  17.706  15.317   1.927  0.1180  0.1400 -0.0076
15631W        W31100   7.208   8.860   3.141 -0.2754  0.1438  0.0746
15632W        W31101   4.297   6.778   4.794  0.3237 -0.3017 -0.1285
15633W        W31102   2.788   7.223  12.105  0.0146  0.0292 -0.0956
15634W        W31103   0.665  15.119  15.219  0.2282  0.0038  0.0388
15635W        W31104   9.896   6.960   1.759  0.0775  0.0096 -0.3924
15636W        W31105  13.210   4.059   6.002  0.1190 -0.1911 -0.1438
15637W        W31106   5.549  11.907   5.959  0.2743  0.3241  0.1133
15638W        W31107   3.028   7.208  13.883 -0.0216  0.2386  0.0711
15639W        W31108  11.378   2.192   6.203  0.1351 -0.0410  0.0604
15640W        W31109  11.358   9.357   4.992  0.1415  0.1229  0.0376
15641W        W31110  16.253   1.705   0.856 -0.1031 -0.2651 -0.0313
15642W        W31111   2.388   8.899  13.759  0.1372 -0.2248 -0.2250
15643W        W31112  12.309   1.405  15.127 -0.1589  0.0024  0.0666
15644W        W31113   1.175   9.973   2.134 -0.0647  0.0116 -0.1881
15645W        W31114   9.418  13.033  16.083 -0.2390 -0.2355 -0.2590
15646W        W31115  15.926   2.056  16.429  0.2344 -0.3412  0.2021
15647W        W31116  14.924   3.620   3.110 -0.2476  0.1847 -0.0671
15648W        W31117  12.542  17.524   3.929  0.0920 -0.2958 -0.2303
15649W        W31118   3.434   1.092  14.918  0.2085  0.3596 -0.1433
15650W        W31119  13.395   8.871  13.644  0.2944 -0.1713  0.0133
15651W        W31120  11.741  16.181   4.362  0.0954  0.0551  0.3005
15652W        W31121   5.591  10.420   4.329  0.2362  0.0760 -0.0031
15653W        W31122   6.302   5.750   0.527 -0.2414  0.2155  0.0462
15654W        W31123   2.646  14.206  12.195 -0.1068  0.1901  0.1744
15655W        W31124   4.216  13.973   0.852 -0.1265  0.0189  0.0790
15656W        W31125   3.305  16.181  11.455  0.2383 -0.1571 -0.0968
15657W        W31126  11.302   6.872  11.958 -0.0806  0.0776 -0.2592
15658W        W31127   5.872   2.929  12.044 -0.2409  0.1084  0.2909
15659W        W31128   6.938   4.428  16.050 -0.0828 -0.0365 -0.1842
15660W        W31129  16.756   7.960   1.462  0.0031  0.1709  0.1196
15661W        W31130   0.318  16.693  14.215  0.0823  0.3447  0.2028
15662W        W31131   0.851   9.255  14.795  0.2848 -0.1513 -0.1267
15663W        W31132   4.307  10.412  11.707 -0.1028  0.0477 -0.0407
15664W        W31133  10.046   7.012  15.088 -0.3143 -0.2717  0.2593
15665W        W31134   2.748   7.523   0.420  0.0483 -0.1966 -0.0195
15666W        W31135  17.120   5.134   4.472 -0.0118  0.0093 -0.2835
15667W        W31136  12.663  12.751   1.443  0.2780  0.0715  0.2667
15668W        W31137  10.118  15.055   4.872 -0.0712 -0.0910 -0.2475
15669W        W31138   3.780  16.931   0.919  0.4072  0.1034 -0.1618
15670W        W31139  14.030   1.379  11.157  0.2016  0.0901  0.2089
15671W        W31140   9.399  11.320  13.284 -0.0812  0.0385 -0.1444
15672W        W31141  10.100   7.212   2.466 -0.1731 -0.1258  0.3553
15673W        W31142   7.623  12.522   1.788 -0.0738 -0.4397 -0.0089
15674W        W31143  13.621   8.335   0.159  0.0188 -0.2866  0.0741
15675W        W31144  10.619  17.511  16.246 -0.0463  0.1116 -0.0263
15676W        W31145  12.326  17.094   3.953  0.2331  0.1679 -0.1791
15677W        W31146   7.456   7.313  11.256  0.0089 -0.1163 -0.0474
15678W        W31147  10.430  16.802  12.006  0.0582 -0.0097  0.1723
15679W        W31148   6.550   9.354  16.037 -0.2120  0.2066  0.0806
15680W        W31149   0.736   4.618  16.614 -0.1091  0.1690  0.0820
15681W        W31150  16.013  12.547   1.586  0.0053 -0.1643  0.1310
15682W        W31151  12.726  14.703   2.794  0.0873 -0.1447 -0.1354
15683W        W31152  16.120  12.940   1.255  0.0433 -0.1439  0.0332
15684W        W31153  15.318   1.433  10.851 -0.2047  0.0014  0.1942
15685W        W31154   1.606  16.289  14.362 -0.1569 -0.1759  0.0933
15686W        W31155  15.799  10.249   2.778 -0.1482 -0.0264 -0.1036
15687W        W31156   2.779   1.116   0.746 -0.0782 -0.1359  0.0501
15688W        W31157   1.640   6.498  15.149  0.0246  0.1708  0.2402
15689W        W31158  17.649  11.569   2.596  0.0686 -0.0008 -0.0628
15690W        W31159   7.472   2.232  12.703 -0.1566 -0.0903  0.0082
15691W        W31160  17.191   9.555  15.247  0.1011 -0.1615  0.0558
15692W        W31161   7.774   8.380   2.172  0.0619 -0.0509 -0.1577
15693W        W31162   2.904   5.043   0.161  0.0183  0.1633 -0.0558
15694W        W31163  15.861   4.931   0.917  0.1740 -0.0297  0.1183
15695W        W31164  13.786  15.364  14.006 -0.1960 -0.0803  0.0211
15696W        W31165  11.013   2.786   4.266  0.1614  0.0965  0.2736
15697W        W31166  16.442   2.527  11.143 -0.2040  0.0096 -0.2464
15698W        W31167  11.651   2.518   4.973 -0.0638 -0.0319  0.0977
15699W        W31168  10.809   2.963  12.756 -0.1846  0.0570 -0.0521
15700W        W31169  11.278   5.146  13.172  0.0219  0.2859 -0.2188
15701W        W31170  11.743   3.763  14.041 -0.0389 -0.1108  0.3077
15702W        W31171  16.748  11.615   3.085 -0.0888 -0.0834  0.1749
15703W        W31172   8.385   5.166   0.086 -0.4233 -0.2413  0.0873
15704W        W31173  16.190  12.720  14.439 -0.0523 -0.1478  0.1852
15705W        W31174  14.454  17.508   0.809 -0.1475 -0.0490  0.0879
15706W        W31175  17.234   0.260  13.490  0.0669  0.1279 -0.1499
15707W        W31176   3.410  15.103  10.420 -0.0728  0.0401  0.2609
15708W        W31177   6.318  11.781   2.715  0.0468  0.2650  0.0027
15709W        W31178   9.306   2.670   6.078 -0.2788  0.2534 -0.3212
15710W        W31179  13.210   2.631  14.812  0.1790 -0.1772  0.1180
15711W        W31180   6.477  11.257   2.656  0.2229 -0.3345 -0.0109
15712W        W31181  13.715   9.377   1.093  0.1635  0.1151 -0.0386
15713W        W31182   8.147  12.995  12.340  0.0987  0.0753  0.0574
15714W        W31183   9.813   6.077  16.618 -0.3148  0.1044 -0.1954
15715W        W31184  10.257   2.090   1.187  0.1137 -0.2571 -0.0170
15716W        W31185   8.081   4.937   3.199  0.0659  0.0054 -0.1774
15717W        W31186   9.917   0.334   0.473  0.3617 -0.1905  0.1443
15718W        W31187   9.045   4.151   1.916  0.0001  0.0095  0.1296
15719W        W31188   4.113   9.519  10.555 -0.0551 -0.0389  0.2340
15720W        W31189  14.318   5.845   3.432 -0.1076  0.2026  0.0027
15721W        W31190   2.468  11.053  16.024 -0.2130 -0.0135  0.0803
15722W        W31191   2.120   0.223  10.175  0.1206 -0.2189 -0.0095
15723W        W31192   3.960  10.489   5.251  0.2645  0.1578  0.1721
15724W        W31193  10.302   0.582   0.961 -0.1804  0.1404  0.0755
15725W        W31194   0.043  17.635  15.372 -0.3525 -0.3681  0.1453
15726W        W31195   8.483  12.212  12.541  0.1227  0.0096 -0.0412
15727W        W31196   8.401   8.605   0.932 -0.0813 -0.0432  0.3079
15728W        W31197  13.990   6.746   3.231 -0.1068  0.3916  0.0812
15729W        W31198   2.644   3.891   1.267  0.0701  0.3010  0.2377
15730W        W31199  14.452  10.387  14.327 -0.3250 -0.3621 -0.2811
15731W        W31200   4.974  12.891   1.726 -0.2388  0.0793 -0.0019
15732W        W31201   6.110  12.971  11.693  0.0769  0.0149  0.2107
15733W        W31202   9.858  11.845   2.798  0.1119 -0.0633 -0.4543
15734W        W31203   1.114   9.801  10.851  0.1352 -0.0924  0.1231
15735W        W31204  13.603  15.828  15.249 -0.1755 -0.2122  0.3439
15736W        W31205  16.802  17.177  14.423 -0.0668 -0.1473 -0.0614
15737W        W31206  16.619  17.183   1.753 -0.0931 -0.2105 -0.0193
15738W        W31207   5.586  17.389   5.037  0.0190  0.2006  0.0252
15739W        W31208  14.866  13.269   5.307  0.0726 -0.0194 -0.1324
15740W        W31209  16.995  11.141  13.235  0.0605  0.0415  0.2256
15741W        W31210  15.596   4.860  14.657 -0.3504  0.1778 -0.0689
15742W        W31211  12.870   9.273   5.167 -0.1111 -0.0416 -0.0331
15743W        W31212   0.401   1.948   5.217  0.0497 -0.0496 -0.1134
15744W        W31213  11.875  14.962  14.677  0.1328  0.0631 -0.1128
15745W        W31214  12.764   7.409   2.794  0.1642 -0.1163 -0.2465
15746W        W31215   4.362  10.380  12.181  0.0003 -0.1479  0.0772
15747W        W31216  11.302   5.110   4.305  0.0988 -0.2781  0.0382
15748W        W31217   1.803  13.545   1.311 -0.0763 -0.0603 -0.0072
15749W        W31218  11.414  12.110   2.548 -0.3077 -0.1019  0.1460
15750W        W31219   2.902   8.987   3.168 -0.3022  0.0522 -0.0880
15751W        W31220   7.306  14.951  12.769 -0.0986 -0.0196 -0.0451
15752W        W31221   4.313   9.423  11.086  0.2399 -0.1421 -0.2874
15753W        W31222   3.892  14.078   1.877  0.0458  0.3701 -0.1224
15754W        W31223  12.522  11.412   1.529 -0.0936  0.3044 -0.2820
15755W        W31224  12.951  14.666   3.233  0.0214  0.3800 -0.1856
15756W        W31225  11.301  15.425   0.028  0.1374 -0.0177 -0.1094
15757W        W31226   9.675  10.151   2.824 -0.1343  0.0009 -0.2176
15758W        W31227  13.146  12.750  12.416  0.0249 -0.1193 -0.3012
15759W        W31228  15.213  17.776  16.162 -0.0969  0.0491  0.1000
15760W        W31229  10.956   3.242  13.737  0.0312  0.1358 -0.0998
15761W        W31230   7.355   5.514   0.349 -0.0731 -0.2075 -0.3638
15762W        W31231  15.406   1.445  11.365  0.0959 -0.0547 -0.2468
15763W        W31232  12.747   6.434  16.811  0.1373 -0.0051 -0.0185
15764W        W31233   9.086   2.263   4.896 -0.1575 -0.1585  0.1814
15765W        W31234   1.137   6.038   0.691 -0.1461 -0.2827 -0.1648
15766W        W31235   2.189  17.323   2.512  0.0002  0.0587  0.0149
15767W        W31236   2.695  15.581   2.580 -0.0043 -0.0170 -0.3026
15768W        W31237  16.213  12.082  12.739 -0.0495  0.1400 -0.0294
15769W        W31238  17.510  10.064  12.546 -0.0113  0.1143 -0.1923
15770W        W31239   1.244  16.496   2.344  0.1234 -0.0375 -0.1295
15771W        W31240   8.753   1.198  12.727 -0.4335 -0.1277  0.3958
15772W        W31241   6.613   9.200  11.015 -0.3242  0.0803 -0.2837
15773W        W31242  15.004   7.152   0.232  0.1559 -0.2721 -0.2099
15774W        W31243   6.736   5.964  13.024 -0.2101  0.2112 -0.3600
15775W        W31244  11.201   3.230  15.122 -0.0538  0.0437 -0.1380
15776W        W31245  16.891  17.542   1.477 -0.0888  0.0915 -0.1349
15777W        W31246  10.454  14.853  15.754  0.2623  0.0687  0.1054
15778W        W31247   9.751  13.003  12.603  0.2508 -0.2285 -0.1505
15779W        W31248   9.883   4.907   3.932  0.1619 -0.0636 -0.2893
15780W        W31249  12.830   2.569  14.330 -0.1867  0.2636  0.1644
15781W        W31250  11.908   8.588  15.873  0.1231  0.1231 -0.0476
15782W        W31251   2.121   1.350  14.833 -0.2432  0.2283  0.0902
15783W        W31252  11.225  17.039  16.786 -0.0554  0.3006  0.1542
15784W        W31253   4.543   9.408  12.099  0.1090  0.0476 -0.2791
15785W        W31254   9.058  12.823  16.539  0.0291 -0.1761  0.0078
15786W        W31255  13.755   0.556   3.605 -0.1185  0.1989  0.0896
15787W        W31256  14.646  13.794   0.866  0.0635 -0.0563  0.0760
15788W        W31257   3.531  15.865   4.942  0.1781 -0.1248 -0.0270
15789W        W31258   4.982   6.157  11.302  0.1272 -0.2093  0.0977
15790W        W31259  10.802  15.283  15.589 -0.1518 -0.2205 -0.1231
15791W        W31260  14.927  15.134  11.631  0.1529 -0.0318  0.0066
15792W        W31261  16.478  15.580   1.676  0.0294 -0.0536 -0.0496
15793W        W31262   5.046  11.931   1.042  0.3062  0.1449  0.1436
15794W        W31263  10.143   7.010  13.278 -0.1813  0.0976 -0.0525
15795W        W31264  17.353   8.588  15.702 -0.1985  0.0755  0.2280
15796W        W31265   3.740  10.210  12.363 -0.1222  0.0413  0.1058
15797W        W31266   6.774   4.377   6.107 -0.0513  0.1724  0.0306
15798W        W31267   4.245   5.138   2.512 -0.1514 -0.3684  0.2435
15799W        W31268   6.427   9.346  13.009 -0.1714 -0.1102 -0.1612
15800W        W31269   0.440   4.622   0.602  0.0465  0.0094 -0.2514
15801W        W31270   8.805   2.188  14.689  0.1145  0.2979 -0.1666
15802W        W31271  15.611  12.004  15.901  0.0346  0.1207 -0.0219
15803W        W31272  14.993   8.867   3.888  0.3054 -0.2283 -0.0072
15804W        W31273  11.783  12.659  15.259  0.1434  0.1068  0.0669
15805W        W31274   0.180  17.711   4.462 -0.2058 -0.2562  0.2723
15806W        W31275  13.236   0.867   4.231  0.1517 -0.2573  0.1104
15807W        W31276   2.165   0.955  16.450 -0.2185 -0.0481  0.3077
15808W        W31277   9.262   7.913   5.837  0.1712 -0.0653  0.0242
15809W        W31278  16.449  11.866  11.098  0.0668  0.0048  0.0170
15810W        W31279   4.084   9.247   0.077  0.1534  0.0055 -0.0217
15811W        W31280   2.784   9.763   3.547  0.2120  0.2037 -0.0816
15812W        W31281   5.472  10.927  14.712  0.0211  0.0779  0.2560
15813W        W31282   6.104  17.032  15.441  0.4225  0.2963 -0.1329
15814W        W31283   2.656  11.462   4.588 -0.0522  0.1575  0.1957
15815W        W31284   8.304  17.628  12.197  0.1297  0.0343  0.3802
15816W        W31285   6.520  15.371   4.384  0.1926 -0.2813 -0.3245
15817W        W31286   8.965  15.624   2.784 -0.0902 -0.0070 -0.1471
15818W        W31287  13.835  11.878  13.703 -0.1190 -0.0743  0.2923
15819W        W31288  16.057  14.817   4.173  0.0700 -0.0082 -0.1268
15820W        W31289   6.405   9.096   0.497 -0.1501  0.1597 -0.2027
15821W        W31290   3.668  12.306  11.803  0.0525  0.1284 -0.0450
15822W        W31291   1.526   4.908  14.517  0.0135  0.0061  0.0098
15823W        W31292  14.835  10.948  12.699 -0.0521 -0.0243 -0.0131
15824W        W31293  11.655   5.321   5.098 -0.1639 -0.2200  0.0367
15825W        W31294  12.404   5.025   6.244  0.3282 -0.1644 -0.0150
15826W        W31295   3.407  12.435  11.381 -0.1785 -0.0890 -0.1462
15827W        W31296  10.690   4.207   4.428 -0.1258 -0.0586 -0.1802
15828W        W31297   3.547  15.819  11.127  0.0611 -0.2393  0.3159
15829W        W31298   9.578   3.748  12.042  0.2486 -0.0037  0.0519
15830W        W31299  12.753  12.582  11.245 -0.0309  0.1278  0.1101
15831W        W31300   8.327   6.954   0.265  0.4669  0.0927 -0.0697
15832W        W31301  12.328   5.736  16.699 -0.2286 -0.0913 -0.1619
15833W        W31302   8.324  10.185   1.350 -0.0667  0.1557 -0.1306
15834W        W31303  10.781   7.468  12.709  0.0567  0.2919 -0.2206
15835W        W31304  13.039  11.479  13.199  0.0849  0.1050 -0.5246
15836W        W31305   5.182   4.521  14.486 -0.0051  0.2648 -0.1479
15837W        W31306   1.425   6.614   2.155  0.0663  0.0928 -0.1012
15838W        W31307  11.012  15.772   5.127 -0.0334 -0.3320 -0.0839
15839W        W31308   7.861   5.114   0.050  0.1257  0.0056 -0.0012
15840W        W31309  10.876   8.915  14.699 -0.0105 -0.1251 -0.3157
15841W        W31310  13.791  16.856   0.992 -0.1651 -0.0448 -0.0898
15842W        W31311  16.543  12.079  16.247 -0.0974 -0.1919  0.1403
15843W        W31312  10.257   3.991  16.410 -0.2856 -0.0626  0.0813
15844W        W31313   0.318  12.098   0.656 -0.1105 -0.1527 -0.0889
15845W        W31314  14.159   7.487  12.117  0.2881 -0.2444 -0.1615
15846W        W31315  14.388  10.986  16.239  0.0853 -0.0176  0.1019
15847W        W31316   9.740   3.578   1.684  0.1092  0.1832  0.1903
15848W        W31317   2.190  10.178  13.481  0.1303  0.0515 -0.0380
15849W        W31318   4.793   9.705   1.771  0.0360 -0.1278  0.2821
15850W        W31319   3.310  10.301  14.755  0.0111 -0.2297  0.0542
15851W        W31320   5.211  17.175   4.410  0.0708  0.0358  0.0286
15852W        W31321   6.539  13.659   2.970 -0.1420 -0.0924 -0.0933
15853W        W31322   7.102   0.873   3.144 -0.0881 -0.1329  0.4302
15854W        W31323  16.732   4.017  12.131 -0.0682 -0.1708 -0.0067
15855W        W31324   5.180  17.050  13.901 -0.3904 -0.0651 -0.2594
15856W        W31325   5.001   6.312   0.042 -0.1967 -0.0831  0.1178
15857W        W31326   0.184   8.583   1.748  0.2275 -0.0644 -0.0791
15858W        W31327  14.827  13.473   0.203 -0.0100  0.1194  0.2249
15859W        W31328  10.629   7.560   0.734 -0.0624  0.0794 -0.1807
15860W        W31329   1.794  12.587  16.717 -0.1710 -0.0084 -0.0574
15861W        W31330   5.419   0.108  12.686 -0.0131  0.1568  0.1354
15862W        W31331   1.638   7.107   2.788 -0.3277  0.0669 -0.4104
15863W        W31332  12.397  16.859   0.682  0.3326  0.0401 -0.0840
15864W        W31333   4.265  17.502   3.372  0.0103 -0.1185  0.1829
15865W        W31334  10.100   7.156  16.756  0.0011 -0.1190 -0.1256
15866W        W31335   2.004  10.334  10.777 -0.0947 -0.1678  0.2166
15867W        W31336  12.069  13.686  14.431 -0.1653 -0.1252  0.1256
15868W        W31337  12.781  10.308   0.632 -0.0105  0.0744 -0.0145
15869W        W31338   1.226  13.684  13.619 -0.0947 -0.1428 -0.0494
15870W        W31339   5.861  13.057  16.579  0.1713  0.0248 -0.1153
15871W        W31340   9.438  12.548   1.530 -0.2174 -0.0534  0.2512
15872W        W31341   7.013  10.425  12.457 -0.0306  0.5107 -0.0738
15873W        W31342  15.489  12.477   5.388 -0.0262 -0.1806 -0.0849
15874W        W31343  15.226  17.170  13.772  0.1198  0.1666 -0.1828
15875W        W31344   9.969   8.389  13.612 -0.3735  0.2723  0.2602
15876W        W31345  13.285   2.184   5.334 -0.0851 -0.0260 -0.1336
15877W        W31346  16.492   1.660   5.220 -0.1613 -0.1539  0.1197
15878W        W31347  13.263   3.453   1.186 -0.1175  0.0146  0.4605
15879W        W31348  11.780   9.399   3.453 -0.0262  0.0303  0.0963
15880W        W31349  15.258  15.452  14.679 -0.4445  0.1874 -0.0243
15881W        W31350  15.569  12.070   0.363 -0.1210  0.2263 -0.0536
15882W        W31351  13.458  10.004   6.283  0.2046  0.0170  0.2141
15883W        W31352   5.317   2.014  16.162  0.0186  0.0833 -0.1107
15884W        W31353  15.589   0.490  11.473 -0.0139 -0.1110 -0.0816
15885W        W31354   2.909   7.030   0.707 -0.0970 -0.2816 -0.0841
15886W        W31355  12.075  10.645  13.074  0.0298  0.0265  0.0210
15887W        W31356   6.716   3.392   2.708 -0.1738 -0.0150 -0.1702
15888W        W31357  13.387  11.293  16.078  0.0271 -0.0122  0.0729
15889W        W31358  14.454   9.936  11.956 -0.1040  0.0994  0.0257
15890W        W31359  14.661   1.462  16.300  0.0232 -0.0813 -0.0822
15891W        W31360  11.901   0.107   6.828  0.1067 -0.0882  0.0093
15892W        W31361  12.860  14.635  11.296 -0.1753  0.1493 -0.0744
15893W        W31362   2.175  15.575  11.548 -0.0475 -0.3635  0.1381
15894W        W31363   7.246  11.942   2.980  0.2343  0.0929  0.2283
15895W        W31364  11.019   5.346   2.561 -0.2355  0.1104 -0.1168
15896W        W31365   6.152  17.013   0.326 -0.1177  0.2237 -0.3407
15897W        W31366  11.620  11.300   2.958  0.1653  0.4027 -0.1323
15898W        W31367  17.499  12.510  14.353  0.0748  0.3035 -0.0680
15899W        W31368  15.301   5.762   3.596  0.0170 -0.1888  0.2209
15900W        W31369   0.084  15.453  15.641 -0.0962 -0.0890 -0.2562
15901W        W31370  13.201  13.644   4.400  0.0986 -0.1658  0.0819
15902W        W31371   8.228  12.235   2.328  0.1467  0.1909  0.1205
15903W        W31372  11.367  16.700  15.224 -0.0268 -0.2790 -0.1167
15904W        W31373  12.557   6.399   6.321  0.0577 -0.1672 -0.1559
15905W        W31374   6.469   8.938   1.853  0.5732 -0.1407 -0.2148
15906W        W31375  11.740   2.708  12.849 -0.0616  0.1761 -0.2961
15907W        W31376   2.383   3.519   0.299 -0.0383 -0.1579  0.0834
15908W        W31377  12.898  14.012  14.176  0.2831 -0.0555  0.0588
15909W        W31378  17.364  15.281  15.753  0.0822  0.1131 -0.1561
15910W        W31379   1.089  11.787  10.960  0.2136  0.0115  0.1080
15911W        W31380  12.596  12.479  11.782  0.3556 -0.0416 -0.2464
15912W        W31381   4.944   7.933  16.047  0.0210 -0.1361  0.0632
15913W        W31382   0.837   1.825  13.223  0.0472 -0.1043 -0.1534
15914W        W31383   7.872   1.991   4.212 -0.1752  0.0785  0.1434
15915W        W31384   6.102   0.013   1.686 -0.2512  0.0781 -0.0049
15916W        W31385  11.267  12.074   1.919  0.0651 -0.2860 -0.1109
15917W        W31386   4.565  13.050  15.748 -0.1781  0.0792  0.2706
15918W        W31387   1.323   8.990   2.638  0.1665 -0.2865 -0.1475
15919W        W31388   0.994   6.086   5.260  0.1777 -0.1088 -0.0258
15920W        W31389   9.054  16.017   3.557 -0.0220  0.1275 -0.0429
15921W        W31390   7.920   2.845   2.563 -0.2739 -0.1473 -0.1458
15922W        W31391  11.301   2.241  12.075 -0.1777  0.4009 -0.0635
15923W        W31392  14.251   8.821   5.914  0.3348  0.0762  0.0967
15924W        W31393  10.474   7.467  16.320  0.0677 -0.0983 -0.1118
15925W        W31394   0.478   0.703  13.430  0.1378 -0.0024 -0.2611
15926W        W31395   7.222   9.154   2.691 -0.0652 -0.1612 -0.0472
15927W        W31396   7.512   1.241  15.877 -0.2528  0.1034 -0.3629
15928W        W31397   7.816   7.817   4.911  0.0444 -0.1341 -0.1347
15929W        W31398   8.453   2.400   2.090 -0.1716 -0.1708 -0.1844
15930W        W31399  13.217   4.050   0.279 -0.1507  0.1510 -0.2735
15931W        W31400   7.783   7.296  15.681 -0.0574 -0.0228  0.2409
15932W        W31401  13.654   1.634   4.623 -0.2191 -0.0785  0.1649
15933W        W31402  12.621  16.981  15.390  0.1615 -0.0508  0.3058
15934W        W31403   8.392  13.599   2.490 -0.3157  0.0523 -0.0975
15935W        W31404  13.473   7.838  11.616  0.1034  0.0923  0.0271
15936W        W31405  15.265  12.235  12.331 -0.0293  0.1219 -0.1021
15937W        W31406   9.399  16.648  15.541  0.0760  0.0906 -0.0916
15938W        W31407   7.817   6.330   1.201 -0.3095 -0.1257 -0.2902
15939W        W31408  17.425  14.828  11.512  0.0442  0.0901  0.2485
15940W        W31409  12.906  14.479  15.504 -0.3272  0.2424 -0.0662
15941W        W31410  11.314   8.160   3.231  0.1317  0.1070 -0.3568
15942W        W31411   7.038   2.325  12.472  0.0921 -0.1505 -0.3794
15943W        W31412  16.580   8.185   4.828 -0.0108  0.0124 -0.4921
15944W        W31413  15.188   1.614  16.256  0.2735 -0.0249  0.1707
15945W        W31414  12.615   8.396  14.209 -0.0294 -0.1112 -0.1177
15946W        W31415  15.404  11.209   2.841  0.1361  0.0067 -0.1081
15947W        W31416  12.145   8.857   3.969 -0.1453 -0.0676 -0.1004
15948W        W31417  15.820  17.577  10.829  0.1936 -0.2297  0.0440
15949W        W31418   9.948   0.100  12.402  0.0171 -0.0925 -0.0104
15950W        W31419   9.478   5.782   1.311 -0.0913 -0.1541  0.2715
15951W        W31420   6.745   2.070  12.859 -0.2208  0.0337 -0.2725
15952W        W31421  16.878   8.653   4.086  0.0587  0.1431  0.5403
15953W        W31422   4.082  17.328   1.014 -0.0641 -0.2015  0.1247
15954W        W31423   5.353  10.565   3.638 -0.3575 -0.0983  0.0684
15955W        W31424   8.056   2.313  14.182  0.0541 -0.1323  0.0050
15956W        W31425  10.656   9.201   4.403  0.1876 -0.0731  0.0195
15957W        W31426   1.726   3.366  13.505  0.0337 -0.0878  0.1361
15958W        W31427  13.163   7.313  12.826 -0.4895 -0.1589 -0.1515
15959W        W31428   8.208   0.613  16.827  0.0550  0.3091 -0.0203
15960W        W31429   5.740  14.886   2.650 -0.0576  0.0131  0.3921
15961W        W31430  16.478   7.465   0.589 -0.2022  0.1178 -0.2859
15962W        W31431   0.808   8.452  13.013 -0.0418  0.4009  0.0811
15963W        W31432  16.928   3.003   2.705 -0.1231 -0.2472 -0.2114
15964W        W31433   7.927   3.670   3.919  0.0612  0.1529 -0.0694
15965W        W31434   0.123   6.142   5.103 -0.0106  0.1191 -0.3893
15966W        W31435  15.565   7.956  15.120 -0.3806 -0.1327 -0.1513
15967W        W31436  15.911  15.953  14.938  0.1768  0.0926  0.0761
15968W        W31437   3.258   2.570   2.064  0.0315  0.0680 -0.2033
15969W        W31438  15.078  16.167   4.830 -0.0490  0.3137  0.0135
15970W        W31439  17.712   8.736   4.431  0.0555  0.0972 -0.2164
15971W        W31440  12.320   6.356   5.553 -0.0834 -0.0957 -0.0908
15972W        W31441  15.506  10.976   4.093  0.0526 -0.0947 -0.1499
15973W        W31442   8.401  16.300  14.179 -0.1033 -0.1562 -0.1347
15974W        W31443   5.914  17.358   1.334 -0.1418  0.1654  0.1455
15975W        W31444  15.732   9.968  11.682 -0.0302  0.1049 -0.1279
15976W        W31445   5.401   5.834   3.457 -0.0078  0.1198 -0.1143
15977W        W31446   8.097  12.488  12.476 -0.0424  0.3684  0.0483
15978W        W31447  13.286  13.436  11.661  0.0419 -0.2063 -0.0068
15979W        W31448   8.230  16.614  10.861 -0.0071  0.2223  0.3393
15980W        W31449   0.042  15.868   4.143  0.0668  0.0217  0.0214
15981W        W31450   9.319   7.001   4.439 -0.3029  0.0373  0.0946
15982W        W31451  16.966  17.447  15.862  0.0630  0.2499 -0.1400
15983W        W31452   7.840  16.126  14.332  0.5132 -0.2997 -0.1779
15984W        W31453  12.083   5.011   5.395 -0.1492  0.1747 -0.0581
15985W        W31454  10.673  16.177  12.797 -0.0692 -0.1369 -0.2628
15986W        W31455   5.047  14.782  14.398 -0.0540 -0.1356 -0.2588
15987W        W31456   7.663   8.988  15.008  0.1486  0.0884 -0.2340
15988W        W31457   3.121   4.509   3.327 -0.1496  0.0278 -0.0654
15989W        W31458   2.875  16.563   2.477 -0.0575 -0.0208  0.1418
15990W        W31459  10.400  12.578   4.957  0.0178 -0.0191 -0.1860
15991W        W31460   9.183  13.979   2.698 -0.3471  0.1065  0.4222
15992W        W31461  16.518   5.061  16.284 -0.1358  0.4092  0.2033
15993W        W31462  12.527   0.638  15.395 -0.3714  0.1025  0.0649
15994W        W31463  12.391  13.732  13.652 -0.0401 -0.1071  0.2787
15995W        W31464   0.524   8.396  10.916 -0.1115 -0.2123  0.1403
15996W        W31465  10.984   2.763   5.744  0.1095 -0.1186  0.2550
15997W        W31466  10.404  13.414   0.642 -0.0662  0.3005 -0.2414
15998W        W31467   5.315   0.080   1.969  0.0358  0.1657 -0.0803
15999W        W31468  13.533  12.799  13.346  0.1948 -0.1103 -0.0325
16000W        W31469   0.542  11.611   3.740  0.0339  0.1638  0.0934
16001W        W31470  14.603  11.815  12.437  0.0177  0.2374 -0.1886
16002W        W31471  15.423   3.485  15.038  0.1827  0.1147 -0.4944
16003W        W31472   5.619   5.879  15.721  0.0165  0.3198  0.3299
16004W        W31473  13.763  17.093   0.360 -0.0716  0.2736  0.1057
16005W        W31474  14.834   9.093   0.363 -0.0903 -0.2622  0.2755
16006W        W31475   9.728  16.242  15.369  0.1998  0.0627  0.2719
16007W        W31476  16.018   8.283  14.574  0.2348 -0.0561 -0.0763
16008W        W31477  14.786  10.142  13.030 -0.3479 -0.1190 -0.0078
16009W        W31478   9.376   7.132  13.713  0.1237  0.2536 -0.3484
16010W        W31479   4.856  11.673  11.522  0.0831  0.0446  0.1854
16011W        W31480   9.400  15.232   0.618  0.4018  0.0481 -0.3498
16012W        W31481  12.506   8.127   2.157  0.2771 -0.0456 -0.0361
16013W        W31482   7.888  12.588   3.418  0.0727 -0.2021 -0.4418
16014W        W31483   0.778   8.828  14.361 -0.1797  0.1340 -0.1561
16015W        W31484  11.235  17.049  15.539  0.0815  0.2612 -0.0787
16016W        W31485   4.903  17.241  16.816 -0.4010  0.2329 -0.4340
16017W        W31486   7.613   7.465   0.704  0.2400  0.0906 -0.0070
16018W        W31487  16.723  17.189  13.568 -0.0050  0.0631  0.0978
16019W        W31488   0.425  13.270  11.437 -0.0483  0.1283  0.1670
16020W        W31489  17.007   1.337  10.142 -0.0917  0.0845 -0.2306
16021W        W31490  13.905   1.761   2.363 -0.1944 -0.3319 -0.1504
16022W        W31491   4.950   6.194  16.321  0.2127 -0.0843  0.1245
16023W        W31492  15.098   4.400   4.028  0.1066 -0.0902  0.1531
16024W        W31493  12.254  14.040  11.118  0.1834  0.0396  0.0434
16025W        W31494  10.636  16.138   0.300 -0.1663  0.2234  0.0924
16026W        W31495   3.612   9.571  16.003 -0.1024  0.0833 -0.1361
16027W        W31496   7.557   0.647   5.303 -0.1403 -0.0123  0.1569
16028W        W31497   5.977  16.260  12.683  0.2870 -0.2134 -0.0194
16029W        W31498  17.398  11.750  13.158  0.2085 -0.1119 -0.0628
16030W        W31499   3.076  11.396  14.472  0.2638  0.0260  0.0410
16031W        W31500   3.946  16.046   4.072  0.0199  0.0019  0.1486
16032W        W31501   7.000  11.376   0.995 -0.1251  0.2181 -0.0945
16033W        W31502   1.122   0.269  13.010 -0.0410 -0.1663  0.1103
16034W        W31503  16.870  16.843   0.427  0.1480 -0.3281  0.0824
16035W        W31504   9.560  15.768  16.345  0.0147  0.1488  0.1217
16036W        W31505  10.306  14.639   2.503 -0.1693  0.1649 -0.0296
16037W        W31506   0.538   9.802   1.014 -0.0922  0.2839  0.2569
16038W        W31507   9.862   2.693   0.595  0.0406 -0.0457  0.2481
16039W        W31508   6.921   6.031   2.684 -0.1121  0.0720 -0.0181
16040W        W31509  15.771   1.460   2.364  0.2333 -0.1874 -0.2467
16041W        W31510   5.635   4.652  10.482  0.1243  0.2993 -0.0801
16042W        W31511  15.451   6.677   4.025  0.1676  0.0045  0.2723
16043W        W31512   9.711  10.604   0.121  0.0311  0.0236 -0.0329
16044W        W31513   3.307  13.577   4.841  0.2575  0.2756 -0.0282
16045W        W31514   0.590  17.372   1.315 -0.1517  0.1802 -0.1334
16046W        W31515   7.670  14.237   1.660  0.1634 -0.0958  0.1875
16047W        W31516   1.196   3.857  11.885  0.0009  0.2129  0.0908
16048W        W31517  15.738  16.495   1.982 -0.1167 -0.1181 -0.1077
16049W        W31518   7.122   8.170  15.442  0.0492  0.0205 -0.1350
16050W        W31519   2.981   3.377  14.220 -0.3725  0.3716 -0.3432
16051W        W31520   2.349  14.253   4.017  0.0426  0.4151 -0.2889
16052W        W31521   3.768  12.152   4.738 -0.1378  0.2137 -0.2008
16053W        W31522   8.166   9.918  13.081 -0.1983  0.0202  0.0317
16054W        W31523  11.501   3.353  16.020 -0.1456 -0.1934  0.0865
16055W        W31524   3.717  15.826  15.054 -0.0791  0.0443 -0.1667
16056W        W31525  10.546  10.215  13.922 -0.0795  0.1374  0.0434
16057W        W31526   4.506   6.377   4.971 -0.1549  0.2813 -0.1196
16058W        W31527   8.703  12.793  15.414  0.0608 -0.2443  0.3178
16059W        W31528  11.658   9.531  12.602  0.4176  0.1049  0.1900
16060W        W31529   5.062  12.999   1.187 -0.0972  0.0558  0.1513
16061W        W31530  15.047   3.857   2.344 -0.2465 -0.1296 -0.1824
16062W        W31531   9.225   7.924   1.321 -0.2136 -0.0722  0.1756
16063W        W31532  10.090   3.071  13.957  0.2052 -0.2431 -0.1497
16064W        W31533   8.489   2.363  16.837  0.0355 -0.1349 -0.3104
16065W        W31534   8.641  13.245  12.198 -0.2253  0.0536 -0.0754
16066W        W31535  15.410   7.601   4.823  0.0644 -0.1646 -0.3458
16067W        W31536  13.206   3.896  15.419 -0.2355 -0.2856 -0.1463
16068W        W31537  14.779   9.291  16.329 -0.0432 -0.2382  0.0645
16069W        W31538  15.303  14.690  14.259 -0.0225  0.0722 -0.0308
16070W        W31539  14.613   3.534  12.923  0.1575 -0.1975  0.0256
16071W        W31540  11.870  11.853   2.516  0.2309 -0.1660  0.1400
16072W        W31541   2.169   3.074  13.607 -0.0516  0.1524  0.1108
16073W        W31542   9.407  15.824  15.495  0.2846 -0.0015  0.3975
16074W        W31543   7.261   1.886  16.599 -0.0350 -0.1430  0.1593
16075W        W31544   3.297   5.825   4.833  0.1860  0.3991  0.1311
16076W        W31545  12.517   1.521  13.518  0.0398 -0.1207 -0.2619
16077W        W31546   8.736  15.987   3.124 -0.0394 -0.2094 -0.0364
16078W        W31547  17.743   1.294  13.067  0.1548  0.1577 -0.0975
16079W        W31548   6.395   4.531   5.780 -0.5957 -0.1403 -0.0507
16080W        W31549   1.896  16.289  13.109  0.0463 -0.0186 -0.3306
16081W        W31550  11.367  14.718  14.724 -0.1986  0.2338  0.0963
16082W        W31551   3.819   2.284   0.343  0.2182  0.1091 -0.2337
16083W        W31552   7.975   4.021  14.289 -0.1105  0.0045 -0.2965
16084W        W31553   7.439  11.999  13.208 -0.0448 -0.0856 -0.3863
16085W        W31554   4.183  10.507   5.901 -0.0148 -0.2277 -0.0053
16086W        W31555   6.059   6.364  11.540  0.3237 -0.0905 -0.0293
16087W        W31556   0.723   1.263   2.778  0.0252 -0.0631  0.0557
16088W        W31557   6.398  14.692  16.362  0.2372 -0.0057  0.0675
16089W        W31558  12.186   1.953  13.790 -0.0397 -0.1027  0.0691
16090W        W31559  16.787  15.751   3.402 -0.0290  0.3045  0.0655
16091W        W31560   6.578   5.341   4.556  0.2197  0.3840  0.1462
16092W        W31561  13.065   8.524   3.012  0.2868 -0.0520  0.0308
16093W        W31562   8.030  13.068   5.343  0.2239  0.0693  0.0493
16094W        W31563   4.170  16.460  16.835 -0.2323 -0.2153 -0.1469
16095W        W31564  10.636   3.191   0.566 -0.1204 -0.2453 -0.0117
16096W        W31565   6.489   1.005   3.852 -0.3865  0.1557 -0.1791
16097W        W31566   4.634   0.808   0.416  0.0020  0.1931 -0.0177
16098W        W31567   3.741  12.993   4.669  0.2296  0.0729  0.2416
16099W        W31568   3.990  17.352  15.096  0.0993  0.0311 -0.0462
16100W        W31569  13.453   2.565   5.046 -0.3013  0.1398 -0.1092
16101W        W31570   6.721  10.980   0.498  0.0537  0.2498 -0.0172
16102W        W31571  10.821  15.813  16.831  0.0032  0.2159  0.1569
16103W        W31572   4.002   8.633  15.612 -0.0685 -0.1997 -0.0315
16104W        W31573   2.318  13.020  11.744  0.1875 -0.0063 -0.1455
16105W        W31574   2.883   0.082  14.132 -0.2399 -0.2093  0.2576
16106W        W31575  14.667  13.884  13.266 -0.0671  0.1619  0.1701
16107W        W31576   4.250  10.986   3.962  0.0300  0.2854 -0.1746
16108W        W31577  13.085   6.248   2.884 -0.0146 -0.0100 -0.2532
16109W        W31578  15.347   3.489   4.600  0.1173  0.2260 -0.2390
16110W        W31579   0.935   5.682   3.366  0.0415 -0.0709  0.0705
16111W        W31580  10.937  12.085  11.704 -0.0858 -0.2969 -0.2216
16112W        W31581  16.211  10.530  13.170  0.2025 -0.0524  0.1604
16113W        W31582   0.318   9.780   2.377 -0.0635  0.0430 -0.0390
16114W        W31583  16.175   2.581   4.231  0.1120 -0.0427 -0.1537
16115W        W31584   3.655   2.006   4.095 -0.3284 -0.1135  0.1088
16116W        W31585   0.252   1.038  15.988 -0.1421 -0.1144  0.2525
16117W        W31586   1.253   4.604  12.322  0.2068  0.0763 -0.0628
16118W        W31587  13.902  14.643   4.700 -0.0912  0.0256 -0.2897
16119W        W31588   5.436  13.957   4.037 -0.1743  0.1851  0.0390
16120W        W31589  17.529   6.417   4.223 -0.0915 -0.2639 -0.3552
16121W        W31590   0.991  11.978  14.199 -0.0584  0.5917  0.2962
16122W        W31591  16.296  13.681  13.045 -0.2837 -0.1274  0.1278
16123W        W31592   1.770  11.522   2.294 -0.1228 -0.0929 -0.0658
16124W        W31593   7.493   9.575   1.158  0.0345 -0.2957  0.1098
16125W        W31594   7.252   2.321  14.056 -0.0838 -0.0154  0.2682
16126W        W31595  17.011   8.435   2.762 -0.1622  0.2485  0.1405
16127W        W31596  11.796   8.158  11.664 -0.2445 -0.0234  0.2456
16128W        W31597  14.856   9.833  15.489 -0.0933  0.0507  0.0888
16129W        W31598   3.761   1.041   2.410  0.0381  0.1162  0.2160
16130W        W31599   1.319   1.662   1.888  0.1872  0.1092 -0.1541
16131W        W31600   4.734  16.394  15.439  0.0200  0.2378  0.2219
16132W        W31601  10.635  15.381   3.484 -0.1697  0.2179 -0.1367
16133W        W31602   6.066   1.770   3.386 -0.1095 -0.0932 -0.0006
16134W        W31603  13.221  15.700   3.747 -0.1169  0.2602 -0.0565
16135W        W31604  14.264  17.409   1.921  0.2588 -0.1527 -0.0496
16136W        W31605  17.590   7.023  13.594  0.1712  0.1288 -0.0441
16137W        W31606  15.613   7.480  14.505 -0.2475 -0.2270 -0.4048
16138W        W31607  12.751   5.728   2.410  0.0881 -0.6471  0.0808
16139W        W31608   1.594   0.684  14.126  0.0745 -0.2102  0.2780
16140W        W31609   4.533  10.778  16.713  0.1185 -0.4234  0.0794
16141W        W31610  14.530   4.320  14.131 -0.1299  0.1697  0.3267
16142W        W31611   5.140  17.413  16.397 -0.1347  0.1218 -0.1291
16143W        W31612   8.170  10.079  12.537  0.2091 -0.0092  0.1350
16144W        W31613  11.178   2.141   5.201  0.0016 -0.0989  0.1348
16145W        W31614   1.385   1.739   5.120 -0.0855 -0.0105 -0.1683
16146W        W31615   4.988  14.660  15.932  0.0014  0.0643 -0.1687
16147W        W31616  15.704  17.289  15.371  0.0534  0.1625 -0.0013
16148W        W31617   5.322  17.328  12.753 -0.0092 -0.1163  0.1646
16149W        W31618  14.306  15.427  15.712 -0.0039 -0.0450 -0.0690
16150W        W31619  10.729  17.039   2.625  0.2436 -0.0675 -0.0797
16151W        W31620  15.363  17.680   0.666 -0.1303 -0.0578 -0.1239
16152W        W31621   9.635  12.651  16.289  0.0075 -0.0196 -0.0245
16153W        W31622   7.215  16.154  15.055  0.1524 -0.0769  0.1533
16154W        W31623   7.320   8.984   0.041  0.1090 -0.2173 -0.0332
16155W        W31624   7.968   7.277   3.975 -0.0759  0.3863  0.1401
16156W        W31625   8.624   1.545  13.202 -0.2027 -0.2219 -0.1859
16157W        W31626  17.038   8.137  15.494  0.0548  0.2232  0.0585
16158W        W31627   3.135  15.380   4.115 -0.3779 -0.1694 -0.1603
16159W        W31628  17.009   4.512  14.125  0.3356  0.1476  0.0518
16160W        W31629   7.180   8.265   5.315 -0.3039  0.4306 -0.0889
16161W        W31630   2.735   8.312   5.767 -0.2891  0.0495 -0.0209
16162W        W31631  13.607   1.354  15.157  0.0163  0.2367 -0.0411
16163W        W31632   1.785   6.647  12.843 -0.1516  0.1629  0.0808
16164W        W31633  13.369   1.293   2.698  0.0061  0.0540 -0.1596
16165W        W31634  10.764   1.994  13.514 -0.1527  0.1311 -0.3908
16166W        W31635   8.728  13.616   4.922  0.2718  0.2224 -0.1526
16167W        W31636   2.497   4.407   4.598 -0.1255 -0.0410 -0.2999
16168W        W31637   6.418   1.623  12.638 -0.1261 -0.3775  0.1887
16169W        W31638   1.691   3.876  11.671 -0.0836  0.1564  0.1972
16170W        W31639   4.471   7.441   3.685 -0.3067  0.1795  0.1151
16171W        W31640   1.551   2.810   2.214  0.0890 -0.0251 -0.2053
16172W        W31641  16.293   9.579  15.053  0.2759 -0.0387 -0.1656
16173W        W31642   2.400   4.386   2.237 -0.1918  0.1012  0.0068
16174W        W31643  15.217   2.177   2.933  0.3295 -0.1533 -0.1132
16175W        W31644   9.293  10.717   1.552  0.1419  0.0089 -0.0961
16176W        W31645  12.535   1.650  14.044 -0.1756 -0.0017 -0.0399
16177W        W31646   3.600  17.336   3.773 -0.0940  0.0809  0.0072
16178W        W31647   2.622  13.053   0.260 -0.0178  0.1169 -0.2514
16179W        W31648   2.277   8.376  11.317  0.1415 -0.0319 -0.2935
16180W        W31649   9.799  10.561   1.579  0.3108  0.0725  0.1608
16181W        W31650  14.774   4.446  14.577  0.2875 -0.0472 -0.0756
16182W        W31651  15.141   3.891   4.325 -0.1436  0.0135  0.0793
16183W        W31652   5.071  15.759  13.176 -0.2817 -0.0501  0.1871
16184W        W31653   1.128  11.558  15.230 -0.0323  0.0801  0.0260
16185W        W31654   7.750  12.964   1.377 -0.0282  0.3034  0.1329
16186W        W31655  16.409   5.424   2.334 -0.0960  0.0123  0.2200
16187W        W31656  12.731   3.016  14.138 -0.0697  0.0807  0.2286
16188W        W31657  17.268   9.055   2.160  0.0174 -0.2502  0.2663
16189W        W31658  14.622   6.054  14.010  0.1532  0.0737 -0.0475
16190W        W31659   1.858  15.110   5.326  0.3115  0.1145 -0.0910
16191W        W31660   8.576  12.779  16.439 -0.1595 -0.1395  0.1261
16192W        W31661   3.825   6.458   4.622 -0.0115  0.1193 -0.0208
16193W        W31662   7.020  13.787  11.363  0.1736 -0.0761  0.1551
16194W        W31663  14.611   1.827   4.311  0.0661  0.2342 -0.2398
16195W        W31664  11.639  17.060   1.353  0.1908  0.0572  0.0021
16196W        W31665   2.855   8.298   3.528  0.0182  0.0778 -0.2201
16197W        W31666   2.086  13.040  16.657 -0.1111  0.1663 -0.0393
16198W        W31667   4.328  15.615   4.596 -0.0951  0.2707 -0.1788
16199W        W31668  12.559   6.426   0.930  0.0261  0.0946  0.0645
16200W        W31669   1.926   4.818  16.336  0.0907 -0.2855 -0.0430
16201W        W31670  17.117  14.829   5.131 -0.0178 -0.0342  0.1025
16202W        W31671   7.512  11.327   1.384  0.2182 -0.1966  0.2386
16203W        W31672  14.645  11.299   0.862  0.1274 -0.2781  0.1549
16204W        W31673   4.017   8.527   3.322  0.1094  0.1806  0.0651
16205W        W31674  15.009  15.171   4.274  0.0129 -0.0508 -0.1520
16206W        W31675  15.035   4.707   4.431 -0.1954 -0.0372 -0.0100
16207W        W31676   5.682   6.464  14.520 -0.1149  0.1527  0.3018
16208W        W31677  16.674   1.653  11.315  0.1749 -0.2516 -0.0734
16209W        W31678   2.517   6.689  12.848 -0.0097 -0.1965 -0.0087
16210W        W31679   6.397  13.380   4.814 -0.2110  0.2557 -0.1342
16211W        W31680   9.539   6.515  15.829 -0.1365  0.1409 -0.2282
16212W        W31681   7.764   6.349   1.982 -0.1667  0.0217  0.1788
16213W        W31682  14.669  17.226   0.144 -0.1330  0.0276  0.0810
16214W        W31683   5.135  10.223  15.895  0.2138  0.0175 -0.3313
16215W        W31684  13.089   0.897  13.297 -0.0620 -0.2554  0.0064
16216W        W31685  14.921  10.641  13.035  0.3325 -0.4722 -0.2021
16217W        W31686  17.525   0.062   4.651  0.2957 -0.0134 -0.2854
16218W        W31687  12.471   2.467  13.365  0.3537  0.0768  0.0332
16219W        W31688   8.496   7.872  13.954  0.0859 -0.2127  0.2726
16220W        W31689  13.033   3.046  11.472  0.2386 -0.0908 -0.1489
16221W        W31690  17.615  12.528   3.663  0.3845  0.1325 -0.1205
16222W        W31691  11.513   7.888  12.149 -0.0649 -0.0461 -0.0912
16223W        W31692   8.915  15.259   5.625 -0.1515 -0.1488 -0.1227
16224W        W31693  15.788  15.907  11.866 -0.1166  0.0048 -0.2441
16225W        W31694  17.585  15.575   3.067  0.3456  0.2553 -0.3312
16226W        W31695  12.817  15.990   5.300  0.4568  0.1781 -0.0191
16227W        W31696   2.616   0.468  14.111 -0.0286 -0.2627 -0.3641
16228W        W31697  12.326   7.367   0.319 -0.2965  0.1296  0.0992
16229W        W31698  15.720   2.521   1.336  0.0194 -0.0008  0.1629
16230W        W31699   9.688   8.916   3.866 -0.1727  0.0123  0.0884
16231W        W31700   1.399   7.830   0.591  0.0549 -0.0581  0.0958
16232W        W31701   9.789  15.620   3.920  0.0934 -0.0526 -0.1677
16233W        W31702   7.221   0.421   3.271  0.0940  0.0888 -0.0463
16234W        W31703  11.531   7.022   2.075 -0.0940  0.1758  0.2959
16235W        W31704   4.121   1.057  14.153 -0.2139 -0.3941  0.4651
16236W        W31705   7.245  14.105  14.059  0.1420 -0.0447  0.0053
16237W        W31706  15.577  14.678  15.244 -0.2609 -0.1594 -0.2414
16238W        W31707  13.492  13.744   5.550 -0.1507  0.1661  0.0505
16239W        W31708   0.482   0.928   2.526  0.2109 -0.2185  0.1489
16240W        W31709  14.171  15.956  13.170  0.0430  0.2285 -0.1892
16241W        W31710  11.223  17.029   6.203  0.0808  0.0071  0.2258
16242W        W31711   5.548   2.888   1.585  0.0200 -0.2218  0.1718
16243W        W31712   3.150   5.237  16.456 -0.0098 -0.1520  0.3035
16244W        W31713   9.396  11.139   0.373 -0.3451  0.0563 -0.3559
16245W        W31714   4.849  15.151   2.494  0.2937 -0.1715 -0.2131
16246W        W31715  14.348   5.214   2.283 -0.0528  0.2793 -0.3644
16247W        W31716  14.884  13.837   2.802  0.4630  0.1980 -0.0621
16248W        W31717   2.336   5.720  14.321  0.0247 -0.0263 -0.1831
16249W        W31718   8.086   7.577   5.923 -0.0203  0.0025  0.2438
16250W        W31719  12.652   8.591   5.792  0.0911  0.2348 -0.0112
16251W        W31720   4.198  17.597  16.022  0.2115 -0.1231 -0.2528
16252W        W31721  13.623  11.650   3.033 -0.1132 -0.1053  0.0904
16253W        W31722  12.087   5.720  13.736  0.3854 -0.1116 -0.2682
16254W        W31723  10.155   2.574  16.018  0.0132  0.1026  0.3603
16255W        W31724  11.493  13.340   4.544  0.3460 -0.2908  0.3276
16256W        W31725   6.246  10.806  14.319 -0.1712  0.0631  0.0078
16257W        W31726   5.046   5.202  13.511  0.1984  0.1092 -0.3443
16258W        W31727   0.271  13.138  16.214 -0.0393 -0.1591  0.0706
16259W        W31728   9.729  10.014   6.680  0.1103 -0.0834  0.2051
16260W        W31729   2.210  15.698   3.370  0.3116 -0.2455  0.0765
16261W        W31730  16.917   8.137  13.597 -0.0301 -0.3481  0.0243
16262W        W31731  17.594  13.176  15.042 -0.4068 -0.2470 -0.1855
16263W        W31732  14.810   4.576  11.199  0.3522  0.2686 -0.2161
16264W        W31733   9.588   4.477  16.725 -0.0494  0.0854 -0.3915
16265W        W31734   0.604  14.098   2.597  0.0212  0.0305  0.2266
16266W        W31735  16.796  15.667  16.664 -0.0426  0.0370 -0.1490
16267W        W31736   8.628   8.624   1.715 -0.0689 -0.0394 -0.0098
16268W        W31737  14.155  10.325   4.409  0.1792  0.0445  0.1406
16269W        W31738  17.263  12.670   0.458 -0.0458  0.0711  0.1515
16270W        W31739   8.454   7.923  15.442  0.0555 -0.2006 -0.1205
16271W        W31740   2.228   6.135   1.758  0.1530  0.2559  0.1937
16272W        W31741   6.506   8.813   2.358  0.0357  0.1579  0.1326
16273W        W31742  14.067   8.417  14.452  0.0344 -0.1566  0.0966
16274W        W31743   8.629  16.636   1.997  0.0451 -0.2549  0.2898
16275W        W31744   2.778  16.520   1.554  0.1885 -0.0251  0.0075
16276W        W31745   9.616   8.493   4.141 -0.2315 -0.0287  0.0383
16277W        W31746   1.240  12.966  16.264 -0.0481 -0.2000  0.1636
16278W        W31747  14.714   6.268   3.066  0.0024  0.2883 -0.0748
16279W        W31748   1.800  16.714  15.664 -0.0824 -0.0845 -0.0041
16280W        W31749   3.440  10.175  12.916  0.4968 -0.1172 -0.1770
16281W        W31750  10.214   9.948   1.191 -0.1275 -0.0655  0.1793
16282W        W31751   5.734  14.752   3.539 -0.1525  0.0893 -0.1272
16283W        W31752  11.442   7.092  15.859  0.0141 -0.1416 -0.0961
16284W        W31753  17.525   6.282   3.379  0.0150  0.0580  0.1142
16285W        W31754   2.038  16.031  14.472 -0.2273 -0.3072  0.2376
16286W        W31755   7.662   1.372   1.688 -0.2177  0.0645  0.1534
16287W        W31756  17.205   4.175  11.784 -0.1232  0.0653  0.1131
16288W        W31757  11.484  12.570  15.651  0.0548  0.1058  0.2124
16289W        W31758  14.512  12.898   1.948 -0.4095 -0.2893 -0.5728
16290W        W31759  17.107   1.081   5.816 -0.3270 -0.1603  0.0437
16291W        W31760  12.188  14.832   5.997  0.4899  0.3142 -0.0444
16292W        W31761  14.331   4.661  11.415 -0.2730 -0.0938 -0.1893
16293W        W31762   1.584  12.467   2.697 -0.1872  0.1104  0.0880
16294W        W31763  15.544  16.328   5.238  0.1912  0.4035 -0.3537
16295W        W31764  17.077  15.758  12.337  0.0378 -0.1602 -0.0411
16296W        W31765  15.349  10.323  13.109  0.0758  0.2046 -0.4375
16297W        W31766   0.745  11.836  16.586  0.0843  0.2121  0.0142
16298W        W31767   1.201   7.393   3.903  0.3454  0.1009 -0.1979
16299W        W31768   8.552   3.452  16.685  0.2586  0.0090  0.1280
16300W        W31769   3.164   9.317  16.739  0.0574  0.1137 -0.0228
16301W        W31770   1.281   0.668   2.122 -0.2976 -0.2409  0.0754
16302W        W31771   3.801   7.081  12.513 -0.3030 -0.2215  0.0198
16303W        W31772   7.457   4.119  12.101 -0.3016  0.2570 -0.0686
16304W        W31773  14.415   1.479   1.776 -0.0776 -0.1705  0.0114
16305W        W31774   4.721   0.722  14.143  0.0632 -0.2835  0.0059
16306W        W31775  12.528   3.727  15.681  0.0225 -0.0622 -0.0023
16307W        W31776  12.179  11.500  16.711  0.0029 -0.0846 -0.1079
16308W        W31777   4.972   5.641   0.274 -0.0960 -0.0730  0.1975
16309W        W31778   7.057   5.757  12.258  0.0986  0.1304  0.0700
16310W        W31779   6.724   6.760  14.259 -0.0636 -0.0980  0.3483
16311W        W31780   4.057   6.457  11.872  0.0459  0.1778  0.0431
16312W        W31781   7.365  11.488  11.746  0.2027 -0.0368  0.2265
16313W        W31782  13.682   4.012  14.239  0.0296 -0.3010 -0.0003
16314W        W31783   3.203   5.985  14.541  0.1103  0.2165 -0.1147
16315W        W31784   6.395  10.916  16.410 -0.0159  0.0895  0.3402
16316W        W31785   9.925  13.000  13.201  0.3019 -0.0598  0.1765
16317W        W31786   4.817   7.765  11.630 -0.2532 -0.0485 -0.2051
16318W        W31787  16.258   7.620  15.518  0.1590  0.0425 -0.1485
16319W        W31788   2.355  13.984  15.759 -0.0683 -0.0763 -0.0339
16320W        W31789   6.561   9.296   4.179 -0.2953  0.1081 -0.0290
16321W        W31790   1.322   8.486  12.990  0.1393 -0.0406  0.0650
16322W        W31791   2.209   5.508   0.571 -0.0030 -0.2189 -0.1151
16323W        W31792  15.018   2.148   1.220  0.1822  0.0063 -0.2125
16324W        W31793   5.693   3.481  14.421 -0.0466 -0.1178 -0.1913
16325W        W31794  17.050   5.058   0.614  0.0604 -0.0752  0.0684
16326W        W31795  16.637   2.868   0.818 -0.1420 -0.0040  0.0542
16327W        W31796   1.774   3.563  16.437 -0.0536 -0.0344  0.0152
16328W        W31797   2.848   0.671   4.712  0.0538 -0.2870  0.3748
16329W        W31798  14.131   3.206   5.521 -0.0221  0.0242 -0.0596
16330W        W31799   8.730  13.920   1.979  0.0998  0.1333  0.2802
16331W        W31800  11.644   0.290  12.175  0.2910  0.2226 -0.2222
16332W        W31801   8.410   0.298   1.258  0.0680 -0.3166 -0.3729
16333W        W31802   0.377  14.975  14.831 -0.2848 -0.2406 -0.2833
16334W        W31803  15.928   1.491  14.412 -0.0841 -0.0285 -0.0146
16335W        W31804  12.047   6.120  14.369 -0.0163  0.0557 -0.1349
16336W        W31805   9.825   3.299  15.267  0.1065  0.0285  0.1147
16337W        W31806   4.078   6.027  16.691 -0.2908  0.3756 -0.0443
16338W        W31807   5.366  14.646   2.199 -0.1782  0.2411  0.0630
16339W        W31808   0.119  10.233   5.565 -0.0997  0.0503 -0.0362
16340W        W31809  11.422   4.319   1.798  0.1137 -0.2623  0.0173
16341W        W31810   9.553  16.830  12.229 -0.0421 -0.4958  0.2571
16342W        W31811  14.779   0.320  16.122  0.1177 -0.0547 -0.3123
16343W        W31812   2.373   0.902   4.511  0.3392  0.1550 -0.1143
16344W        W31813  12.525   9.170   4.103 -0.1406  0.0976 -0.0209
16345W        W31814  13.495   4.353  11.552 -0.2998 -0.0344 -0.1195
16346W        W31815   0.044   2.706   5.406  0.1768  0.1052  0.0522
16347W        W31816   5.999   9.863  14.180  0.2482 -0.0272  0.1244
16348W        W31817  14.503  13.767   2.462 -0.2009 -0.3576  0.1132
16349W        W31818   5.968  13.927   2.156  0.0554 -0.3261  0.1763
16350W        W31819   6.504  10.284   2.713  0.4173 -0.1899  0.0071
16351W        W31820   7.968  16.139  13.226  0.0567 -0.1524  0.2031
16352W        W31821   1.689   9.038   4.753 -0.2503  0.1607  0.1017
16353W        W31822   6.236   5.084  11.902 -0.1646  0.0709  0.4061
16354W        W31823  17.469  14.314  16.818  0.0806  0.1731 -0.1613
16355W        W31824   2.790   1.416   3.196 -0.1862 -0.1382 -0.1859
16356W        W31825   6.149   1.278   2.356 -0.0894  0.0671  0.2367
16357W        W31826   0.140  11.601  15.561 -0.0546 -0.1335  0.2123
16358W        W31827   9.982  10.915  10.797  0.0058  0.2205  0.0797
16359W        W31828  16.231   4.533   2.872 -0.1604  0.1985 -0.1531
16360W        W31829   6.789   1.371  12.145 -0.0438  0.0843 -0.0351
16361W        W31830   0.601  16.281   4.636  0.1639 -0.1403  0.2571
16362W        W31831   8.097   2.877  12.435  0.2412 -0.1168 -0.2842
16363W        W31832  12.903   6.452   4.371 -0.1067  0.2856  0.3502
16364W        W31833   7.979   7.099  12.924  0.0540 -0.0644 -0.1203
16365W        W31834  17.102  16.375   5.841  0.0441 -0.1105 -0.1882
16366W        W31835   3.952  11.600  12.932 -0.2040  0.1496  0.0185
16367W        W31836   2.469   3.962  15.539  0.1309  0.1169  0.1836
16368W        W31837   7.986  12.834   2.646  0.0935  0.1563  0.0006
16369W        W31838  14.491   3.367  12.401  0.1036 -0.1151  0.3713
16370W        W31839   2.664  13.694  12.364  0.0940 -0.0966 -0.0295
16371W        W31840   0.904  13.932  12.141 -0.1066  0.2269 -0.0822
16372W        W31841  12.922  17.188   1.080 -0.3625  0.3338  0.1838
16373W        W31842  12.462  10.456  15.760 -0.2009  0.1311  0.2955
16374W        W31843  10.703   3.311  16.045 -0.0714 -0.2108 -0.1113
16375W        W31844  13.840   4.149  16.617  0.1240  0.0826  0.0607
16376W        W31845   8.435  12.316   0.776  0.0407 -0.2298 -0.0019
16377W        W31846  12.939   2.482  13.541 -0.1599  0.2360  0.1611
16378W        W31847   1.646   6.394  11.873  0.1259  0.3304  0.1176
16379W        W31848  16.766   0.363  14.823  0.0748 -0.0300  0.1335
16380W        W31849  10.441   3.492   5.287  0.1521 -0.1642 -0.0127
16381W        W31850   2.318   0.002  16.288 -0.0446  0.1940 -0.1554
16382W        W31851  13.906   4.858   1.928 -0.0560 -0.1873 -0.2534
16383W        W31852   6.211   2.391  15.383  0.1522  0.2757 -0.1986
16384W        W31853   3.718  14.160   2.326 -0.0061 -0.0235  0.0741
16385W        W31854   3.053  15.071   3.764  0.0258  0.1864  0.0057
16386W        W31855  11.610   7.097  14.520  0.0414  0.0575 -0.2524
16387W        W31856   8.524   5.640  16.604  0.3555  0.0179 -0.1477
16388W        W31857   6.452   1.044  14.745  0.1242  0.3356  0.0820
16389W        W31858   0.874  14.718   1.817 -0.0190  0.0083  0.1497
16390W        W31859  13.190   7.610   2.985 -0.0219  0.3693 -0.0061
16391W        W31860  17.750  17.364   0.734 -0.0315  0.1956  0.0686
16392W        W31861   5.362   9.954   1.192  0.1265  0.1325  0.1273
16393W        W31862   4.900   8.835   3.363  0.0229 -0.1329 -0.3033
16394W        W31863  17.323   2.211   1.973 -0.1653 -0.2118 -0.2021
16395W        W31864  10.047  12.855  15.269  0.0693  0.1705  0.1374
16396W        W31865  14.088   9.806   5.649  0.1598 -0.1646  0.1634
16397W        W31866   5.224   1.633   1.408  0.0170 -0.2798 -0.0966
16398W        W31867  12.199  11.181  13.074 -0.1790  0.0517  0.0835
16399W        W31868   9.874   3.077   2.791  0.0125 -0.0332  0.0086
16400W        W31869  14.845  11.202   2.978 -0.2926  0.1666  0.1511
16401W        W31870  11.763  10.159   0.589 -0.1041  0.0215  0.0704
16402W        W31871   2.393  16.236   4.657  0.0372  0.1931 -0.1190
16403W        W31872   5.855  17.660  16.207 -0.1864 -0.3290  0.1263
16404W        W31873   2.180  10.152  12.476 -0.0938 -0.0177 -0.2956
16405W        W31874   5.068  17.742   3.844 -0.0631  0.4100 -0.1423
16406W        W31875  11.946  13.481   5.889  0.1839 -0.0685  0.3995
16407W        W31876   3.129   7.166   1.156  0.1299  0.2271 -0.0390
16408W        W31877   9.630   5.749  13.722 -0.2004  0.1915 -0.2056
16409W        W31878   9.189  11.614  11.902 -0.3183  0.0639 -0.1448
16410W        W31879   7.361  15.533  12.864  0.3653  0.0783 -0.2652
16411W        W31880   8.032   5.795   3.696  0.0938 -0.0684 -0.4777
16412W        W31881   9.429  10.373   4.924  0.2419 -0.2098  0.2694
16413W        W31882  10.945  14.525  12.062 -0.0304  0.0123 -0.0171
16414W        W31883  10.088  13.558  11.445  0.1011  0.1162  0.1183
16415W        W31884  12.492  14.483   3.323 -0.0292 -0.1497  0.0316
16416W        W31885  17.106  15.271  16.574  0.0407  0.4608 -0.1659
16417W        W31886   3.330   0.385   2.318 -0.3545 -0.0575  0.1705
16418W        W31887   9.503  15.891   3.602  0.2034  0.3164 -0.2976
16419W        W31888   1.591   9.355   2.872 -0.1789  0.0879  0.0580
16420W        W31889   3.343   3.634  12.974 -0.1147 -0.1864 -0.0121
16421W        W31890   8.705   2.598   4.781 -0.2007 -0.1508  0.1927
16422W        W31891  13.869   8.007   3.193  0.1068  0.0496  0.0387
16423W        W31892   8.664   3.796  13.452 -0.0490  0.0050 -0.1474
16424W        W31893  10.437  13.251  13.201 -0.0630 -0.3412 -0.1142
16425W        W31894  12.809  14.845   3.658  0.2497 -0.1363 -0.2957
16426W        W31895   3.385   0.975   1.494  0.2024 -0.0564 -0.0599
16427W        W31896  15.674   9.531   0.012 -0.1382 -0.2364 -0.3139
16428W        W31897  16.298   0.322   4.466  0.0227 -0.1620  0.1323
16429W        W31898   2.870  17.780  13.068  0.0575 -0.1790  0.2970
16430W        W31899   0.397   0.352   4.725  0.0587 -0.1490  0.0388
16431W        W31900   0.042  11.932  12.958 -0.0365 -0.1282 -0.1992
16432W        W31901   2.900   6.737  12.368  0.1842  0.0580 -0.1513
16433W        W31902   6.675  10.918  14.074 -0.0271  0.2566 -0.0646
16434W        W31903  16.420  13.236   1.515 -0.3817  0.1544 -0.1992
16435W        W31904   1.896   6.560   1.053 -0.0278  0.0700 -0.1114
16436W        W31905   6.397  16.001   1.895 -0.3878  0.0016  0.2360
16437W        W31906   8.294   7.959   4.736  0.2753  0.2111  0.1709
16438W        W31907  15.508  10.755  14.763  0.0720  0.0617 -0.0573
16439W        W31908   7.597   2.984  14.803  0.1676  0.0755 -0.0716
16440W        W31909   4.097  16.401  14.449  0.3330 -0.1188  0.1838
16441W        W31910   1.625  12.686  16.145  0.2310 -0.0915 -0.1307
16442W        W31911  14.712  16.992  15.076 -0.1233  0.2960  0.0667
16443W        W31912  10.416   1.777   0.744  0.0619  0.0659 -0.1070
16444W        W31913  15.882  10.839   0.715 -0.1500 -0.2191 -0.5038
16445W        W31914   2.566   8.141   2.082  0.3791  0.0246  0.1029
16446W        W31915   7.579  15.717   1.488  0.1450 -0.3279 -0.0786
16447W        W31916  15.636  16.710   2.918 -0.1399  0.0958 -0.0960
16448W        W31917  16.836   8.438  12.290 -0.0122  0.0896 -0.1845
16449W        W31918  16.841  16.761   5.675 -0.1794 -0.1350 -0.0001
16450W        W31919   7.624  10.473   0.729 -0.0924 -0.1728  0.0464
16451W        W31920   3.409   6.793  13.754  0.0292 -0.0008 -0.0163
16452W        W31921   9.806   2.134   3.713 -0.1290 -0.1031 -0.1620
16453W        W31922  17.401  12.704  13.055  0.0653 -0.0191 -0.0128
16454W        W31923  11.526  11.216   2.323  0.1234  0.1431  0.4392
16455W        W31924   7.806  13.021  16.735  0.0775 -0.0801 -0.2540
16456W        W31925   5.673  15.215   3.846  0.1002  0.2735  0.1284
16457W        W31926   1.930   2.479   1.969 -0.0572  0.3027  0.1270
16458W        W31927   3.102  14.137  16.240  0.3171 -0.1007  0.0005
16459W        W31928   9.467   3.193  13.317  0.1849  0.0596 -0.0069
16460W        W31929  10.151  14.850   1.631  0.0268 -0.1018 -0.0172
16461W        W31930  14.920   7.080   2.059  0.0353  0.0460 -0.1630
16462W        W31931   6.255   3.130  14.718  0.2750  0.0394  0.0034
16463W        W31932   8.552   3.389   5.819 -0.2967 -0.1964 -0.1263
16464W        W31933   5.182  13.068  13.999 -0.0876  0.0592  0.0283
16465W        W31934  10.634   1.226   2.122  0.0830 -0.0122 -0.2232
16466W        W31935   8.852   6.511   5.177 -0.0339 -0.1471  0.0064
16467W        W31936   9.866  14.374  15.031  0.0387  0.3679  0.1289
16468W        W31937   9.045   5.976  13.338  0.1806  0.0254 -0.0485
16469W        W31938   6.453  13.652  15.827  0.0390  0.2286  0.0123
16470W        W31939  12.014   9.645   5.732  0.2313 -0.1941 -0.0757
16471W        W31940   0.257   0.583   0.662 -0.0928  0.3524  0.0014
16472W        W31941  10.999  12.329  13.337 -0.1889 -0.3679  0.1177
16473W        W31942  14.139   8.266   0.137 -0.1606  0.4260  0.1382
16474W        W31943  12.831   3.082  12.756  0.0936 -0.0734 -0.1700
16475W        W31944  16.337   5.933   5.306  0.0449  0.4055  0.2225
16476W        W31945   4.892  15.933  14.750 -0.2476  0.0889 -0.3390
16477W        W31946   1.865  15.090  11.476 -0.0551  0.1918  0.4039
16478W        W31947   6.333   2.245   4.599 -0.2058 -0.1885  0.2332
16479W        W31948  17.540   3.703  15.461 -0.0674  0.1290 -0.1022
16480W        W31949  10.284   2.246   1.729  0.1947 -0.3031  0.1381
16481W        W31950  13.226   5.528  16.548  0.1163 -0.0435  0.0680
16482W        W31951   5.262  17.093  15.413  0.0402  0.1598  0.0187
16483W        W31952   0.508   6.451   2.509 -0.2618 -0.0143 -0.0357
16484W        W31953   7.412   7.105  13.091 -0.1716 -0.0764  0.1588
16485W        W31954   1.875   9.651  14.768 -0.0764  0.1888  0.1618
16486W        W31955   3.447   9.890  14.467  0.1373  0.4120  0.0739
16487W        W31956   3.058  15.102  15.802  0.0233  0.1448  0.0680
16488W        W31957  11.140   7.856   0.493  0.0662 -0.2022  0.0565
16489W        W31958  12.741  10.048   5.457 -0.1460 -0.2360  0.4113
16490W        W31959  14.074  15.517   4.538 -0.1243  0.2784 -0.1027
16491W        W31960  11.649  10.690  11.782 -0.0211 -0.2066  0.2644
16492W        W31961   0.183  15.246   0.525  0.1547 -0.1056 -0.0558
16493W        W31962  17.660   7.200  12.762 -0.2863 -0.1461  0.4425
16494W        W31963   5.460   9.480   0.531  0.3025 -0.0535 -0.4189
16495W        W31964  13.175   7.960  16.324  0.1247  0.0015 -0.1691
16496W        W31965   1.873   4.731  11.627 -0.4487 -0.1816 -0.1971
16497W        W31966   6.535  10.886   3.560 -0.0045  0.0426 -0.0952
16498W        W31967  13.332   9.909  12.680 -0.1378  0.0797 -0.0440
16499W        W31968   4.525   3.810   5.226  0.0406 -0.0201  0.0038
16500W        W31969   4.030  10.287  14.254 -0.1708  0.1835 -0.2499
16501W        W31970   0.908   3.785   0.839 -0.0983 -0.0118 -0.1246
16502W        W31971   7.408   2.238  11.621  0.0979  0.1429  0.1195
16503W        W31972  15.154  16.912   1.311  0.0875  0.2414  0.0357
16504W        W31973  12.763   8.236   0.165  0.0135  0.3053  0.0960
16505W        W31974  15.274  13.271   3.567  0.0052  0.0326  0.1302
16506W        W31975   6.072   6.932  15.017  0.2678  0.1440 -0.2664
16507W        W31976   1.470   3.541  13.045  0.0461  0.0775 -0.2353
16508W        W31977  13.683  12.807   4.890  0.0651  0.1940  0.1860
16509W        W31978   7.870  15.047   2.148 -0.0623  0.3277 -0.0085
16510W        W31979   7.247   6.064   5.168 -0.1779  0.2129 -0.4337
16511W        W31980  11.324   5.993  16.283  0.0501  0.2796  0.1577
16512W        W31981  13.680  15.009   3.179 -0.2797  0.0935  0.0921
16513W        W31982   4.990   3.838  13.358 -0.0354 -0.0454  0.4769
16514W        W31983   4.712   4.663  15.591 -0.1428  0.0586 -0.0252
16515W        W31984   4.686  16.615  13.612 -0.0806  0.2926 -0.0960
16516W        W31985  14.113  14.797   1.606  0.1559  0.0738 -0.3859
16517W        W31986   1.260  15.397   0.405  0.0305  0.2793 -0.0059
16518W        W31987   9.771   0.689   5.303  0.0762 -0.0315  0.0496
16519W        W31988   3.984  12.658  11.495 -0.2007  0.1526  0.0870
16520W        W31989   0.215  15.321  13.935  0.0260 -0.0376 -0.0970
16521W        W31990   5.113   9.777   3.004 -0.2663 -0.0556 -0.0372
16522W        W31991   2.058  14.436   4.588  0.2117  0.1509 -0.1540
16523W        W31992   8.802   8.723   5.810 -0.0141 -0.2579 -0.1033
16524W        W31993  14.240   4.373   1.928 -0.1227 -0.0627  0.0931
16525W        W31994   6.322  11.405   4.919  0.2104 -0.0403  0.2921
16526W        W31995  16.519   1.075  12.664 -0.0601  0.0518  0.0538
16527W        W31996   6.934   2.701  15.038 -0.1376 -0.1191  0.1925
16528W        W31997   1.712   8.367   1.604  0.0776 -0.1240  0.0997
16529W        W31998   7.726  15.960  15.247  0.2204  0.3439  0.3753
16530W        W31999   4.008   2.358   4.128  0.0593 -0.0346  0.0617
16531W        W32000  15.102   2.355   5.169 -0.4259  0.0642 -0.1430
16532W        W32001   1.658  10.635   0.415 -0.2228 -0.0635  0.0198
16533W        W32002  11.361  15.973  13.400  0.1797  0.1732  0.2060
16534W        W32003  10.279   3.727  15.591 -0.0583 -0.2033 -0.1725
16535W        W32004  16.459  13.934  14.391 -0.1614 -0.0402  0.0793
16536W        W32005  16.014   6.119   1.132  0.1108  0.2735 -0.1231
16537W        W32006  13.176  11.994  12.900 -0.2555  0.4012 -0.1958
16538W        W32007  13.384   1.558  15.596  0.0647 -0.0930 -0.3876
16539W        W32008  13.512  15.250  13.523 -0.0608  0.1609 -0.0468
16540W        W32009   4.620   9.421   0.212 -0.0411 -0.2497 -0.2669
16541W        W32010  15.615   0.335   0.567  0.1539  0.3203  0.1127
16542W        W32011  14.782   9.330  11.548 -0.0141 -0.1944 -0.4618
16543W        W32012   6.011  16.394   6.141 -0.2309  0.0098  0.2631
16544W        W32013   0.632  17.463  11.570 -0.2140 -0.0197  0.2668
16545W        W32014  17.051   2.426   1.551 -0.0991 -0.0136 -0.1558
16546W        W32015  11.117   7.933   4.594  0.0847 -0.0781 -0.4895
16547W        W32016   5.716   0.895   5.080  0.0883 -0.3436 -0.1918
16548W        W32017   9.666   8.439   3.576  0.3090 -0.1011  0.1301
16549W        W32018   7.421   9.651   5.590  0.0273  0.0455  0.3312
16550W        W32019  17.169  11.850   4.558  0.1288 -0.0700 -0.1141
16551W        W32020   0.298   2.438  16.325 -0.1580 -0.2086  0.1546
16552W        W32021   5.797   2.093  16.555 -0.0936  0.1811  0.0353
16553W        W32022  15.747   7.827  14.155  0.0322  0.3449  0.1074
16554W        W32023  15.034  15.132  14.279  0.0699 -0.1045 -0.0632
16555W        W32024  14.280  15.968   2.767  0.3187 -0.0599 -0.0270
16556W        W32025   5.328   8.847  15.135  0.1137  0.0588  0.3600
16557W        W32026   4.858  17.635  14.606  0.1521 -0.0664  0.0751
16558W        W32027   5.951  16.557  13.086 -0.0704 -0.2639 -0.1039
16559W        W32028  14.520   9.008   2.215 -0.0361  0.1186 -0.3237
16560W        W32029   1.327   9.848   2.664  0.0276  0.3748  0.2485
16561W        W32030   9.522   1.823  13.247  0.0465  0.1495 -0.0579
16562W        W32031   1.442   7.664  11.610 -0.1645 -0.0607  0.0016
16563W        W32032   8.703  12.900   0.943  0.2529  0.1456  0.0175
16564W        W32033   5.887   0.645  15.793 -0.2253  0.1324  0.2785
16565W        W32034   3.316   6.256   0.140 -0.2608  0.0321  0.1104
16566W        W32035  12.760   4.665  15.902 -0.0816 -0.2357 -0.1931
16567W        W32036  12.108   0.214   1.394 -0.0551 -0.0278  0.0960
16568W        W32037   6.695  10.807  16.833 -0.0781 -0.2402  0.1224
16569W        W32038   9.847   5.076   6.086  0.3139  0.0090 -0.2535
16570W        W32039  15.479   8.052  12.416 -0.2061 -0.0180  0.0910
16571W        W32040   1.157   9.421   2.532 -0.1795 -0.3202 -0.3005
16572W        W32041  12.427   4.240   3.860 -0.3510 -0.2568  0.0252
16573W        W32042   9.817   4.481  13.315  0.1330  0.0027  0.1680
16574W        W32043  16.069   5.222  16.376 -0.1176 -0.0109 -0.0188
16575W        W32044   7.289   7.056  13.585 -0.0944 -0.0044 -0.0731
16576W        W32045  10.356  13.574   2.138  0.0576 -0.1584 -0.0837
16577W        W32046  13.824  16.471  14.745  0.1098 -0.1585 -0.2725
16578W        W32047   8.087   9.375   4.017  0.0082 -0.0937 -0.0693
16579W        W32048   8.490  12.933  15.838  0.1710  0.0388 -0.1311
16580W        W32049   9.321  13.963  14.307 -0.2330 -0.1360 -0.1153
16581W        W32050  14.866   3.368   1.560 -0.2434  0.3373 -0.0770
16582W        W32051  11.588   5.674   1.849  0.2992  0.1052 -0.4957
16583W        W32052  13.604   1.049  12.488  0.0891  0.3004 -0.3890
16584W        W32053  11.943  15.924  13.592  0.1503  0.0953 -0.2702
16585W        W32054  10.847  10.277  16.831 -0.0943  0.2854  0.0196
16586W        W32055   7.115   2.357   4.302  0.0499 -0.2324 -0.0726
16587W        W32056  17.378   9.530   0.785 -0.1189  0.2541  0.0187
16588W        W32057  17.511  16.492   2.585 -0.0112  0.0238 -0.0251
16589W        W32058   5.950   1.340   1.506 -0.1617 -0.2490  0.1995
16590W        W32059   4.939  14.430  14.032  0.2133 -0.0940  0.2564
16591W        W32060   3.722   6.717   4.252  0.2267 -0.0261 -0.1216
16592W        W32061   4.568   1.365  14.189 -0.1866 -0.1067 -0.2103
16593W        W32062   5.962   5.781   5.627  0.0132 -0.0115 -0.2511
16594W        W32063  15.875   0.409   4.190 -0.3011  0.0789 -0.0648
16595W        W32064  10.537   8.470  14.770  0.0098 -0.0185 -0.0452
16596W        W32065   0.261  17.628   4.960  0.0606  0.1938  0.1128
16597W        W32066  11.615   6.226   6.089  0.1896 -0.2224  0.2058
16598W        W32067   8.358  11.313   0.849 -0.0269  0.1811 -0.0346
16599W        W32068  14.540   3.656   2.442 -0.1656  0.3208  0.2880
16600W        W32069   1.598   2.269   0.113 -0.1111 -0.0988 -0.1963
16601W        W32070   8.569  11.585  13.222 -0.3484  0.0516 -0.2001
16602W        W32071  13.271   5.982   0.204 -0.1967  0.1125  0.1010
16603W        W32072  12.565   1.441   1.326 -0.1060 -0.0379 -0.2170
16604W        W32073  17.509  11.067   4.737 -0.1506 -0.0134 -0.3783
16605W        W32074  15.568  12.650   1.816  0.1252 -0.1569  0.0339
16606W        W32075   8.142   8.559   4.330 -0.0980 -0.1078 -0.1077
16607W        W32076   8.998   0.604  15.222  0.1650  0.0084 -0.2708
16608W        W32077  12.166   9.610   2.312 -0.0532  0.2315 -0.0404
16609W        W32078   7.737   8.588  16.826  0.2078 -0.0332  0.1353
16610W        W32079   0.281   3.084   0.872  0.1065  0.2227 -0.0152
16611W        W32080   4.430   1.664  13.655  0.0913  0.1591 -0.3457
16612W        W32081   9.937   7.030   3.382  0.3562  0.0500 -0.0832
16613W        W32082   4.853  15.592  15.295  0.2077 -0.2587 -0.1167
16614W        W32083   2.055  12.909  14.434  0.1815 -0.1607  0.0441
16615W        W32084  14.007   0.995  15.312 -0.1128  0.0058  0.0718
16616W        W32085  14.880  10.403   0.566 -0.4766  0.0178 -0.4329
16617W        W32086  12.401  12.228  14.692 -0.0862 -0.1411  0.0777
16618W        W32087   3.801   2.821  12.814  0.0270 -0.3452  0.0295
16619W        W32088   0.631  16.855  10.239 -0.0361 -0.3112 -0.0103
16620W        W32089   1.741   5.457   0.456  0.2101 -0.2664 -0.1558
16621W        W32090   9.340   0.856  12.743 -0.0596 -0.1441  0.0738
16622W        W32091  16.570   4.339   4.077 -0.0521 -0.1841  0.0642
16623W        W32092   2.174  12.591  14.014 -0.0394 -0.2497  0.0473
16624W        W32093   5.992  15.549  12.069  0.0022  0.0888 -0.0715
16625W        W32094   2.263   1.008   3.930  0.1502  0.1302  0.0529
16626W        W32095   8.468   5.445  16.175  0.2331  0.0775 -0.1930
16627W        W32096   6.076   9.166   3.461 -0.1910 -0.0554 -0.1903
16628W        W32097  17.269  14.332  12.524  0.0521 -0.1100 -0.1556
16629W        W32098  11.560  10.332   1.711  0.0556  0.3299  0.1453
16630W        W32099  16.571   7.762   2.417 -0.0412 -0.2375 -0.1697
16631W        W32100  16.622   8.548  13.742 -0.0575 -0.1245  0.2737
16632W        W32101  14.859  10.724  12.223 -0.0622  0.1378  0.1478
16633W        W32102  14.649  13.215   4.083  0.0916  0.1171 -0.0608
16634W        W32103   3.876   4.630  14.623  0.4790 -0.0218  0.0485
16635W        W32104  10.938  16.144   6.134 -0.1122 -0.1569  0.1689
16636W        W32105  12.795  11.806  12.525 -0.0255 -0.0269 -0.1187
16637W        W32106   0.275   5.971  10.573 -0.2410  0.0333 -0.1342
16638W        W32107  17.462   8.988  16.555  0.0103  0.3518  0.2959
16639W        W32108  10.729   4.647   1.452 -0.3296  0.3754 -0.1757
16640W        W32109   1.945   9.610   4.036 -0.0477 -0.1656 -0.0132
16641W        W32110   1.674   1.613  12.003  0.2123  0.0076 -0.0007
16642W        W32111  10.462   5.160  14.317 -0.4337 -0.2830 -0.2635
16643W        W32112  17.205  16.061   2.747  0.2851  0.1739  0.3003
16644W        W32113   8.402   9.542   5.557 -0.0677  0.2431 -0.2049
16645W        W32114   7.624  15.668   1.006 -0.2236  0.0628  0.1768
16646W        W32115   0.535   9.258   4.863  0.0798  0.0323 -0.0677
16647W        W32116  16.522   9.703  14.438  0.0558  0.1721  0.1344
16648W        W32117   2.673   9.194  16.742 -0.0471 -0.1636  0.0960
16649W        W32118  16.611   3.810   4.012 -0.2148 -0.0112  0.2957
16650W        W32119  15.606  13.332  14.299  0.0310  0.0482 -0.1436
16651W        W32120   7.173   5.177   0.670  0.0471 -0.1552  0.1420
16652W        W32121   4.107   7.953   1.409  0.2829 -0.0042 -0.0423
16653W        W32122   2.055  17.672   4.741 -0.4557  0.2258  0.3072
16654W        W32123  11.912   2.706  12.287  0.0569  0.0401 -0.2924
16655W        W32124   8.040  17.511  13.816 -0.2165 -0.3847  0.1181
16656W        W32125   9.732   4.631  11.820 -0.1069 -0.1892 -0.2686
16657W        W32126   1.046   2.749  13.382 -0.0503  0.0225 -0.1322
16658W        W32127   9.466  14.238  16.730 -0.0065 -0.0620 -0.3534
16659W        W32128  11.176   5.162   3.398  0.0849 -0.1824  0.0247
16660W        W32129   0.778  17.246   0.893  0.1455 -0.2242  0.3434
16661W        W32130  15.364  15.276  16.680  0.1338  0.0089 -0.0087
16662W        W32131  16.160  11.021   4.331 -0.1562  0.1781 -0.1496
16663W        W32132   9.199   7.499   0.102  0.1321 -0.2266 -0.2223
16664W        W32133   2.793   2.272  15.014  0.1665  0.0455 -0.1585
16665W        W32134  12.260   6.550  16.058  0.1852 -0.0023  0.0327
16666W        W32135   7.622   3.404   3.650  0.3022  0.1893  0.1061
16667W        W32136  16.734   8.189  16.761  0.0741  0.1750  0.4883
16668W        W32137   5.991   4.238  15.348 -0.2260  0.0010  0.0922
16669W        W32138  13.339   7.177   4.910  0.2025 -0.0030 -0.2023
16670W        W32139   7.292  12.665   3.904 -0.3694  0.0964 -0.0519
16671W        W32140  11.493  10.375  12.223 -0.0137 -0.2907  0.1131
16672W        W32141  13.469   4.450   0.587  0.0413 -0.1142  0.1331
16673W        W32142  13.517   7.442   5.892 -0.0596  0.2958 -0.0829
16674W        W32143  15.191  12.232  11.212  0.0361 -0.0774 -0.1800
16675W        W32144  13.396   8.637  11.357 -0.2095 -0.2354 -0.0270
16676W        W32145  16.817  14.606   4.720  0.1602 -0.1288 -0.2369
16677W        W32146   8.470  16.521  11.426 -0.0674 -0.0576 -0.1398
16678W        W32147   7.443   5.267  11.680  0.2904  0.1019 -0.2081
16679W        W32148  10.078  17.012   1.005 -0.0437 -0.1818  0.3031
16680W        W32149   5.516  15.550  12.853  0.0579  0.0147  0.1130
16681W        W32150   0.682   2.858   2.097 -0.0496  0.0889  0.1312
16682W        W32151   7.393  11.378   5.133  0.0335 -0.1398  0.2267
16683W        W32152  16.592   5.744   4.845 -0.1741 -0.0062 -0.1167
16684W        W32153   2.109   9.346   4.670  0.1137  0.1133  0.0055
16685W        W32154  13.369  10.577   4.338  0.2241  0.1396 -0.2319
16686W        W32155   8.987  17.390  12.821 -0.1122  0.0892 -0.1867
16687W        W32156   4.320   6.401   1.231  0.0397 -0.2240 -0.1391
16688W        W32157  14.749   1.618   3.877  0.0132 -0.1684 -0.0738
16689W        W32158   2.412   2.119  13.872  0.2303 -0.0918  0.0199
16690W        W32159   4.698   7.329   5.396  0.0719 -0.1961  0.0674
16691W        W32160   8.070   4.518   1.368  0.1035  0.4578  0.0220
16692W        W32161  14.416   5.043   1.267 -0.1045  0.2361  0.2013
16693W        W32162  15.076   7.778   3.054  0.0504  0.0411 -0.2278
16694W        W32163   8.474   7.526   4.863  0.2801  0.1693 -0.0272
16695W        W32164   3.845   2.634  12.326 -0.4345 -0.1693  0.0969
16696W        W32165  17.407   9.093   1.667  0.1733 -0.1004  0.2757
16697W        W32166  13.028   2.177   2.572  0.2658  0.1405  0.1312
16698W        W32167  17.257   5.408  16.101  0.1930 -0.4452 -0.0503
16699W        W32168  17.251  13.687   1.698  0.0101  0.0971  0.1503
16700W        W32169   7.151  10.039   1.032 -0.0102  0.0056  0.0046
16701W        W32170   9.450  17.308  12.018 -0.1810 -0.0307  0.1948
16702W        W32171   6.848   5.610  14.885  0.0703  0.5223  0.1455
16703W        W32172   5.692   3.711   1.209 -0.0608  0.2563 -0.0644
16704W        W32173   9.413  16.448  13.143 -0.0369  0.1481 -0.2542
16705W        W32174   8.668   0.124   6.248 -0.0390  0.0308  0.0522
16706W        W32175  15.189   6.003  14.188 -0.0301  0.0777  0.0463
16707W        W32176   8.010   6.974   5.270 -0.0473  0.0843 -0.0263
16708W        W32177   8.817   5.126   5.744 -0.2585 -0.3568 -0.0153
16709W        W32178   3.667   8.220  15.965 -0.1306 -0.0399 -0.3315
16710W        W32179   3.411   9.404   4.339 -0.3326  0.1160 -0.0881
16711W        W32180   8.543  16.694   5.119 -0.4798  0.2644 -0.0015
16712W        W32181   1.574   5.567  13.667  0.3603  0.0187 -0.2022
16713W        W32182   3.417  10.350  11.637 -0.4031  0.0058  0.0589
16714W        W32183   6.543  12.913  12.381 -0.1689  0.0819  0.4111
16715W        W32184   9.673  16.525  15.959  0.0563 -0.0452  0.2914
16716W        W32185   2.025   9.468   1.843 -0.2324  0.1129  0.1914
16717W        W32186   2.848  15.190   0.538  0.0076  0.1385  0.3294
16718W        W32187   4.335  14.432   0.603 -0.0372  0.2446  0.0497
16719W        W32188   9.967  17.233   5.576  0.2530  0.1313 -0.1096
16720W        W32189   0.283   8.019  16.011 -0.2949 -0.0660  0.0912
16721W        W32190   9.761   4.524   4.862 -0.1092  0.2765  0.0178
16722W        W32191   0.334  14.728  12.752  0.0777 -0.1171  0.3714
16723W        W32192  13.907   5.102  16.078  0.0116 -0.0736  0.1140
16724W        W32193   2.829   5.648   4.077  0.2396 -0.2828 -0.1960
16725W        W32194   3.456   6.767   4.851 -0.1764  0.1957  0.3266
16726W        W32195  11.673  17.172  16.600 -0.1287 -0.1018  0.1368
16727W        W32196   8.546  17.170   4.852  0.0506  0.2348 -0.0111
16728W        W32197  11.963   3.349   6.297  0.1718  0.1089 -0.4443
16729W        W32198   4.396   7.326   4.148  0.0842 -0.0926 -0.2012
16730W        W32199   8.031   5.457   1.926  0.1781 -0.1184 -0.0172
16731W        W32200   1.037  15.842  12.389 -0.1796 -0.0591  0.0336
16732W        W32201  12.555   7.401   6.391  0.1607  0.2866  0.4975
16733W        W32202   8.917  15.140   3.044  0.1578 -0.2129  0.4748
16734W        W32203   1.536   3.628   4.816 -0.1200  0.4674  0.0565
16735W        W32204  13.369   8.778   0.011 -0.0986 -0.2792 -0.1626
16736W        W32205   8.213  14.897   1.173 -0.0583  0.2231 -0.1221
16737W        W32206   3.467   9.747  15.560  0.2082  0.0144  0.1409
16738W        W32207  14.073   4.648   1.513  0.1216  0.0869 -0.1233
16739W        W32208  11.206  15.984   0.796 -0.0344 -0.2968  0.1203
16740W        W32209   2.690  17.013  11.736  0.0794  0.0460  0.0104
16741W        W32210   6.476  14.092   0.541 -0.0258  0.1262  0.3141
16742W        W32211   2.391   7.206  16.745  0.0191 -0.0559  0.4288
16743W        W32212   5.747   9.851   0.814 -0.2020  0.0281  0.0019
16744W        W32213  16.747   1.573   1.090  0.2413  0.0198 -0.0741
16745W        W32214  12.886  11.022  13.651  0.0852  0.0654  0.0935
16746W        W32215  15.896   5.441   4.351 -0.4709  0.1882  0.3002
16747W        W32216   6.461   2.926  13.679 -0.0115  0.2257 -0.0863
16748W        W32217   9.821   0.996  14.212 -0.1557 -0.0270 -0.1395
16749W        W32218  17.001  17.320   2.128  0.2216  0.3344  0.2545
16750W        W32219  17.411   0.686  16.710 -0.0241 -0.0147  0.3126
16751W        W32220  14.444  12.947  14.637 -0.0273  0.0253 -0.3194
16752W        W32221   0.980   5.348  10.958 -0.0857 -0.0225 -0.0130
16753W        W32222  12.882   0.965   3.294 -0.3461 -0.1762 -0.2770
16754W        W32223   3.773  12.691  16.818 -0.1192 -0.1308  0.1505
16755W        W32224  14.216  12.840   2.335 -0.3442 -0.1797  0.1068
16756W        W32225  10.859   4.248   1.095 -0.0285 -0.1544 -0.0117
16757W        W32226  12.688   0.413   2.410 -0.0921  0.2183  0.3148
16758W        W32227  12.697   4.699  11.683 -0.4987  0.0726  0.4842
16759W        W32228   4.691   9.644   3.934  0.1405 -0.3236 -0.0380
16760W        W32229   4.029  10.086   0.197 -0.0066  0.0200 -0.1212
16761W        W32230   6.038   3.326  11.731 -0.0147 -0.1010 -0.1710
16762W        W32231  15.134   9.687  14.589  0.1336 -0.1097  0.0270
16763W        W32232   0.348   8.724   3.614  0.2441 -0.0330  0.3183
16764W        W32233   3.155  17.401   2.958  0.1708  0.1903  0.1712
16765W        W32234  10.637   0.795  15.540 -0.1236  0.2077 -0.2472
16766W        W32235   2.497  14.438   2.076 -0.0297  0.1020  0.5014
16767W        W32236   6.773  10.589  15.044 -0.0783  0.0224 -0.0483
16768W        W32237   3.127  13.013  12.271 -0.1839  0.1091  0.0028
16769W        W32238   7.959  13.753   4.700  0.2501 -0.0062 -0.0645
16770W        W32239  12.431  13.691  12.487 -0.2702  0.0777 -0.0219
16771W        W32240   6.931   6.121   0.772  0.0324  0.1878  0.0899
16772W        W32241  12.392  13.659  15.759 -0.0209 -0.1013 -0.1301
16773W        W32242  17.328  16.034   1.540  0.1484 -0.0240 -0.0624
16774W        W32243  11.132   1.075   4.860  0.0584 -0.3002 -0.2894
16775W        W32244  13.583   7.432   0.052 -0.1419  0.2528  0.0798
16776W        W32245   0.253  11.165   1.557  0.2647 -0.0114 -0.1203
16777W        W32246  10.038  12.265   1.011 -0.0115  0.1700 -0.0596
16778W        W32247  11.686   1.061   6.657 -0.0642 -0.2429  0.1659
16779W        W32248   9.493   7.423   5.975  0.0761  0.4680 -0.1501
16780W        W32249  12.096  15.761  14.124  0.0246  0.1157 -0.2549
16781W        W32250  12.767  11.864   5.427  0.0611  0.1456 -0.1226
16782W        W32251  10.899   2.846   5.161 -0.0367  0.0254 -0.2180
16783W        W32252   4.311  10.795  11.221  0.1579 -0.1645 -0.1280
16784W        W32253  13.259  15.079  13.167  0.0981  0.1481 -0.1271
16785W        W32254   1.722  11.204   0.557 -0.1939 -0.3035  0.0979
16786W        W32255   0.648   0.221   5.260  0.0819  0.0673  0.1063
16787W        W32256   5.115   1.167  15.119  0.0333 -0.2469 -0.0520
16788W        W32257   2.857  16.732   0.034 -0.1186  0.1116  0.0721
16789W        W32258   4.483  14.024  14.808  0.1122  0.0530  0.2398
16790W        W32259   9.925   0.116  15.410  0.0371 -0.0889 -0.0058
16791W        W32260  11.083   3.805   1.128 -0.1614 -0.0012 -0.0799
16792W        W32261   8.503  16.260   2.360  0.0614  0.3182 -0.0280
16793W        W32262  11.509  16.753  12.307 -0.1727  0.2382  0.2310
16794W        W32263   1.039  14.742   4.447  0.0253 -0.2567 -0.1247
16795W        W32264  14.041  16.508  13.349 -0.1396 -0.0375 -0.3144
16796W        W32265   5.913  13.827  12.630 -0.0489  0.3816 -0.1901
16797W        W32266  10.073   8.054   1.878  0.0048  0.0276 -0.0821
16798W        W32267  17.532   2.688   3.916  0.4461  0.3333 -0.0322
16799W        W32268   1.208   8.507  14.442  0.0491  0.4202  0.1068
16800W        W32269   1.509  16.917   0.366 -0.3413  0.1640  0.0315
16801W        W32270  10.612   7.661   3.413  0.3038 -0.0434 -0.2273
16802W        W32271   4.157  13.494  11.545 -0.2329  0.2783  0.0890
16803W        W32272   9.076   8.276  13.645 -0.0133 -0.3303 -0.0740
16804W        W32273   6.295   0.058   3.476  0.3562  0.1094  0.2078
16805W        W32274  11.867   0.001   4.604 -0.0725  0.1190 -0.0852
16806W        W32275   6.534   1.499   2.580 -0.1170  0.0675  0.1325
16807W        W32276  16.291  15.315  14.668  0.1832  0.3457 -0.0287
16808W        W32277  14.473  16.118  15.963 -0.0298  0.3229 -0.1891
16809W        W32278   2.813  16.820  13.138  0.0250  0.3011 -0.2444
16810W        W32279  10.366   9.041   3.398 -0.2631  0.1919 -0.0897
16811W        W32280  14.029   5.863  16.473 -0.1693  0.2449  0.1323
16812W        W32281   7.024   8.520   3.641  0.1772 -0.1068 -0.0171
16813W        W32282  12.084   6.315  15.614 -0.0204  0.1597 -0.2323
16814W        W32283  13.673   6.513   4.093 -0.0426  0.0176  0.0541
16815W        W32284  12.647   3.015  16.742 -0.0335  0.0825  0.0783
16816W        W32285   2.081   8.636  13.492  0.2765  0.1273  0.1422
16817W        W32286   0.030  16.886   0.548 -0.2066 -0.0602  0.0855
16818W        W32287  14.806   1.179  13.524  0.5506  0.1710 -0.1733
16819W        W32288   1.638  16.661   4.000 -0.0528  0.1649 -0.0268
16820W        W32289   8.065   4.707  16.302 -0.1482 -0.1480 -0.0483
16821W        W32290   5.390   6.763  12.055 -0.3216 -0.0250  0.1598
16822W        W32291   6.563  14.943  11.792  0.2223  0.1491 -0.1697
16823W        W32292  10.485  14.718   6.392  0.3535 -0.1609  0.2743
16824W        W32293   4.772   8.551   0.967  0.1566 -0.1223 -0.0234
16825W        W32294   9.890   0.052   1.213 -0.0884  0.0873  0.0713
16826W        W32295   9.799  17.398  16.687  0.0998  0.0285  0.0151
16827W        W32296  13.176  15.125  14.877 -0.1310  0.3040 -0.0886
16828W        W32297   1.679   9.315  12.366 -0.1286 -0.0441  0.3293
16829W        W32298  17.522   1.403   2.739 -0.1071  0.0675  0.2484
16830W        W32299   7.634   0.813   3.346  0.1219  0.0179  0.0084
16831W        W32300  11.067   0.155  16.735  0.3330 -0.0077  0.2895
16832W        W32301  14.163  14.328   5.084  0.2526  0.0161  0.2505
16833W        W32302   5.076   6.392  11.718  0.1274  0.0926  0.0209
16834W        W32303   8.469   5.880   1.574  0.2316  0.0205  0.1239
16835W        W32304  10.280  10.037   4.569 -0.0887 -0.1904 -0.1429
16836W        W32305  16.586   4.344   2.348  0.3229 -0.1310 -0.4076
16837W        W32306  11.828   7.184  15.510 -0.2186  0.0418  0.2240
16838W        W32307  14.644   8.484  12.697 -0.0360  0.0740  0.0606
16839W        W32308  14.972  12.261  16.512  0.1938 -0.0343  0.2661
16840W        W32309   5.636  15.859   3.041  0.0200  0.0451  0.0054
16841W        W32310   6.652   5.866  16.501  0.0279  0.1574 -0.0123
16842W        W32311  14.535   7.093  16.265 -0.0272 -0.0551  0.1767
16843W        W32312  14.173   6.380  12.913 -0.1308 -0.0697 -0.0507
16844W        W32313   6.114   3.152  15.722  0.1886 -0.1930  0.0822
16845W        W32314   5.304  16.171  11.909 -0.0021 -0.2594 -0.1882
16846W        W32315  10.300  11.373  14.107  0.0378  0.1065 -0.0913
16847W        W32316  14.196   2.462   1.526  0.1902  0.2119  0.0454
16848W        W32317  12.000   7.590   4.541 -0.1247 -0.0972  0.2419
16849W        W32318  17.341   1.455  15.676 -0.4786 -0.1110  0.1105
16850W        W32319   1.760   6.691   3.587  0.3362 -0.0254 -0.0338
16851W        W32320   4.295   4.945   0.675 -0.1058  0.0152 -0.0233
16852W        W32321  12.251   4.126  15.256  0.4060  0.0261 -0.3697
16853W        W32322   6.050  10.143   2.545 -0.0758 -0.0575 -0.0519
16854W        W32323   2.231  14.194   0.374  0.2158 -0.1582 -0.1907
16855W        W32324   8.044  14.364  13.280  0.0849 -0.0838 -0.3957
16856W        W32325  10.803   6.501   3.225 -0.2404 -0.0742  0.0657
16857W        W32326   5.221   1.423   4.277 -0.0532 -0.0057  0.0580
16858W        W32327   6.167   1.211   4.316  0.1801 -0.1316  0.1338
16859W        W32328   3.565  13.726   0.091  0.1849  0.2260  0.3658
16860W        W32329   1.610   0.074  15.272  0.1945 -0.3888  0.1379
16861W        W32330  11.888   0.867  13.684  0.1061  0.0077 -0.2487
16862W        W32331  13.993   1.570  11.681 -0.1108 -0.0711  0.0077
16863W        W32332  17.496  17.379   5.539 -0.0633 -0.0075 -0.2093
16864W        W32333   6.693  15.017  13.969 -0.0931 -0.1919 -0.0130
16865W        W32334  11.425  10.980  16.354  0.0194 -0.2243  0.0299
16866W        W32335  14.621   1.603  12.380 -0.0292  0.2629 -0.1007
16867W        W32336  13.102  15.270   3.950  0.0583 -0.3318  0.0367
16868W        W32337  11.128   7.936  15.579 -0.0191 -0.2694 -0.1454
16869W        W32338  10.349  16.136  16.147 -0.1311 -0.0085  0.0385
16870W        W32339  13.843  11.222  14.300 -0.0190 -0.1059  0.0063
16871W        W32340  11.468  16.573   6.088  0.0931 -0.0286  0.2022
16872W        W32341   5.593  12.820   0.615 -0.1870 -0.0482 -0.0004
16873W        W32342   1.865  15.959  11.787 -0.1819  0.0657  0.0596
16874W        W32343  10.968  16.553   1.588 -0.0084  0.1024 -0.3520
16875W        W32344  15.114   2.077   4.203 -0.1613  0.0493 -0.0045
16876W        W32345   3.974   8.489  14.203  0.0561  0.0172 -0.1982
16877W        W32346  10.563  15.787  12.307  0.0308  0.0089 -0.1328
16878W        W32347  15.235  12.808   3.297 -0.1017 -0.0199 -0.0462
16879W        W32348   6.907   1.786   5.890  0.2837 -0.0265 -0.0778
16880W        W32349   5.949   7.168  16.352  0.2115  0.0512 -0.1490
16881W        W32350   8.211   9.456  13.367  0.0268 -0.1415  0.0742
16882W        W32351  10.859  13.691   1.552 -0.1581  0.0885 -0.0400
16883W        W32352  12.539   1.734  16.151  0.1319 -0.0700 -0.0852
16884W        W32353  10.868  11.519   2.807 -0.0298 -0.0604  0.2202
16885W        W32354  11.051  16.960   4.730  0.1804  0.1717 -0.0555
16886W        W32355  11.778  12.330  13.069 -0.2893 -0.0741  0.2286
16887W        W32356  17.689   5.078  12.415  0.2797  0.2115 -0.0232
16888W        W32357  16.362   8.404  12.493  0.0000  0.0345  0.0374
16889W        W32358  15.220  13.374  13.617  0.1105  0.0129 -0.1154
16890W        W32359  11.313   3.733   5.123  0.0216 -0.1098  0.1573
16891W        W32360   3.185   1.135   3.944  0.0699 -0.2556  0.0331
16892W        W32361   6.594   0.476  11.763  0.1680 -0.0036  0.1133
16893W        W32362   1.340   1.643   4.299 -0.2657 -0.3681 -0.3186
16894W        W32363   7.323   3.547  16.239 -0.0411 -0.1122  0.0463
16895W        W32364   5.766   8.428   2.294  0.0264 -0.0887  0.2115
16896W        W32365   1.665   4.685  14.960 -0.3796  0.2046  0.0121
16897W        W32366  12.515  16.320   0.683 -0.0242 -0.3400 -0.2938
16898W        W32367  14.467   0.986  13.086  0.0731 -0.0718  0.0806
16899W        W32368   8.209   3.253  16.400  0.0195  0.1225  0.0062
16900W        W32369  12.466   8.602  15.994  0.0027 -0.0886  0.1742
16901W        W32370  13.232  13.964   0.957 -0.1793  0.1408 -0.1894
16902W        W32371   2.743   2.965  14.431 -0.2821  0.0128 -0.4600
16903W        W32372   2.920   3.851   2.630 -0.1526  0.2281 -0.3081
16904W        W32373   3.303  16.613  15.398 -0.3069  0.1201 -0.0659
16905W        W32374   7.557  10.418  16.826 -0.1212  0.1247  0.1399
16906W        W32375  16.438   8.289   0.319  0.1650 -0.2182  0.2404
16907W        W32376  15.894   5.748   1.544 -0.0326  0.0229 -0.0198
16908W        W32377  17.668  12.249  15.416  0.1019  0.2208  0.0024
16909W        W32378   3.294  16.955  13.288 -0.1265  0.0819 -0.0078
16910W        W32379   7.920  11.393  16.782 -0.0466 -0.0759 -0.0396
16911W        W32380   1.425   1.145  14.269 -0.0661  0.1352 -0.0270
16912W        W32381   8.336   1.077  15.173  0.0497 -0.0110 -0.1037
16913W        W32382   9.811  12.887   3.688 -0.1308  0.2387  0.0287
16914W        W32383  15.693   2.698   2.199 -0.2028  0.1960 -0.0607
16915W        W32384  11.606  16.734   3.268  0.0846 -0.3154 -0.0869
16916W        W32385  12.387  10.338   5.654  0.0652  0.0191  0.1164
16917W        W32386  13.042  13.378   3.838 -0.1537 -0.1254  0.1142
16918W        W32387  16.617  16.390   0.336  0.0931  0.1273 -0.1376
16919W        W32388   8.835  17.524  16.351  0.2486 -0.0319 -0.0278
16920W        W32389  13.870  11.303   4.813 -0.1007 -0.2718  0.3809
16921W        W32390   4.833   5.745  10.875  0.5161 -0.2291 -0.3820
16922W        W32391   2.795  16.039   2.585  0.4293  0.0003 -0.2217
16923W        W32392  13.163   6.674  13.235 -0.2624  0.0741  0.0921
16924W        W32393  16.422   3.974   1.776 -0.0795 -0.0110 -0.1225
16925W        W32394   8.547  12.974   5.128  0.1373  0.0063  0.4691
16926W        W32395   3.555  16.854   0.137 -0.0986 -0.5396 -0.2725
16927W        W32396  13.217  15.486   6.754 -0.3451  0.4393 -0.2462
16928W        W32397   8.461  11.651   3.147  0.0683  0.0488 -0.1039
16929W        W32398   8.986   5.723  16.760 -0.2041  0.1811 -0.1850
16930W        W32399  11.713  16.036  14.363 -0.2756  0.2396  0.0044
16931W        W32400   5.977  14.757  15.312  0.1443 -0.0716 -0.0400
16932W        W32401  16.194   4.786   5.922 -0.0487  0.2066  0.2313
16933W        W32402   4.163   1.490  11.133  0.1194  0.1527  0.0686
16934W        W32403   4.774   4.024   2.531 -0.1328 -0.0462  0.2840
16935W        W32404  12.019   8.559  12.711 -0.0890  0.0923 -0.0630
16936W        W32405   4.470   9.129  12.573 -0.3042  0.0275  0.2735
16937W        W32406   3.236   5.482  14.556 -0.0398  0.2324  0.0741
16938W        W32407  11.096   5.149   2.051 -0.1085 -0.1968 -0.3208
16939W        W32408  10.785  10.343   3.399  0.0544  0.1940 -0.0118
16940W        W32409   6.571   5.390  12.230 -0.0595 -0.0119  0.1362
16941W        W32410   8.680  15.464  15.245  0.4731  0.2598  0.0118
16942W        W32411   0.284   5.361   1.981 -0.0078  0.1508  0.2553
16943W        W32412   3.723   6.671  14.603  0.2838  0.1938  0.0100
16944W        W32413   6.081   7.313   5.536  0.1667 -0.0458 -0.1161
16945W        W32414   1.187  10.728   2.162 -0.0779  0.1319 -0.0959
16946W        W32415  10.812   5.243  10.964 -0.0386  0.1572  0.2536
16947W        W32416  16.206   0.347   1.365  0.1189  0.0531 -0.1088
16948W        W32417   3.460  17.229  13.794  0.0819 -0.1349 -0.1129
16949W        W32418   0.092  15.137  12.986 -0.0129 -0.0606 -0.2688
16950W        W32419  16.201   2.703   1.297  0.1158  0.0254 -0.0199
16951W        W32420  11.948  12.702  14.297 -0.1391 -0.1370 -0.0272
16952W        W32421   1.761  13.404   0.106 -0.1418  0.0226 -0.2685
16953W        W32422   5.001   3.342   4.997  0.0033 -0.2450 -0.1014
16954W        W32423   5.554  15.149   2.216 -0.2838 -0.2794 -0.2546
16955W        W32424  14.836  14.249  15.083  0.0035  0.2287  0.3125
16956W        W32425   2.127  17.104  15.739 -0.1939 -0.1497  0.1825
16957W        W32426   9.927   8.129  14.950 -0.0678 -0.1924  0.1701
16958W        W32427  17.611  13.049   3.915 -0.2938  0.2223  0.1570
16959W        W32428   5.454  11.718  11.950  0.1248 -0.3288  0.2741
16960W        W32429  16.054  13.387  10.578  0.0128 -0.1299 -0.2915
16961W        W32430   2.109   2.668   2.943  0.0483  0.0839 -0.0383
16962W        W32431   0.042  13.400   2.572 -0.0936 -0.0002  0.2994
16963W        W32432   1.263   6.028   1.940  0.2292  0.2047 -0.0975
16964W        W32433  15.093   9.899   0.530 -0.1257  0.1597  0.1653
16965W        W32434   2.765   0.647  13.180  0.0465 -0.0270  0.2827
16966W        W32435  16.603   8.128  10.875 -0.0176 -0.0362  0.0552
16967W        W32436   7.510  15.553   4.201  0.1897 -0.1239 -0.0934
16968W        W32437   9.732  16.857  13.153 -0.0947  0.4799  0.1818
16969W        W32438   6.683   4.088   5.718 -0.1520 -0.3129  0.2285
16970W        W32439   7.352   3.872   0.358  0.3216  0.0724 -0.0796
16971W        W32440  11.815   0.528   5.258 -0.1690  0.1186  0.4067
16972W        W32441  13.014  12.345  13.978  0.2152 -0.2020 -0.0781
16973W        W32442   2.990  14.166  13.845 -0.1639  0.0990  0.0386
16974W        W32443   7.723  17.711  16.455  0.2883  0.0906  0.1400
16975W        W32444  10.851   2.164   3.832 -0.3878 -0.2758  0.0893
16976W        W32445   4.646   1.867   2.887 -0.1678 -0.2058 -0.1958
16977W        W32446   7.905  13.616   2.320 -0.1223  0.0356 -0.1357
16978W        W32447  11.687  14.123   4.952  0.3859 -0.0250 -0.3139
16979W        W32448   8.916   9.083   2.212 -0.1737 -0.0248  0.1583
16980W        W32449   2.445   7.748  16.485 -0.0159 -0.0925 -0.1069
16981W        W32450   3.299   0.035  12.222 -0.2320 -0.0811  0.2669
16982W        W32451  10.727  16.093   4.723  0.2975  0.0714  0.0410
16983W        W32452   6.743   8.120  14.654  0.3599  0.0361 -0.3589
16984W        W32453   4.285  11.537  13.717  0.3049  0.0233 -0.0257
16985W        W32454  17.135  17.096  12.841 -0.2956  0.0129  0.0267
16986W        W32455  16.486  17.666  15.582 -0.0091  0.2114 -0.1685
16987W        W32456   5.796  13.434  13.023 -0.0111  0.0051  0.2384
16988W        W32457   4.341  15.267   2.361 -0.1999  0.0088  0.0019
16989W        W32458  17.519   4.425   3.241  0.3853  0.0606 -0.0035
16990W        W32459   5.599   4.686   2.105 -0.1165  0.2087  0.1738
16991W        W32460   9.748   8.929  14.683  0.1009 -0.0582 -0.1797
16992W        W32461  14.579   9.548   5.613 -0.0799 -0.1200  0.2096
16993W        W32462   7.962  13.422   1.608 -0.2286 -0.0154  0.0564
16994W        W32463  12.564   4.469   0.468  0.2234 -0.3366 -0.0171
16995W        W32464   8.139   0.300   1.967  0.0962 -0.2851  0.0532
16996W        W32465  10.164   9.004   2.208 -0.0790  0.0253  0.0169
16997W        W32466   2.599   7.677  11.443  0.0347 -0.2080  0.0642
16998W        W32467  15.697   6.313  11.264  0.0024  0.1773  0.0395
16999W        W32468   3.616   2.250   5.020 -0.1131 -0.2853 -0.1376
17000W        W32469  14.408  13.367   3.382  0.0131 -0.1611 -0.3340
17001W        W32470  17.517   6.700   4.699 -0.1003 -0.0327 -0.2127
17002W        W32471  11.560  15.253   6.201 -0.0126 -0.1187  0.1663
17003W        W32472  15.934   5.460   2.537 -0.1069  0.0692 -0.0501
17004W        W32473   9.850   9.131   2.631  0.4380 -0.0219 -0.1458
17005W        W32474   5.147  11.538   2.866 -0.1686 -0.1003  0.0154
17006W        W32475   1.315  11.735  15.825 -0.1148  0.1042 -0.2009
17007W        W32476  13.261  16.905   5.901  0.0327 -0.0720  0.1184
17008W        W32477   8.874  14.579  12.257  0.1813 -0.1338 -0.0928
17009W        W32478   8.674   3.895  11.710 -0.0951 -0.1231  0.1937
17010W        W32479   5.885   2.507   2.955  0.0681 -0.1988 -0.0234
17011W        W32480  15.831  12.820   2.245 -0.1356  0.0615  0.0283
17012W        W32481  16.566   7.441   2.872  0.0294 -0.1087  0.1621
17013W        W32482   4.279   5.299   1.995 -0.0378  0.0356 -0.1116
17014W        W32483  10.993  15.824   5.609  0.1956  0.2667 -0.0365
17015W        W32484   2.696   6.451  11.495  0.1369  0.4078  0.0371
17016W        W32485   3.503  10.738  14.784 -0.1627  0.1524 -0.1540
17017W        W32486   2.552  12.189   2.545  0.0331 -0.3146 -0.0640
17018W        W32487   5.394  10.040   2.175 -0.0120 -0.0422  0.2517
17019W        W32488  10.362  12.985   0.919 -0.2609  0.1677 -0.0740
17020W        W32489   9.832  15.962   0.281  0.3348  0.3172  0.1533
17021W        W32490   4.048  15.678  11.220 -0.2622 -0.0100 -0.1244
17022W        W32491  13.561   1.838  16.184 -0.0298 -0.0995  0.0196
17023W        W32492   7.355  11.755   3.823  0.1540  0.0392 -0.2660
17024W        W32493   0.194   1.519  16.341  0.0780  0.2518  0.2430
17025W        W32494   7.027  17.244  13.515 -0.2057 -0.0275  0.0843
17026W        W32495  14.685   9.587  14.744  0.0160  0.1064  0.2060
17027W        W32496  10.918  16.740  13.548  0.2824 -0.0507  0.0403
17028W        W32497   3.807   7.076  13.886 -0.3697 -0.1899 -0.1837
17029W        W32498  17.454  12.739  16.807  0.2027 -0.2411 -0.0858
17030W        W32499   1.563   2.148  12.561 -0.1703 -0.1506  0.0644
17031W        W32500  16.886   5.122  15.919 -0.2148  0.3844  0.1751
17032W        W32501  16.917   8.845   1.809 -0.0982  0.3087 -0.3703
17033W        W32502   5.348   6.919  16.202 -0.0250  0.2574 -0.1767
17034W        W32503   9.172  10.672  16.340 -0.2521  0.3396  0.2753
17035W        W32504  12.223   5.154   3.942  0.1340 -0.1256 -0.0237
17036W        W32505   3.504   8.415   3.297 -0.1994  0.1837  0.1671
17037W        W32506  15.049   5.796  16.673  0.2620  0.1912 -0.0766
17038W        W32507  10.122  16.326  15.748 -0.0913 -0.2075 -0.1832
17039W        W32508   5.337  14.349  15.663 -0.0614 -0.2615  0.0769
17040W        W32509  15.746  10.371   0.375  0.2884 -0.2499  0.0201
17041W        W32510  10.875  10.510  13.374 -0.4740  0.0033 -0.0621
17042W        W32511  15.829   9.471   0.526 -0.1054  0.3331 -0.1489
17043W        W32512   9.034   8.349   6.067  0.0401 -0.1982  0.1850
17044W        W32513  17.123  11.781  16.701 -0.0839 -0.1487 -0.3997
17045W        W32514   0.608   1.038   1.963  0.1143  0.3083  0.2253
17046W        W32515  15.445   5.439  14.062  0.1580 -0.1086 -0.0991
17047W        W32516   6.961  10.812  13.450  0.0893  0.3901 -0.2226
17048W        W32517  11.025  11.525   4.288 -0.0887  0.1207 -0.0261
17049W        W32518   5.181  12.200  12.960 -0.0345 -0.1099 -0.1776
17050W        W32519  13.912   9.887   0.555 -0.0481 -0.0307 -0.0175
17051W        W32520  10.684  13.511  14.078  0.1278 -0.0909  0.1754
17052W        W32521  11.361   8.235  15.195 -0.0935  0.0829  0.0746
17053W        W32522   6.349  10.735  15.408 -0.5212 -0.2536 -0.0224
17054W        W32523   3.521   0.948  11.592  0.0070  0.1732 -0.1158
17055W        W32524  15.539   7.024  15.946 -0.1608 -0.2254 -0.2191
17056W        W32525   0.924  13.126   3.236 -0.4248  0.1302 -0.1718
17057W        W32526   9.919  15.841  16.648  0.0012 -0.1003 -0.0608
17058W        W32527   7.508   5.293   5.635  0.2342  0.1757 -0.2641
17059W        W32528   5.193   2.178  16.661  0.2676 -0.4612  0.0498
17060W        W32529  16.761  15.205  12.915  0.0973 -0.0484  0.2974
17061W        W32530   7.780  15.144   1.008  0.0122  0.0222 -0.1007
17062W        W32531   0.885   5.840   2.848 -0.1303  0.0633 -0.1438
17063W        W32532  10.060   5.862  14.013 -0.0280 -0.2161  0.0938
17064W        W32533   5.609   0.986   3.178  0.0612  0.2332 -0.0793
17065W        W32534   7.082  10.293   4.364  0.1481  0.0512  0.0282
17066W        W32535   2.961  11.778  13.753  0.1336  0.5497  0.2145
17067W        W32536  14.482   3.359   5.189 -0.1460  0.0058  0.0331
17068W        W32537   8.036   8.398   4.835  0.1231 -0.0670 -0.4047
17069W        W32538  16.067  12.033  11.849 -0.0123 -0.0047 -0.0386
17070W        W32539   0.373   0.276   0.264  0.4604 -0.0029 -0.0972
17071W        W32540   1.261  14.267   0.713 -0.2322  0.2412  0.0978
17072W        W32541   0.871   7.993  10.850 -0.0193 -0.2233 -0.1217
17073W        W32542   7.701  16.874   2.438  0.0325 -0.1632  0.0868
17074W        W32543  16.447   2.185   1.530  0.0089 -0.0616  0.0974
17075W        W32544   6.880   0.512   2.330  0.0728 -0.0330 -0.0711
17076W        W32545   5.966   5.622   5.114  0.0755  0.0539  0.1187
17077W        W32546   1.869   9.130  12.809 -0.4001  0.1041  0.0497
17078W        W32547   5.112   2.340   6.683 -0.0501 -0.0625 -0.0735
17079W        W32548  13.817   6.545  13.756  0.1080  0.3971 -0.2043
17080W        W32549  17.463  13.081  14.223  0.0773  0.1135 -0.2501
17081W        W32550  14.821   8.201   2.953 -0.1804  0.0037 -0.1021
17082W        W32551  17.668  15.402   3.893  0.1658  0.0348  0.0834
17083W        W32552   7.659  10.648   3.499  0.5240  0.0629  0.0842
17084W        W32553  13.755   2.363   5.634 -0.1253 -0.1552  0.0715
17085W        W32554   6.320  12.403  13.682 -0.1655  0.0265  0.0079
17086W        W32555  10.556  10.731  14.960 -0.0931 -0.1046  0.0232
17087W        W32556   9.252  11.674   2.036  0.0605  0.3887  0.1095
17088W        W32557   1.436   7.525  14.280  0.1141  0.2060  0.2636
17089W        W32558   0.753  10.656   1.323 -0.0194  0.0730  0.2329
17090W        W32559   9.787  10.126   5.805  0.1020  0.2109 -0.0272
17091W        W32560  10.614   3.604   4.006  0.0237  0.3077  0.4773
17092W        W32561   9.638   2.287  12.933 -0.5980 -0.0181  0.0845
17093W        W32562   0.326   0.695  12.552 -0.2027 -0.3066 -0.0572
17094W        W32563   0.659   6.585   4.285 -0.0508 -0.2149  0.0365
17095W        W32564  17.675   4.485  15.941  0.2986  0.0255  0.0402
17096W        W32565   6.868  10.498   2.387 -0.3591 -0.0452  0.0858
17097W        W32566  14.077   1.176  15.828 -0.0648 -0.1839 -0.1319
17098W        W32567  14.602   4.118  14.949 -0.0285  0.1368 -0.0737
17099W        W32568   2.937   4.424  16.524 -0.2049 -0.2149 -0.0387
17100W        W32569  12.590   3.033   3.222 -0.3166  0.3207  0.0321
17101W        W32570   0.398   5.846   5.559  0.1599 -0.2430  0.0204
17102W        W32571   0.340  10.625  15.676 -0.0277  0.0999  0.0463
17103W        W32572  14.024  17.122  16.708 -0.0350 -0.1475 -0.2357
17104W        W32573   1.248   5.470   2.044  0.1727  0.0347 -0.1509
17105W        W32574   9.339   5.359  11.928 -0.3622 -0.1390  0.2136
17106W        W32575  16.424  14.332   0.610  0.1022  0.0372 -0.3258
17107W        W32576   0.356  13.828   4.197 -0.2121  0.0463  0.0487
17108W        W32577  10.142   3.822  14.663  0.0056 -0.0781  0.0029
17109W        W32578   5.330   0.440  12.201 -0.3328  0.1587 -0.4164
17110W        W32579  16.471  16.818   3.229 -0.0635 -0.0467 -0.1600
17111W        W32580   9.140   9.125  15.292 -0.1931  0.0912  0.3178
17112W        W32581   1.781  13.931   3.440 -0.0134  0.0517 -0.2825
17113W        W32582   1.268  14.297  12.794  0.1944  0.3705  0.1049
17114W        W32583  12.480   8.840  11.813 -0.1021  0.3894 -0.0896
17115W        W32584   3.156  10.324  13.361  0.0626 -0.3262  0.0898
17116W        W32585  12.210   9.476  12.640 -0.2512 -0.0715  0.1201
17117W        W32586  11.888  13.027   1.962  0.0625  0.0251 -0.0581
17118W        W32587   9.245   8.959  11.243 -0.0152  0.4407  0.0621
17119W        W32588   1.622   5.120   4.534 -0.0926  0.1982 -0.0528
17120W        W32589  17.636   4.386  12.077 -0.0135 -0.0721  0.0876
17121W        W32590  12.304  14.653  14.812  0.2354  0.0591  0.3710
17122W        W32591   4.042  15.346   2.826 -0.1249 -0.1883  0.0018
17123W        W32592  17.579  11.480  11.504  0.0610  0.0288 -0.0155
17124W        W32593   0.253   5.256  12.170  0.2176  0.2845 -0.0071
17125W        W32594   7.432   3.768   4.721  0.0336  0.1736 -0.1524
17126W        W32595   2.043   6.940  15.806  0.1555 -0.0805  0.0567
17127W        W32596  14.438   9.455   3.771 -0.0915  0.0372 -0.0753
17128W        W32597  16.935  10.074   4.770  0.1077  0.0727 -0.0441
17129W        W32598   5.992  17.457  13.071 -0.0786  0.1809  0.1309
17130W        W32599   6.792  12.857   1.839  0.1147  0.0598  0.2250
17131W        W32600   4.134   9.048  12.999 -0.2378  0.0187 -0.1278
17132W        W32601  15.773   8.226  12.744  0.0379 -0.1026 -0.2239
17133W        W32602   0.942  11.865   1.226  0.2615 -0.0506  0.0393
17134W        W32603  13.924   6.858   0.586 -0.1798 -0.3718  0.0156
17135W        W32604  16.103   7.091   2.831  0.0631 -0.0173 -0.0337
17136W        W32605   1.086  14.241   3.788  0.1718  0.0407  0.3258
17137W        W32606  13.016  13.225  14.767  0.0433  0.3603 -0.0787
17138W        W32607  17.299  14.340   4.336  0.1226 -0.0027  0.1118
17139W        W32608  17.527  16.259  16.145 -0.1883 -0.0170 -0.2266
17140W        W32609   8.367  15.321  13.698  0.1369 -0.1097  0.0001
17141W        W32610   2.289  11.474  13.022 -0.0100 -0.1177 -0.2095
17142W        W32611  13.076   5.906   2.004  0.0833  0.0775 -0.1876
17143W        W32612   7.459  13.925   0.609  0.1472  0.0342  0.1432
17144W        W32613   0.886   8.006   0.594 -0.1652 -0.0469  0.0002
17145W        W32614  12.290   5.472  13.352 -0.1882  0.3300  0.0269
17146W        W32615  16.098  12.067   9.857 -0.0314 -0.0609  0.1026
17147W        W32616  15.360   8.498  16.646 -0.2218 -0.0811  0.3264
17148W        W32617  14.424  12.457  11.546  0.1516  0.0529 -0.1434
17149W        W32618  13.008  11.723  14.150  0.2063 -0.0942 -0.1599
17150W        W32619  14.786   9.398  12.431 -0.1626 -0.0394 -0.0690
17151W        W32620   8.110  12.235   5.058 -0.0041 -0.2111 -0.1471
17152W        W32621  15.127   0.526  13.747  0.2491  0.0405  0.1621
17153W        W32622   2.775   0.159   4.295  0.0012 -0.0834  0.1404
17154W        W32623   1.696  17.639  14.344 -0.1260 -0.0560  0.0540
17155W        W32624   5.926  11.721   4.795  0.2052  0.1732  0.0172
17156W        W32625  10.384  17.622   6.831 -0.1753  0.2164  0.1328
17157W        W32626   7.632  12.913   3.665  0.1981 -0.1359 -0.1245
17158W        W32627   4.343  12.817  12.970  0.0022  0.0275 -0.4158
17159W        W32628  10.131  16.697  16.126  0.2238 -0.1658 -0.0033
17160W        W32629  11.756   9.648  13.964 -0.0324 -0.0238 -0.2674
17161W        W32630   8.077   0.164  12.989  0.2388 -0.2380 -0.1584
17162W        W32631   1.787  13.314   0.656  0.2600  0.0344 -0.3620
17163W        W32632   9.580  16.357   3.362 -0.0199  0.3130  0.0048
17164W        W32633  17.610   8.566  11.205 -0.1800 -0.2674  0.1579
17165W        W32634   6.355   3.497   0.161 -0.0330 -0.0801 -0.0204
17166W        W32635   3.872  15.492  15.384 -0.3734  0.1617  0.1081
17167W        W32636   7.667  15.483   6.188  0.0044 -0.0096 -0.1290
17168W        W32637   0.826  10.663  14.110 -0.1614  0.1489 -0.0189
17169W        W32638   2.322   1.576  11.195 -0.0126  0.1838  0.1338
17170W        W32639  10.563   5.721   3.682  0.1965 -0.1897  0.0352
17171W        W32640  11.762   6.600   2.277 -0.0972 -0.0519 -0.1309
17172W        W32641  12.229  12.549   3.367  0.1457  0.3558 -0.1163
17173W        W32642   1.166   8.187   1.944  0.0004  0.1658 -0.0214
17174W        W32643   5.599  11.609  16.752 -0.0909 -0.1866  0.0433
17175W        W32644  15.551   9.909   2.538  0.1940 -0.0179  0.0372
17176W        W32645  12.565  15.936   2.580 -0.0993  0.0550  0.0110
17177W        W32646   1.403   2.625  14.252 -0.2453  0.0842 -0.0096
17178W        W32647   6.380  10.234   4.297  0.2166 -0.0669 -0.0633
17179W        W32648  16.249  13.140  13.737 -0.0386 -0.0447 -0.0912
17180W        W32649   2.292  14.940   1.515 -0.0613  0.0111  0.0814
17181W        W32650  16.414  13.519  13.948 -0.0262  0.1296 -0.2114
17182W        W32651   1.291   4.909   4.952  0.2158 -0.1567  0.1111
17183W        W32652   2.501   0.940  14.810  0.0399 -0.1158 -0.1293
17184W        W32653   3.640   2.178   5.567  0.0649 -0.0214 -0.0263
17185W        W32654  15.224   9.403  16.617 -0.2130  0.1286  0.0236
17186W        W32655   7.926   9.830  10.798  0.1094 -0.2976  0.2803
17187W        W32656   4.163  16.250   3.066  0.0043 -0.0425 -0.0592
17188W        W32657   1.839   4.729  11.078 -0.0558  0.0175  0.0077
17189W        W32658   8.978   7.257  16.277 -0.0170 -0.0293  0.0251
17190W        W32659  10.251  17.677  15.807  0.0599  0.1825 -0.1547
17191W        W32660  10.450  17.012   3.576  0.0010 -0.0704 -0.2083
17192W        W32661  13.526   7.569  14.441  0.2854 -0.0150  0.0951
17193W        W32662  17.501  14.211  15.961 -0.2154 -0.0476  0.1910
17194W        W32663  13.459   9.602   0.327 -0.0201  0.0897 -0.0404
17195W        W32664   4.436   1.622  16.207 -0.0277  0.1043 -0.0494
17196W        W32665  17.486   9.765  15.750  0.0464 -0.2648 -0.0612
17197W        W32666  17.136  12.918   5.867 -0.3965  0.2004 -0.0145
17198W        W32667   7.676   7.799   0.223  0.0800  0.0458  0.2775
17199W        W32668   3.914  14.774   4.341  0.1306  0.0742  0.2804
17200W        W32669   5.473  11.635   1.494 -0.4407 -0.4369  0.0122
17201W        W32670   7.983  15.526   4.392 -0.1318 -0.0402  0.1900
17202W        W32671   6.165   1.860   5.228  0.3537  0.2280  0.0848
17203W        W32672  12.153  16.969  14.354 -0.1974 -0.2341 -0.1056
17204W        W32673   4.220   4.194  13.779  0.0318 -0.1742  0.3646
17205W        W32674  10.646  12.212  16.190 -0.2039  0.0086  0.3171
17206W        W32675   1.212   7.129  11.650 -0.0232 -0.2017  0.0410
17207W        W32676  11.415  13.121  15.139 -0.0554 -0.2405 -0.2059
17208W        W32677  15.711  12.468   3.144 -0.0402  0.2807  0.0540
17209W        W32678   5.070  12.464  15.784 -0.2164  0.1539  0.0580
17210W        W32679   3.111  16.882  14.239 -0.1118 -0.1023 -0.3365
17211W        W32680  11.101   0.829  14.786 -0.2261  0.1587  0.3925
17212W        W32681   8.307   3.293  13.016 -0.1964  0.3714  0.0726
17213W        W32682  10.319   3.260   2.958  0.2190  0.1048  0.0669
17214W        W32683   5.800   5.453   3.755 -0.1794  0.1832 -0.0266
17215W        W32684  16.303  10.274  15.934 -0.0573  0.0121 -0.0787
17216W        W32685   2.941  11.271  15.803 -0.0298  0.1752  0.1131
17217W        W32686   4.651  15.923  15.696  0.0816 -0.2034  0.0532
17218W        W32687   3.062   7.562   2.151  0.0103  0.0436  0.1107
17219W        W32688   7.054  12.703  14.449 -0.1153 -0.3314  0.0436
17220W        W32689  11.584  13.610   3.763  0.5131 -0.1052  0.2791
17221W        W32690   2.747  17.156  16.736 -0.0044 -0.1175  0.1165
17222W        W32691   5.096  12.635  13.249  0.1463 -0.1151 -0.0193
17223W        W32692  11.853   2.111   6.512  0.6172  0.0311 -0.1277
17224W        W32693  11.381   4.209   0.128  0.2389  0.1951  0.5163
17225W        W32694  11.463  14.353  16.476 -0.2016 -0.0080  0.2530
17226W        W32695  16.201  10.091  11.783  0.0342  0.0216 -0.2351
17227W        W32696  12.267   6.573  16.829 -0.0676 -0.0082  0.3174
17228W        W32697  12.742  13.484   4.338 -0.2389  0.1905  0.0000
17229W        W32698   8.111  14.589   4.865 -0.0565 -0.2088  0.1615
17230W        W32699   9.691  11.235   1.961 -0.1922 -0.1532  0.1937
17231W        W32700   6.380   1.482   0.003 -0.0369  0.3605  0.2517
17232W        W32701   1.044   5.339  15.582  0.1841  0.1288  0.0627
17233W        W32702   3.390   8.658  15.949  0.0426 -0.3251  0.0289
17234W        W32703   2.170   2.997   2.007 -0.0154 -0.3014  0.0786
17235W        W32704  10.238  13.664   5.479 -0.1656 -0.1021  0.0773
17236W        W32705   8.142  15.418  13.139 -0.0538 -0.2290  0.0733
17237W        W32706   5.160  13.580   3.472  0.1418  0.2707 -0.3091
17238W        W32707  14.577   4.786   4.731  0.0320 -0.4768 -0.2779
17239W        W32708  10.204   1.467  14.970 -0.4155 -0.2048 -0.0125
17240W        W32709  16.053   5.736   3.736 -0.2130  0.2600 -0.0831
17241W        W32710   0.521  17.294  13.736 -0.0747  0.2142 -0.0190
17242W        W32711   8.025  17.569  12.674  0.1154  0.0820 -0.2098
17243W        W32712   7.004  14.173  15.682 -0.0220 -0.1152 -0.1380
17244W        W32713  14.111   9.570   5.146 -0.1607  0.0248 -0.0850
17245W        W32714  17.661  14.834   1.661  0.0383  0.0834 -0.1178
17246W        W32715  14.035   5.422   4.820  0.2075 -0.1180 -0.0569
17247W        W32716   7.687  13.993   0.112  0.0392 -0.1278 -0.3232
17248W        W32717  14.398  15.770   0.144  0.1606 -0.0618  0.1424
17249W        W32718  16.604  13.960   5.237 -0.2617  0.1060  0.1508
17250W        W32719   7.677  14.904   5.561  0.1464  0.3471  0.1486
17251W        W32720   7.928  16.777   0.796  0.0671  0.0704 -0.0967
17252W        W32721   4.347  14.606   4.087  0.2931 -0.1006 -0.0175
17253W        W32722   8.284  16.249  16.063 -0.0656  0.0148 -0.0890
17254W        W32723   0.468  16.362  15.527  0.0465 -0.1589  0.0843
17255W        W32724  16.463  13.557   5.523 -0.0516 -0.0828 -0.0873
17256W        W32725   3.965   6.870   1.429  0.0023 -0.0966 -0.0342
17257W        W32726   2.009  12.178  10.685 -0.2786 -0.1193  0.3141
17258W        W32727  15.606  11.709  11.303  0.0059 -0.1477 -0.1141
17259W        W32728   9.888   0.772  11.638  0.0602 -0.0594 -0.1439
17260W        W32729   2.789  14.960   1.899  0.2453  0.2016  0.1704
17261W        W32730  13.700   3.094  12.085  0.0220 -0.1270 -0.0850
17262W        W32731   3.771   2.118  11.675  0.2639  0.0674  0.1628
17263W        W32732   1.287   2.812  12.642 -0.2138  0.0954 -0.0735
17264W        W32733   5.203   0.607  14.625 -0.2414 -0.2252 -0.1823
17265W        W32734  16.631   2.135  14.006 -0.2564  0.1916  0.0033
17266W        W32735  17.443  12.813   0.944 -0.2178 -0.1414  0.2298
17267W        W32736  15.505  15.463   3.668 -0.1851 -0.0499 -0.0765
17268W        W32737  17.759   5.769   3.609  0.3819 -0.0817  0.1891
17269W        W32738  10.967  13.805  13.843 -0.0239 -0.2033 -0.2085
17270W        W32739   4.617  15.635   1.799  0.3144  0.1752  0.1750
17271W        W32740  10.151  11.140   3.432  0.1649 -0.2062  0.0781
17272W        W32741  10.661  14.819   0.391 -0.1213 -0.0881  0.0039
17273W        W32742   3.661   9.912  11.425 -0.2836 -0.0350  0.1310
17274W        W32743   2.927   2.634   3.428 -0.0258 -0.3359 -0.0831
17275W        W32744   1.820  15.147   2.853 -0.1131  0.1158  0.4908
17276W        W32745   6.065  12.966  12.925 -0.1043 -0.0911  0.2210
17277W        W32746  15.866  12.585  11.806  0.1819  0.3983 -0.1571
17278W        W32747  11.905  13.073   4.470  0.0475  0.2531 -0.1673
17279W        W32748  16.244  16.296  11.255 -0.2129  0.0030  0.3210
17280W        W32749   3.273  10.854   3.559 -0.0119 -0.2348 -0.0771
17281W        W32750  10.550   9.458   3.125  0.1035 -0.2978 -0.3379
17282W        W32751  10.153   4.954   4.856  0.3535 -0.0501  0.2021
17283W        W32752  15.319  17.504  15.660  0.3832 -0.1550 -0.1471
17284W        W32753   4.757   9.616  16.182  0.3204  0.1378 -0.0593
17285W        W32754   3.594  16.710  14.445 -0.2242  0.1310  0.2440
17286W        W32755   9.868   3.924   4.251 -0.1157 -0.0119 -0.2042
17287W        W32756  14.053  14.765   5.460 -0.4208  0.0865  0.0575
17288W        W32757   4.565  17.672   2.316 -0.0503 -0.0343 -0.0695
17289W        W32758  11.139   1.235   3.470 -0.0845 -0.1314 -0.0535
17290W        W32759   4.157   8.170   4.323 -0.1357 -0.0701 -0.2206
17291W        W32760  14.325  13.815  13.643 -0.0860  0.1062 -0.0220
17292W        W32761   6.854   3.825   3.600 -0.0637  0.1570  0.2590
17293W        W32762  16.222   9.786   4.132  0.0467  0.2292 -0.0686
17294W        W32763   7.091   9.482   0.058  0.0232 -0.1152 -0.0162
17295W        W32764  14.188   0.163   2.171  0.0363  0.1228 -0.2224
17296W        W32765   1.195   5.825  10.948 -0.1746 -0.1164 -0.0618
17297W        W32766  12.462   7.825  15.403 -0.3085 -0.0168  0.1008
17298W        W32767  12.773  15.808   0.561  0.0615  0.0895 -0.0512
17299W        W32768  13.379   0.064  14.498 -0.4105  0.1025  0.2018
17300W        W32769   7.462   5.896   1.702 -0.0009 -0.1472 -0.0314
17301W        W32770   7.101   2.579   1.533  0.2854 -0.0129 -0.0336
17302W        W32771  13.822   0.891  14.826  0.3344  0.1452 -0.1104
17303W        W32772  10.599  12.369   5.811  0.0105 -0.0575  0.1752
17304W        W32773  14.430  13.457   2.109  0.1638  0.0588 -0.1202
17305W        W32774   9.931   7.867  12.913  0.0162 -0.0055  0.0679
17306W        W32775  14.416  17.647   1.368  0.1753  0.0349 -0.1591
17307W        W32776   8.419   4.608   0.889 -0.0555  0.0775 -0.0504
17308W        W32777  11.478  12.387   2.992  0.0888 -0.2814  0.2360
17309W        W32778  14.343  17.747   4.001 -0.0870  0.0493 -0.0570
17310W        W32779  12.892   4.266  15.509 -0.1180  0.0466  0.3009
17311W        W32780  12.910  13.855   0.559 -0.2797 -0.1909 -0.0001
17312W        W32781  13.982  12.364  15.100 -0.1445  0.1253  0.0427
17313W        W32782   1.634  14.075  13.058  0.1137 -0.1186  0.2272
17314W        W32783   1.171   5.857  11.987  0.0892  0.1528 -0.0581
17315W        W32784   4.366   2.786  12.984 -0.0233  0.0509  0.1472
17316W        W32785  17.590   3.174   1.468  0.0308 -0.0250 -0.0918
17317W        W32786  15.791   1.561   4.676 -0.0082  0.0586  0.0914
17318W        W32787   8.514   3.068  14.829  0.0719  0.3604  0.0409
17319W        W32788  14.988  10.524  10.365  0.2560 -0.0356 -0.2441
17320W        W32789  11.422   4.455   5.727  0.0267 -0.0855  0.0871
17321W        W32790   7.428  16.652   0.021 -0.0827 -0.2452  0.1755
17322W        W32791  16.800  13.848  15.805  0.1943  0.0421  0.1294
17323W        W32792  10.584   2.420   1.328  0.0057  0.0435  0.1527
17324W        W32793   3.624   4.851   0.375  0.0928  0.0320  0.2474
17325W        W32794   3.266   1.847  11.674 -0.1819 -0.1802 -0.0453
17326W        W32795   0.172   5.508  13.993  0.1865  0.0392  0.2996
17327W        W32796  11.133   3.103   6.019 -0.0531 -0.3066  0.2604
17328W        W32797   7.671  12.103  14.794 -0.0637 -0.0497 -0.1354
17329W        W32798  10.585  14.983   5.077 -0.0148  0.2481 -0.1930
17330W        W32799  16.734   9.107   2.224 -0.2956 -0.0844 -0.0790
17331W        W32800  15.486  15.047   2.071  0.2080 -0.0626  0.1818
17332W        W32801  13.735  17.539   1.674 -0.0769 -0.0506 -0.1560
17333W        W32802   4.474  13.602  16.770  0.1080 -0.0551  0.4113
17334W        W32803  14.428  12.022  12.926  0.1796 -0.4353 -0.0204
17335W        W32804  14.893  14.890  15.700  0.0082 -0.3516  0.0584
17336W        W32805  14.848  14.718   3.386  0.2965  0.1584 -0.0229
17337W        W32806  11.061   6.056  11.549  0.1462  0.0503 -0.1869
17338W        W32807   6.001   8.913   2.063 -0.0770  0.0059  0.0830
17339W        W32808  12.039   0.664  15.242 -0.1407  0.2318  0.1435
17340W        W32809   7.253  16.321  16.063 -0.0459  0.0198 -0.1741
17341W        W32810   1.961   2.655   4.457 -0.0438  0.1056 -0.0667
17342W        W32811   5.241  13.764   0.678 -0.0583 -0.0493 -0.2974
17343W        W32812  11.502   0.724  13.373  0.2596  0.2525  0.0289
17344W        W32813   5.233  13.588   5.368  0.2093  0.0156 -0.0587
17345W        W32814  14.093   0.133   3.061 -0.0219  0.0385 -0.1362
17346W        W32815  16.010   8.044   0.109  0.2071  0.0114  0.1183
17347W        W32816   8.098  14.285  15.420  0.2876  0.0093  0.0380
17348W        W32817  15.570  16.843  15.116  0.2694 -0.2263 -0.0281
17349W        W32818   4.659   8.912   0.438  0.0767  0.1337 -0.1708
17350W        W32819   2.129  16.832   4.010 -0.2418  0.1399  0.4770
17351W        W32820  10.886   4.297  11.731  0.0623  0.0454 -0.2115
17352W        W32821   2.647  14.333  16.004 -0.0309  0.1535  0.1459
17353W        W32822  11.663   6.359  14.565 -0.2814 -0.0508  0.0680
17354W        W32823   0.719  17.060   4.119 -0.0778  0.3161  0.4206
17355W        W32824   1.034  17.064  11.555 -0.1912  0.0891  0.0442
17356W        W32825   7.765  16.029   5.269 -0.0634  0.2973 -0.0394
17357W        W32826  16.741   7.534  15.724 -0.1243  0.3589  0.1122
17358W        W32827   2.976  15.289  11.410 -0.1049  0.2783  0.0427
17359W        W32828  17.541   4.444  12.816  0.0325 -0.2543  0.0583
17360W        W32829   8.760  10.965   0.975 -0.0441  0.1189  0.0253
17361W        W32830   7.552   6.283  13.093 -0.1723  0.0641 -0.0258
17362W        W32831   6.816  10.476  13.936 -0.1577  0.0802  0.1318
17363W        W32832  10.551   2.156  11.487 -0.1030 -0.0856  0.1172
17364W        W32833   9.592  14.110  12.781  0.0598  0.1546 -0.1070
17365W        W32834   9.761   5.825  15.570  0.0377  0.4509  0.0561
17366W        W32835   3.543   2.485  16.059 -0.0278 -0.0991 -0.1072
17367W        W32836   8.409  16.455  13.320  0.0553 -0.1414 -0.0388
17368W        W32837   1.300  13.115  11.590  0.0358 -0.0620 -0.0158
17369W        W32838  15.192   5.200  14.455 -0.0067 -0.0548  0.1858
17370W        W32839  13.968  10.251  14.361  0.2378 -0.0794 -0.1619
17371W        W32840   5.445   9.750  13.987 -0.0243 -0.1403  0.0714
17372W        W32841  11.424   4.618   6.259 -0.0704 -0.3807 -0.0622
17373W        W32842   8.714   9.160   6.071  0.1205 -0.2701 -0.2289
17374W        W32843   7.224   2.445  15.390 -0.0501 -0.4625 -0.1038
17375W        W32844   1.741   6.810  13.695 -0.3000  0.1569 -0.0696
17376W        W32845  16.764   1.836   2.208  0.1258 -0.1030  0.0370
17377W        W32846  13.622  14.811  11.502 -0.2722  0.0831 -0.0330
17378W        W32847   6.322   7.747   0.592  0.1675  0.0764  0.1425
17379W        W32848  13.239   8.632   0.903  0.2151  0.2932  0.1253
17380W        W32849  16.917  11.096  14.717  0.2931  0.0255  0.3752
17381W        W32850   6.545   3.617  15.967 -0.0521 -0.0522 -0.1088
17382W        W32851   5.974   4.854   5.727  0.3932 -0.2030  0.0175
17383W        W32852   9.043  15.364   1.483  0.3445  0.3605  0.2063
17384W        W32853   5.531   6.935  16.715  0.0364  0.0715  0.0889
17385W        W32854   6.884   8.436  15.863  0.1102  0.1903 -0.2251
17386W        W32855   7.777   1.945   0.967  0.2414  0.1427 -0.0696
17387W        W32856   2.624  16.560   1.089  0.1551  0.0448 -0.1747
17388W        W32857   1.613   4.784   9.670 -0.0007  0.2696 -0.3772
17389W        W32858   7.321  11.497  15.345 -0.1265 -0.3311 -0.0528
17390W        W32859  16.435  10.179  16.828 -0.2032 -0.1194  0.0429
17391W        W32860   4.141   3.087  15.551 -0.1602  0.2745 -0.1985
17392W        W32861  13.487  15.676  13.765 -0.0418 -0.1762 -0.3526
17393W        W32862  15.147   8.418  15.689 -0.2494  0.0908 -0.2078
17394W        W32863   6.326   6.942  13.219  0.2154  0.0271  0.0686
17395W        W32864  11.381  16.558  15.777 -0.1110  0.4303  0.0543
17396W        W32865  12.293  12.446   1.400  0.0057  0.0915  0.2179
17397W        W32866   8.363  10.719  14.085  0.0547  0.0322  0.3400
17398W        W32867   6.629  16.954  15.232  0.3609 -0.1483 -0.0603
17399W        W32868  10.518   4.498   3.648 -0.1502  0.3901  0.1093
17400W        W32869   7.761  11.842  12.803 -0.1202 -0.0104  0.3889
17401W        W32870  15.104  14.257   3.469  0.3575  0.2577  0.0096
17402W        W32871   5.204  13.380   6.555 -0.0051  0.0670  0.0297
17403W        W32872  13.958  13.951   3.156  0.0963 -0.2458 -0.0699
17404W        W32873   6.528  14.985   4.652 -0.0621  0.1830 -0.1432
17405W        W32874  10.079  14.089  11.832 -0.0085 -0.0243 -0.0425
17406W        W32875   5.060   6.865   0.172 -0.0512  0.3237  0.1188
17407W        W32876   0.089   3.063  13.165  0.1076  0.1086 -0.3062
17408W        W32877   7.541  15.288  14.731  0.0625  0.2906 -0.1369
17409W        W32878   6.360   5.321   1.007  0.0245  0.0069  0.2762
17410W        W32879  12.880  12.302   0.342 -0.0297 -0.0281  0.1674
17411W        W32880  17.610  16.354  11.809  0.0286  0.0290  0.2029
17412W        W32881   2.102  11.178  13.694  0.0149  0.1637  0.0827
17413W        W32882  10.357  12.133   1.592  0.5006 -0.2413  0.0020
17414W        W32883   5.436   3.617  15.927  0.2007 -0.2410 -0.2324
17415W        W32884   1.659  16.132   1.035 -0.1330 -0.2062 -0.1508
17416W        W32885   7.039  10.479   0.135  0.1451  0.0744  0.0408
17417W        W32886  10.620  12.018   0.701 -0.0304  0.0085  0.2045
17418W        W32887   6.186  12.439  11.625  0.0896 -0.1698 -0.1249
17419W        W32888   6.966  13.741   5.933  0.0970 -0.0850 -0.0623
17420W        W32889   8.068  11.317  14.266  0.2012  0.2186 -0.0211
17421W        W32890  17.679  12.955   0.353 -0.0814 -0.0024  0.2479
17422W        W32891   4.044  15.312  13.136  0.2219  0.1129 -0.0656
17423W        W32892   2.709   4.769  13.153 -0.1880  0.1338  0.2254
17424W        W32893   2.566   1.429  14.659  0.3120 -0.0171 -0.1230
17425W        W32894  17.119   7.255   3.891  0.0709  0.0611 -0.0084
17426W        W32895   2.089   5.344  16.529 -0.0594  0.0770  0.1868
17427W        W32896  16.597  11.398  13.113 -0.2009 -0.0227  0.0732
17428W        W32897   8.664  15.946  15.060  0.0040 -0.3227 -0.1622
17429W        W32898  13.466   6.476   1.373  0.3020 -0.0603  0.4578
17430W        W32899  10.334  12.324   2.079 -0.1042  0.1208 -0.1249
17431W        W32900   0.563   9.154  11.401  0.0275 -0.0895 -0.2103
17432W        W32901   7.479   9.195   0.450  0.0599 -0.1122 -0.2485
17433W        W32902   0.168  12.672  11.975 -0.0805 -0.3311 -0.0814
17434W        W32903   6.200   7.693   4.731 -0.3682 -0.2693 -0.1881
17435W        W32904  16.147  15.824  11.522  0.2219  0.4038  0.2259
17436W        W32905  11.715   3.427   5.605 -0.0667  0.1840  0.2004
17437W        W32906   8.475   4.374   3.655 -0.0569  0.0090  0.3289
17438W        W32907   9.785   9.686   5.376  0.1131 -0.0301 -0.1455
17439W        W32908   2.193   7.186   3.602 -0.1082  0.0527  0.3464
17440W        W32909  13.894   8.872   3.842 -0.0727  0.1489  0.0121
17441W        W32910  12.684  14.888  11.834 -0.0897 -0.0200 -0.2677
17442W        W32911   1.934   2.909   2.528  0.2153 -0.0667  0.1096
17443W        W32912   0.633   2.395  13.647  0.3279  0.0558 -0.0098
17444W        W32913   7.933   3.356  15.974 -0.1094 -0.1961  0.3085
17445W        W32914  14.221  12.084  14.425 -0.1256 -0.1369 -0.0977
17446W        W32915   0.177   7.165   0.548 -0.0189 -0.0111 -0.5016
17447W        W32916  15.852  15.042  15.824  0.2327  0.0368 -0.1293
17448W        W32917  15.278  12.420  13.486 -0.2125  0.0830 -0.0819
17449W        W32918  13.459  15.309   3.545  0.2010  0.0600  0.3503
17450W        W32919   1.530   9.670   1.995 -0.0742 -0.0963  0.1475
17451W        W32920  16.399  12.619  10.895  0.0791 -0.2958  0.1321
17452W        W32921  13.693   9.205   0.066 -0.0425  0.0516  0.2083
17453W        W32922  14.118   3.089   0.004  0.2259 -0.2012  0.0554
17454W        W32923  15.524   3.863  13.813 -0.1993  0.2321  0.2592
17455W        W32924   2.142   5.116  11.904  0.0197  0.1955 -0.2943
17456W        W32925   8.723   8.235   4.565  0.0573 -0.0551 -0.2647
17457W        W32926   5.725  13.475   1.347  0.0868  0.0615  0.1059
17458W        W32927   5.038   2.310  12.525 -0.0976 -0.1547 -0.0527
17459W        W32928  13.019   7.064   6.503 -0.0352  0.3013  0.0857
17460W        W32929  11.396  14.923   4.784  0.1134  0.1420 -0.0045
17461W        W32930   9.974   7.497   6.064  0.0811 -0.0596  0.0666
17462W        W32931   6.427   1.062  14.179 -0.0313  0.1591 -0.0973
17463W        W32932  10.805  16.628  15.078  0.0768  0.1745  0.1602
17464W        W32933   3.211   3.918   5.191  0.0026  0.2878 -0.1504
17465W        W32934   0.051   4.451   0.349  0.2443 -0.2820 -0.1186
17466W        W32935  15.281  16.481   0.179 -0.1371 -0.0067 -0.1726
17467W        W32936  16.591  17.604   6.274  0.0577 -0.0179 -0.5111
17468W        W32937  12.811   5.152  12.602  0.0837  0.1839  0.1834
17469W        W32938   5.995   1.299  14.712  0.2607  0.0036  0.0387
17470W        W32939  10.145  13.145  11.772  0.0868  0.0453 -0.0820
17471W        W32940   4.755  12.747   3.943 -0.0722 -0.0562  0.3293
17472W        W32941   4.306   7.123   2.480 -0.1233 -0.1639 -0.0320
17473W        W32942   1.553  17.731   1.991  0.0528 -0.2153  0.0699
17474W        W32943  11.788   0.071   0.468 -0.1145  0.1298  0.1211
17475W        W32944   6.584  13.601  11.688 -0.1797  0.0523 -0.0181
17476W        W32945  15.040   3.252   4.924 -0.2620  0.0041  0.3586
17477W        W32946   4.806   5.808   2.290 -0.3356 -0.2748 -0.2653
17478W        W32947  13.500  10.023  16.032  0.2266  0.2317 -0.2077
17479W        W32948   0.260   8.318   4.951 -0.0641  0.0632  0.0234
17480W        W32949  10.206   9.304   5.535 -0.0518 -0.0178 -0.0232
17481W        W32950   6.574   3.348  15.512  0.3016 -0.0318 -0.1548
17482W        W32951   7.438  11.387  12.508 -0.0874 -0.2523 -0.2854
17483W        W32952   3.145   2.220  14.622  0.4205 -0.1522  0.2948
17484W        W32953  14.280   2.037  12.853 -0.1773 -0.3526  0.0989
17485W        W32954  11.587   7.503   5.430 -0.1435 -0.1605  0.2862
17486W        W32955   5.560  11.190  16.444  0.2293  0.0137  0.1373
17487W        W32956   2.887  16.972   1.785 -0.1794 -0.0301  0.0022
17488W        W32957   3.018   2.909  13.885  0.0271  0.1810  0.1869
17489W        W32958   3.104  13.585  15.025 -0.0360 -0.1234 -0.0066
17490W        W32959  10.021  12.571  11.537 -0.1083 -0.0374  0.0293
17491W        W32960  10.065  14.073  14.067 -0.1015 -0.0198  0.1555
17492W        W32961   4.243   7.744   0.947 -0.0120  0.3432  0.0002
17493W        W32962   3.842  11.425  13.347  0.0649  0.1990  0.1821
17494W        W32963   6.655  12.057   2.499  0.1479 -0.3232 -0.1869
17495W        W32964   9.799   5.168   3.504  0.1133 -0.1428  0.3020
17496W        W32965   7.408   8.357  15.865  0.2585 -0.0938 -0.0818
17497W        W32966   5.571  13.464  16.716  0.3022  0.1422 -0.1295
17498W        W32967   9.914   5.525  14.786 -0.1206 -0.0338  0.0035
17499W        W32968   4.161   7.089  16.390  0.0212 -0.4164 -0.0594
17500W        W32969  12.731   6.508   3.194  0.0277 -0.0342  0.2256
17501W        W32970   5.221  17.477  13.605 -0.1850 -0.1338 -0.1930
17502W        W32971   4.506   8.635   4.435  0.1927  0.3615 -0.2890
17503W        W32972   2.592   4.797  12.675  0.0086  0.1831 -0.1582
17504W        W32973   9.474   1.383  16.300  0.0556 -0.2933 -0.0743
17505W        W32974   9.336  13.212   3.837  0.2141 -0.0374  0.0157
17506W        W32975   1.335   0.759  13.670 -0.0012 -0.1686  0.0883
17507W        W32976  10.386   1.732  13.613 -0.2020 -0.0871 -0.2190
17508W        W32977   4.433   8.251   3.011 -0.1001  0.2016 -0.1997
17509W        W32978  16.544  14.297   2.046 -0.0913 -0.2740  0.1119
17510W        W32979   8.028  17.490  13.198  0.3108 -0.0435 -0.1362
17511W        W32980  10.956   9.437   0.371  0.1704 -0.1630  0.1726
17512W        W32981   4.304  12.487   3.017  0.1323  0.0043 -0.0321
17513W        W32982   6.245  16.004  11.791 -0.3073  0.0943  0.2998
17514W        W32983   8.579  14.291   0.879 -0.1710  0.3343 -0.0989
17515W        W32984  16.313  15.126  15.740 -0.3037  0.0205  0.1992
17516W        W32985  11.881   4.886  14.115  0.2694  0.0077 -0.3725
17517W        W32986   4.843  16.981   3.677 -0.3133 -0.2645 -0.0821
17518W        W32987   5.977   9.624  15.029  0.0442 -0.0150  0.1135
17519W        W32988   9.224   6.981  14.238 -0.2542  0.2446 -0.1539
17520W        W32989  10.619  15.852   4.158  0.2328  0.2085  0.2731
17521W        W32990   7.745   4.451  12.920 -0.1395 -0.3149  0.0831
17522W        W32991  10.600   3.994  16.773 -0.1112  0.1074  0.0188
17523W        W32992  12.047   3.955   5.574  0.3454  0.0207  0.0353
17524W        W32993  13.502  11.531  14.161  0.2275  0.0880  0.0028
17525W        W32994  12.227  10.404  14.285  0.1233  0.2141 -0.1218
17526W        W32995  16.992  14.749   4.248 -0.0967  0.4108  0.1249
17527W        W32996  14.454  11.889  14.848  0.2774 -0.1011  0.0250
17528W        W32997   7.408   0.725  14.977  0.0588 -0.1545 -0.1005
17529W        W32998  15.605   7.699   1.884 -0.0336  0.3263  0.2356
17530W        W32999  14.105  15.955  12.370  0.0155 -0.0323 -0.0862
17531W        W33000   3.512  16.327   3.868  0.1021 -0.0170 -0.3891
17532W        W33001  10.292   7.735  10.604 -0.2100  0.0065  0.3097
17533W        W33002  15.261  10.366  13.786  0.0617 -0.1665 -0.0482
17534W        W33003   3.955   6.607  16.393  0.3610 -0.1901  0.0755
17535W        W33004  17.358   5.936   1.609 -0.0677 -0.3784  0.0769
17536W        W33005   0.972   8.682  15.403 -0.2004 -0.1139  0.1306
17537W        W33006  11.007   2.649   6.283  0.1335  0.1455 -0.1689
17538W        W33007  13.787   0.323  13.677 -0.2580 -0.0217  0.2296
17539W        W33008   4.120  15.509   1.835 -0.1121  0.1287 -0.0637
17540W        W33009  12.090   5.961   5.337 -0.0415 -0.1546  0.2065
17541W        W33010   2.091  12.210   5.474  0.0147  0.0449 -0.1192
17542W        W33011   1.644   6.358  11.310  0.3247  0.0240 -0.0226
17543W        W33012  12.524  12.162   3.610 -0.2381  0.0342  0.1568
17544W        W33013   0.388   6.200  15.416 -0.0210  0.0434  0.2935
17545W        W33014  13.713  17.527  13.601  0.1823 -0.2650  0.0999
17546W        W33015  15.219   1.248  14.851  0.1052 -0.2618 -0.0951
17547W        W33016  13.027   8.203  14.058 -0.2858  0.1286 -0.1444
17548W        W33017   6.876  16.287   3.149  0.1835  0.1782 -0.0886
17549W        W33018   1.198   8.240   0.255  0.1127 -0.1603 -0.0592
17550W        W33019   5.570  14.160   3.482 -0.0388  0.0701 -0.1391
17551W        W33020  10.888   8.619  11.788 -0.0272  0.3188 -0.0785
17552W        W33021   0.219   5.738  15.527 -0.1752  0.2297 -0.0387
17553W        W33022   4.052   0.829   1.439  0.4785 -0.1063 -0.0575
17554W        W33023   6.614   8.969   2.863  0.3749 -0.1755  0.2124
17555W        W33024   2.307   8.984   2.956 -0.0461 -0.0799  0.1438
17556W        W33025   7.292   1.005   1.760  0.1343  0.2438  0.1640
17557W        W33026  12.410   5.090   2.629  0.2710 -0.0336  0.1790
17558W        W33027  12.732   4.360   5.236  0.0430  0.2957 -0.1096
17559W        W33028  13.353  17.340   5.171  0.2420  0.0287 -0.2617
17560W        W33029  13.796   8.304  12.226 -0.0846 -0.1557 -0.2109
17561W        W33030  17.030   5.141   2.190  0.0478 -0.2687 -0.3032
17562W        W33031  11.129   0.837  15.369  0.1160  0.0385 -0.2442
17563W        W33032   3.141   6.932   5.209 -0.2010 -0.0302  0.4121
17564W        W33033  11.718   2.783  13.801  0.1214 -0.3579 -0.0481
17565W        W33034   6.617   0.273   2.020 -0.0177  0.1104  0.0303
17566W        W33035   6.048  12.251   0.161 -0.0903  0.2582 -0.3424
17567W        W33036  16.306  16.448   0.758  0.0607  0.1202 -0.0262
17568W        W33037  17.755  16.040   3.145 -0.0525  0.0034 -0.0083
17569W        W33038   9.223  12.130   2.647 -0.0788 -0.0091  0.1365
17570W        W33039   8.511   1.196  11.849 -0.2364  0.0676  0.3227
17571W        W33040   4.549  15.321   3.231  0.0477  0.1868 -0.0967
17572W        W33041   2.857   6.000   0.226  0.1224 -0.1015 -0.0628
17573W        W33042   3.088  16.523  16.461  0.3109 -0.0385 -0.1639
17574W        W33043  15.962   6.349   1.620  0.1716 -0.1765 -0.0333
17575W        W33044   2.072  10.811   3.192 -0.2733 -0.2033  0.0896
17576W        W33045   9.769   0.565   4.272  0.2059 -0.1685  0.0210
17577W        W33046  15.875  12.774  13.521  0.1847 -0.0757  0.2472
17578W        W33047  12.694   9.502  13.453  0.1425  0.0959 -0.0034
17579W        W33048   1.193   4.134  12.369  0.0526 -0.2185  0.0159
17580W        W33049  11.653  13.954  15.129 -0.0938  0.0136 -0.0099
17581W        W33050   0.956  15.765   0.598 -0.0947 -0.0770 -0.0494
17582W        W33051   4.904   9.822  14.191 -0.0220 -0.1019 -0.3744
17583W        W33052  16.296   2.523   0.808 -0.2341  0.2650 -0.0373
17584W        W33053  11.243  14.993   5.820  0.2007 -0.1137  0.1228
17585W        W33054   1.534   7.955  14.039 -0.0662  0.0441  0.2123
17586W        W33055   1.052  11.181   2.460  0.0122  0.1220  0.1795
17587W        W33056  10.809  12.083  14.401 -0.0352  0.2266  0.0706
17588W        W33057  12.548  17.246   1.505 -0.2259 -0.1479  0.2321
17589W        W33058   8.155  11.051   4.525  0.1050 -0.0377 -0.0133
17590W        W33059   3.371   7.526   1.368  0.0239  0.1751 -0.3754
17591W        W33060  12.648   7.918  13.873  0.2854  0.0470 -0.2843
17592W        W33061  15.457   7.257   3.699  0.0977  0.1950 -0.2583
17593W        W33062   2.291   8.546  12.465 -0.2705  0.0375  0.1172
17594W        W33063   8.998  10.573  14.989 -0.2080  0.1006 -0.0837
17595W        W33064  13.455   8.081  14.910  0.0092  0.0426  0.0102
17596W        W33065   6.161  13.326   2.092 -0.2115 -0.1384 -0.0490
17597W        W33066  14.661   5.539  15.958 -0.1403 -0.0248  0.1817
17598W        W33067  10.867  10.834   5.169 -0.0795 -0.1836  0.1325
17599W        W33068  11.404   3.203  11.302  0.0020 -0.0475 -0.0205
17600W        W33069  11.562   9.620   5.433 -0.1252 -0.0290  0.2080
17601W        W33070   0.200   8.764  10.880 -0.1732 -0.3597 -0.2528
17602W        W33071  11.710  17.281   2.418 -0.0633  0.0661  0.1554
17603W        W33072   1.017  16.929   5.233  0.2426  0.2055 -0.1379
17604W        W33073   8.250   0.648  12.743 -0.3712  0.0640 -0.0723
17605W        W33074  16.773   7.628  12.235  0.0343 -0.3522 -0.0908
17606W        W33075  13.222   3.273  14.185  0.0567  0.2772  0.1657
17607W        W33076  16.679   8.381   1.244  0.0330  0.0812  0.0255
17608W        W33077  14.994  12.018  13.093 -0.1453 -0.0524  0.0724
17609W        W33078  13.012   2.809   4.622 -0.1222 -0.0473 -0.0812
17610W        W33079   5.967   0.876   1.732 -0.0667  0.2470 -0.1643
17611W        W33080  14.450  12.201  15.237 -0.5029  0.0421 -0.0336
17612W        W33081  10.071  10.840  13.328 -0.4589 -0.1250 -0.2330
17613W        W33082  16.104   3.289   1.105 -0.0650 -0.0154 -0.0007
17614W        W33083  10.798  17.581   0.824  0.1011 -0.2099  0.1973
17615W        W33084   9.225   7.683  16.468 -0.4840 -0.0929 -0.0778
17616W        W33085  12.841  13.120   4.660 -0.1057 -0.1877  0.2963
17617W        W33086   0.595   4.955   0.139  0.0590 -0.0434  0.1629
17618W        W33087   8.525  14.501  15.352 -0.1543 -0.0106 -0.1487
17619W        W33088   1.746   4.583  13.599  0.2678  0.1457  0.1232
17620W        W33089  17.653  16.753   3.301  0.4798  0.0387  0.0758
17621W        W33090   1.172   1.618   3.772 -0.1040 -0.2105 -0.2639
17622W        W33091  13.103   2.816  12.355 -0.1096 -0.2528  0.3574
17623W        W33092  16.365   2.381  14.659 -0.0565  0.1583 -0.1595
17624W        W33093   5.662   6.769  12.888 -0.0322  0.0682  0.2526
17625W        W33094   7.591   2.161   3.500  0.0480 -0.0545  0.0925
17626W        W33095   0.239  17.536   0.370 -0.2909  0.3422 -0.1336
17627W        W33096  17.401   6.528  13.867  0.1613  0.0241  0.0467
17628W        W33097   2.073   9.964   2.252  0.1041  0.0727 -0.1997
17629W        W33098   2.981  17.130   5.244  0.2412 -0.2696  0.1934
17630W        W33099   5.269  17.440   2.911 -0.2903  0.2410 -0.1024
17631W        W33100   6.533   2.944   4.514  0.1217 -0.0910 -0.1749
17632W        W33101  17.582  11.186  10.579  0.2616 -0.0156 -0.1269
17633W        W33102   5.242  16.728   3.923 -0.0137  0.1267 -0.1156
17634W        W33103  17.117  10.982  15.710 -0.0330  0.1982 -0.0923
17635W        W33104   1.945   2.327  16.481 -0.0856  0.2211 -0.2353
17636W        W33105   6.229   1.713  15.958  0.1039 -0.0327  0.1917
17637W        W33106   6.451   1.928   1.252 -0.3228 -0.0733  0.0896
17638W        W33107  16.977   0.175   6.041 -0.1088  0.1909 -0.0360
17639W        W33108  10.036  15.498  13.098 -0.2486 -0.3622 -0.2167
17640W        W33109  13.341  13.768  14.802 -0.2342 -0.0648  0.0795
17641W        W33110  10.043  10.136  13.715  0.2167 -0.0544 -0.0901
17642W        W33111  15.638  15.024   4.371 -0.0118 -0.1948 -0.2109
17643W        W33112   1.646   5.961  12.131  0.2355  0.0628  0.2328
17644W        W33113   4.631   3.010  15.557 -0.1143  0.0779  0.1001
17645W        W33114  13.406   4.523  14.856 -0.1505 -0.3960 -0.1394
17646W        W33115   2.820   0.707   2.683 -0.2627 -0.4655  0.4233
17647W        W33116  12.056  14.442  10.857 -0.0123 -0.0733 -0.0495
17648W        W33117   1.048  11.616  11.546 -0.3371  0.1496 -0.0347
17649W        W33118   5.720   0.339  16.585  0.2050 -0.1608  0.0383
17650W        W33119  16.042   3.738  11.476  0.3221 -0.2258  0.1026
17651W        W33120   8.178   5.716   2.327  0.2251 -0.0449  0.1267
17652W        W33121   2.951  16.546  13.780  0.1759  0.1201 -0.0102
17653W        W33122   8.785  11.930  12.081 -0.2274  0.0303  0.1547
17654W        W33123  14.847  17.268  15.546  0.3893  0.0604  0.0371
17655W        W33124   2.847  15.505   1.972 -0.0840  0.0150  0.1621
17656W        W33125  11.535   5.522   5.800 -0.4741 -0.1106 -0.3131
17657W        W33126  10.779  11.300   0.497 -0.0192  0.0928 -0.0526
17658W        W33127  14.825  13.966   3.815  0.0256 -0.4023  0.1824
17659W        W33128  12.728   5.928   0.064 -0.4343 -0.1899 -0.1364
17660W        W33129   3.995  11.129  15.905 -0.0679 -0.1046  0.1122
17661W        W33130  15.856   4.418  16.358 -0.1232 -0.1300 -0.2043
17662W        W33131  12.516   8.743   3.118 -0.2560  0.0445 -0.1212
17663W        W33132  16.070   8.874  10.042 -0.0769  0.0841  0.0674
17664W        W33133   3.357  13.018  14.486  0.0277 -0.2016 -0.0038
17665W        W33134  17.025   6.181   0.073 -0.1765 -0.1798  0.1689
17666W        W33135  11.209   9.326   0.794  0.1068 -0.2107 -0.0166
17667W        W33136   6.960   8.344   4.166 -0.0931  0.1786  0.2155
17668W        W33137  13.265   2.179   3.553  0.1201  0.4371 -0.3035
17669W        W33138   5.266   9.815  16.185  0.1474 -0.2074 -0.0331
17670W        W33139  10.306   4.323  14.082 -0.0577 -0.1299 -0.0022
17671W        W33140  14.669   4.432   3.769 -0.0241 -0.0571 -0.0990
17672W        W33141   4.240   8.623   0.284  0.0304  0.1640 -0.1743
17673W        W33142   9.348   0.604   1.743 -0.0323  0.1703  0.1319
17674W        W33143  15.608  17.453   5.351 -0.0437  0.1817 -0.0438
17675W        W33144   5.588  17.723   5.424  0.1750 -0.2413  0.1769
17676W        W33145   9.998   5.447  14.253 -0.2344 -0.2372 -0.1211
17677W        W33146   6.114   3.795  11.575 -0.2426  0.1125 -0.0784
17678W        W33147  13.011   9.125   4.212 -0.0780 -0.0505 -0.0957
17679W        W33148  12.460   5.292   1.700 -0.0446 -0.1143 -0.1278
17680W        W33149  10.935   4.643  14.857 -0.0465 -0.1119  0.1657
17681W        W33150   3.532   7.562   2.959  0.1350  0.2148 -0.2790
17682W        W33151  12.951   7.333   4.226 -0.0978 -0.0434  0.0804
17683W        W33152  16.655   0.863  14.632 -0.0641  0.0028  0.2659
17684W        W33153   0.586   3.961   0.003  0.1373 -0.0115  0.1996
17685W        W33154   8.245   4.162  15.984  0.1065  0.0236 -0.0366
17686W        W33155   1.342   2.404  10.518 -0.0155 -0.0704  0.0012
17687W        W33156   5.884  13.593   4.760  0.2332  0.0323  0.1317
17688W        W33157  14.095   8.760   2.339 -0.4217  0.0995 -0.1807
17689W        W33158  10.179   3.108   6.395  0.2733  0.0085  0.0733
17690W        W33159  11.124   7.675   3.370 -0.0377 -0.0483  0.0647
17691W        W33160   5.591  17.127  16.551 -0.2649  0.0061 -0.1879
17692W        W33161   4.809   0.194   1.094  0.0041  0.2487  0.2101
17693W        W33162  12.200   9.152   3.338  0.2355  0.0172  0.2844
17694W        W33163   0.763  10.938   0.914 -0.1610  0.1658 -0.1520
17695W        W33164   4.905  17.045  12.227 -0.0262  0.0371  0.1174
17696W        W33165   4.321   5.559  11.116 -0.1023 -0.0136 -0.0737
17697W        W33166  16.737   4.391  12.489  0.0475  0.2443  0.0088
17698W        W33167  17.065   4.717   3.113  0.0136 -0.0230  0.0171
17699W        W33168  10.904   1.944   0.556  0.0872 -0.0713  0.0389
17700W        W33169  13.662  15.060   1.568 -0.1524  0.0416  0.0386
17701W        W33170   4.294   3.790  14.087  0.0443  0.1883 -0.0792
17702W        W33171  16.305   2.821  15.559 -0.0778 -0.0221  0.0614
17703W        W33172   0.503  10.145  13.886 -0.3428 -0.1885  0.3018
17704W        W33173   7.741  14.284  11.834  0.3330  0.2668 -0.1331
17705W        W33174  14.534   6.334  16.654 -0.2160  0.1142  0.1606
17706W        W33175   8.672   4.345  11.526  0.1138 -0.2220 -0.1788
17707W        W33176  10.690   9.591   4.720 -0.0529 -0.1200 -0.0816
17708W        W33177   6.692   4.088   1.412  0.3540 -0.0361  0.0960
17709W        W33178  10.096   3.060  12.207 -0.1838  0.1018 -0.2574
17710W        W33179   4.573   1.502  16.683  0.1572 -0.2055 -0.2989
17711W        W33180   3.007   2.422  12.093 -0.2509  0.2731 -0.1258
17712W        W33181  12.030  17.576   5.909  0.2427  0.2396 -0.2573
17713W        W33182   8.501  17.151   2.294 -0.0667  0.1609  0.0166
17714W        W33183  16.886   0.672  16.813 -0.0147 -0.1498 -0.0410
17715W        W33184  10.067  17.581   0.385 -0.1147  0.1154  0.3292
17716W        W33185  14.423   7.815  13.837  0.3356  0.1498 -0.0252
17717W        W33186   2.538   7.601   1.923  0.1479  0.1751  0.0596
17718W        W33187  14.819   0.785   0.596 -0.1637 -0.0154  0.3887
17719W        W33188  17.415   0.057   3.322 -0.2303 -0.0082  0.1109
17720W        W33189   7.008   0.763  12.023 -0.1004 -0.3784 -0.0365
17721W        W33190   4.000  11.961   4.385  0.0605 -0.3545 -0.1714
17722W        W33191   5.627   9.777   1.835 -0.0918  0.2412  0.0858
17723W        W33192  16.089   6.948   5.621 -0.0870  0.0911 -0.2331
17724W        W33193   9.218   2.122  15.260  0.0085  0.0329  0.3285
17725W        W33194   3.077   0.939  16.070  0.0869 -0.3898  0.0760
17726W        W33195  13.899   6.573   1.036  0.1935 -0.0871  0.2263
17727W        W33196  11.725   6.281   5.141  0.0148 -0.1418 -0.1191
17728W        W33197   1.455  13.180  12.541  0.1317 -0.1878 -0.2100
17729W        W33198  16.808  11.262  14.193 -0.0236 -0.3001  0.2050
17730W        W33199  14.637   9.892   2.532 -0.0533  0.4534  0.0559
17731W        W33200   2.875   3.631   1.732 -0.1404 -0.2892 -0.0193
17732W        W33201  13.851   6.383   5.644  0.1989 -0.2489  0.0188
17733W        W33202  11.314   4.480  15.106 -0.0438 -0.0416 -0.0301
17734W        W33203  14.547  16.068  11.445 -0.0100 -0.1440  0.2929
17735W        W33204  12.784   3.813   0.461  0.1614  0.0899  0.0837
17736W        W33205   8.282   6.548  15.820  0.0907  0.1609 -0.1642
17737W        W33206  14.036  11.603  15.676  0.0564 -0.1429 -0.0143
17738W        W33207   9.754  10.228  13.326 -0.2575  0.1047 -0.1100
17739W        W33208   1.731  11.691  13.006  0.0131 -0.2324  0.0025
17740W        W33209   8.114  10.915  15.093 -0.2594  0.0132 -0.0154
17741W        W33210   5.303   3.845   4.576 -0.1197  0.2593  0.2427
17742W        W33211   3.153   0.526  14.091  0.1751 -0.0490  0.0557
17743W        W33212  13.301   3.290   6.520 -0.1266  0.0644  0.0928
17744W        W33213   9.413   2.361   5.230  0.1469  0.1525 -0.1501
17745W        W33214   4.691   4.935  12.704  0.0291  0.0154 -0.1706
17746W        W33215   9.854   5.434   1.446 -0.1163  0.0006  0.1088
17747W        W33216  12.817   4.911   5.940  0.2317  0.0964  0.0910
17748W        W33217   5.931   9.750  13.637 -0.1474 -0.2613 -0.0328
17749W        W33218   5.182   4.726   4.390 -0.2603  0.2644  0.1736
17750W        W33219   7.461  13.550   1.595 -0.2667 -0.2242  0.2746
17751W        W33220   9.463  10.604  14.264  0.1303 -0.0286  0.0540
17752W        W33221  12.366  11.996  15.644  0.1565 -0.3540 -0.3095
17753W        W33222  13.499  15.941  11.499 -0.1188  0.1111  0.0106
17754W        W33223   3.521   4.737  12.390  0.0395 -0.0965  0.2745
17755W        W33224   4.509  11.291  11.682  0.0766 -0.0041  0.0852
17756W        W33225  11.408  14.382   5.953  0.2272 -0.0851  0.1288
17757W        W33226   4.670   0.358  12.866  0.0272 -0.0291  0.1543
17758W        W33227  12.070   2.304  15.188  0.1843 -0.2170  0.0772
17759W        W33228   0.264   8.482   0.259 -0.1860  0.1998  0.2069
17760W        W33229  10.564  16.757   4.041 -0.1331 -0.1394 -0.1377
17761W        W33230  15.515  10.539  15.289 -0.0921 -0.3009  0.4345
17762W        W33231   7.040  16.521   6.722  0.0049  0.3235 -0.1928
17763W        W33232  15.131   5.158  13.503 -0.0538 -0.0498  0.0891
17764W        W33233   5.114  14.733   5.332  0.2223  0.1173 -0.0011
17765W        W33234   4.728  16.903   4.688 -0.1137  0.1572 -0.0092
17766W        W33235  15.688  10.426  13.511  0.3087  0.0854  0.2463
17767W        W33236  16.023  14.466   3.780 -0.1962 -0.0416 -0.0623
17768W        W33237   4.170  16.149   5.769  0.0792  0.1101  0.0790
17769W        W33238  10.394   9.653   4.211 -0.0291 -0.1665  0.0589
17770W        W33239  11.083   3.688   3.851  0.1633 -0.1594  0.0481
17771W        W33240  14.965   5.555  12.107  0.1950  0.2152 -0.0831
17772W        W33241  12.986  10.707  14.097  0.1577  0.2370  0.3328
17773W        W33242   0.764   6.188   2.111 -0.0033 -0.1337  0.1921
17774W        W33243   6.427   6.526  13.480  0.0389 -0.2811  0.0215
17775W        W33244  16.730   4.419   2.825  0.1964  0.3934 -0.2713
17776W        W33245   6.919  11.352  12.650  0.1623  0.0029  0.0899
17777W        W33246  17.163  16.542  15.856 -0.3275  0.0445  0.3655
17778W        W33247   3.248   1.783  16.792 -0.0733 -0.2509 -0.1008
17779W        W33248  14.314   9.647   3.354 -0.0734 -0.1911 -0.0419
17780W        W33249   3.989   2.969   1.644 -0.0848  0.0725  0.0593
17781W        W33250   7.744   0.861   4.870  0.4399 -0.2863 -0.0726
17782W        W33251   8.229   4.291  12.855  0.0094  0.0873 -0.0486
17783W        W33252   2.813   2.475   3.984  0.1225  0.0224  0.0862
17784W        W33253   3.542  16.782  12.214 -0.1929 -0.0486  0.0920
17785W        W33254   5.183   4.828   3.495  0.2333 -0.1781  0.0269
17786W        W33255   4.686   2.050  14.653 -0.3117 -0.0436  0.0616
17787W        W33256  11.135   3.070  14.195 -0.3126 -0.2399 -0.1134
17788W        W33257   9.681   4.943   1.515  0.1162  0.1566 -0.0259
17789W        W33258   6.074   1.564  13.140  0.0526 -0.0293 -0.0037
17790W        W33259  17.471   4.297  14.171 -0.1297 -0.1441  0.1882
17791W        W33260  14.190   2.219  14.816 -0.1195  0.1004 -0.4217
17792W        W33261   5.521   3.453  12.601  0.3703 -0.1421 -0.0015
17793W        W33262  10.061  10.167   6.291  0.0301  0.0638  0.0932
17794W        W33263   0.227   8.378  13.365  0.1201 -0.0585 -0.2992
17795W        W33264   7.745   7.450  13.323 -0.2849 -0.1642  0.2749
17796W        W33265   2.929   3.210   4.681 -0.0550 -0.0417  0.0205
17797W        W33266   3.680   5.874   2.857  0.1053 -0.0346 -0.1236
17798W        W33267  17.367  17.342   1.425  0.0475 -0.0914  0.2801
17799W        W33268  16.920   1.327  11.812 -0.0648 -0.3330  0.1410
17800W        W33269  13.403   0.211  16.401 -0.0356 -0.0720 -0.1431
17801W        W33270   2.954  17.346  11.474  0.0783 -0.2079 -0.1188
17802W        W33271  11.882   3.719   5.957  0.0725 -0.0659  0.3069
17803W        W33272   7.698   8.504  13.190 -0.1788  0.1752  0.0578
17804W        W33273   4.738  15.359  13.864 -0.1531  0.0561 -0.0584
17805W        W33274   1.838   1.567   4.567 -0.1552  0.2224 -0.0564
17806W        W33275   9.784  16.166   3.913  0.0589  0.2023 -0.1081
17807W        W33276   3.162   6.634  11.341 -0.0180  0.0139 -0.1663
17808W        W33277   0.285   0.116  14.014 -0.3221 -0.0734  0.0573
17809W        W33278  10.913   7.241  16.148  0.1967 -0.1820  0.1061
17810W        W33279   7.631  17.664   3.800 -0.1186 -0.5681  0.0590
17811W        W33280   4.551  12.045   2.024 -0.1405  0.2586  0.0935
17812W        W33281   9.828   0.635  15.544 -0.3275  0.0632  0.0012
17813W        W33282  16.300  13.550   3.351  0.0474  0.1019  0.2468
17814W        W33283   9.564  11.801  11.639  0.2313  0.3002  0.0827
17815W        W33284   0.931  13.456  10.710 -0.0796 -0.1292  0.0551
17816W        W33285   5.689   2.883   4.844  0.3401 -0.0553  0.1027
17817W        W33286  17.288  15.672   4.125  0.1809 -0.0949  0.0655
17818W        W33287   4.828   1.009   2.666 -0.1801  0.0632 -0.1266
17819W        W33288   2.901   6.201   2.277  0.0520  0.0921  0.2669
17820W        W33289  14.796   5.671   5.212 -0.2144 -0.2228  0.2782
17821W        W33290   3.183   8.615  12.242  0.1890 -0.1178  0.0943
17822W        W33291   5.573   7.898   1.352  0.1440 -0.2861 -0.1998
17823W        W33292   3.621   5.142  11.042  0.1460  0.2856 -0.0923
17824W        W33293   9.261   4.246   0.684 -0.0308 -0.1072 -0.0980
17825W        W33294   7.121  12.814   5.681  0.1484 -0.0237  0.1397
17826W        W33295   2.400   6.690   0.019  0.2478  0.3627  0.1109
17827W        W33296  17.412   8.533   2.432  0.3143 -0.1048  0.2099
17828W        W33297  11.339  16.979  13.378  0.0782  0.2080  0.0015
17829W        W33298   5.307   5.605  13.029 -0.2649  0.2429 -0.1182
17830W        W33299   5.052   9.637   0.317 -0.1409 -0.2517 -0.1232
17831W        W33300   4.658  10.044  12.724  0.0305 -0.0065 -0.2124
17832W        W33301   1.141   5.797  15.678 -0.3270 -0.0963  0.1458
17833W        W33302  12.784  10.036  12.746  0.0375 -0.1155 -0.1434
17834W        W33303   1.966   2.430   4.026 -0.1924  0.0582  0.0913
17835W        W33304  13.834   8.039   5.105  0.2313 -0.1009 -0.0577
17836W        W33305  15.422   5.711   0.681  0.0935  0.1403  0.1581
17837W        W33306  13.281   8.960  14.357 -0.1216  0.0930  0.0333
17838W        W33307  14.671  13.789   4.245  0.0097 -0.2638  0.0901
17839W        W33308  12.935  15.482  12.431 -0.0974  0.0972 -0.1214
17840W        W33309  13.847  10.956   2.125  0.0339 -0.2335 -0.0520
17841W        W33310   9.265  12.275  16.534 -0.0220  0.0328 -0.1966
17842W        W33311  16.620  16.698   1.595  0.2026  0.0817  0.1161
17843W        W33312   7.988  14.582  14.490 -0.1892  0.1809 -0.1956
17844W        W33313   7.696  13.331  12.551  0.3324 -0.1190  0.2999
17845W        W33314   1.219   0.351  16.009 -0.0567 -0.1081  0.2582
17846W        W33315   3.702   8.523   3.777  0.0042  0.0990 -0.1890
17847W        W33316   1.319   5.738  12.933  0.0097 -0.0895 -0.0182
17848W        W33317   6.278   0.442  13.131  0.3256  0.0441 -0.2726
17849W        W33318   4.647   2.839  11.589 -0.1496 -0.0407 -0.0207
17850W        W33319   0.269  11.370  11.514 -0.1005  0.1710 -0.2280
17851W        W33320   5.312   0.937   4.302 -0.0977 -0.1004 -0.0306
17852W        W33321   3.462   1.877  12.744 -0.1651  0.1096  0.1186
17853W        W33322  14.337  16.999  13.277 -0.1959  0.0621  0.1445
17854W        W33323  14.398  17.662   0.326 -0.5401 -0.2107  0.1230
17855W        W33324   9.816  13.692  15.513  0.3036 -0.0261  0.1059
17856W        W33325  15.742  14.975  13.865  0.1615  0.0809 -0.0162
17857W        W33326  17.345  10.815  14.756  0.1787  0.3389 -0.0582
17858W        W33327  10.995   7.487   4.877  0.2399  0.0916 -0.0411
17859W        W33328   8.399   5.513  12.362 -0.1257 -0.4305  0.0485
17860W        W33329   0.461  15.610  15.361 -0.4978 -0.0078  0.0482
17861W        W33330  12.085   6.271  12.756  0.3009  0.1986  0.0522
17862W        W33331  14.425  13.089   1.468  0.1390 -0.3216 -0.1281
17863W        W33332  14.958   1.710  12.713  0.1671  0.0151  0.2220
17864W        W33333  16.459   5.566  15.348  0.2102  0.0287 -0.3302
17865W        W33334  16.565   4.871   5.226  0.3073  0.0627 -0.2474
17866W        W33335   0.152   2.492  11.932  0.0845  0.0049 -0.0813
17867W        W33336   8.206   6.711  14.172  0.1204  0.0856  0.1911
17868W        W33337  17.654   5.704  13.164 -0.0826  0.0465 -0.2047
17869W        W33338   9.364   0.950  11.681 -0.2145  0.1389  0.1427
17870W        W33339   3.601   9.733   4.725 -0.1122 -0.2289 -0.0460
17871W        W33340  10.860   5.323  16.828 -0.0443  0.0086  0.0083
17872W        W33341   3.441   0.410  14.888  0.1086  0.2100 -0.0948
17873W        W33342   0.998   5.128  16.429 -0.1536  0.0337 -0.0965
17874W        W33343  15.747   0.726  16.148 -0.1093 -0.2236  0.0429
17875W        W33344  14.610   5.625   4.710  0.1082  0.0767  0.0114
17876W        W33345   4.142   2.378  16.838  0.0019 -0.1210  0.1069
17877W        W33346   9.560   7.851   2.064  0.1723  0.0708 -0.0925
17878W        W33347  16.435  10.752   3.105  0.0754 -0.1378  0.1245
17879W        W33348   0.664   8.997   4.421  0.1534  0.4612 -0.1299
17880W        W33349   7.133  13.933  15.210  0.1582  0.0295 -0.3526
17881W        W33350   9.346   8.343   0.644  0.0955  0.2299 -0.1224
17882W        W33351   7.696   5.065   1.880  0.0651  0.2719 -0.2109
17883W        W33352   8.280   0.117   5.888  0.1476 -0.1595 -0.0588
17884W        W33353   6.513   5.835   0.970  0.1491 -0.2217  0.3352
17885W        W33354  17.773   5.159  16.262  0.0337  0.1120 -0.1192
17886W        W33355  17.739   5.256  15.634 -0.2331  0.1955 -0.0743
17887W        W33356  12.933   2.330  12.167  0.0309  0.1006  0.1015
17888W        W33357  10.702   4.891   3.302 -0.2877 -0.0557 -0.3026
17889W        W33358   3.252   5.507  15.150 -0.3744  0.0255 -0.1608
17890W        W33359  13.524   0.947  15.524 -0.0805 -0.1005 -0.0748
17891W        W33360  12.175  16.438  12.868  0.1161  0.1042 -0.2309
17892W        W33361  12.349   2.990  13.435 -0.2157 -0.0761  0.4274
17893W        W33362  10.742   8.452  16.064  0.1601 -0.1321  0.1288
17894W        W33363  10.596   6.352  12.078  0.1752  0.0218  0.1465
17895W        W33364  16.704   8.027  12.596  0.3898  0.1212  0.4478
17896W        W33365  14.384   1.886  16.470 -0.1160 -0.1816 -0.1564
17897W        W33366  15.071   7.136   3.389  0.2058  0.1326  0.0280
17898W        W33367   0.045   3.166   3.755  0.2009  0.2573  0.1628
17899W        W33368   7.275  10.085   5.316  0.0750 -0.0909 -0.2510
17900W        W33369   5.085   9.472   4.575  0.1301 -0.2225 -0.4344
17901W        W33370  15.354   2.134  11.994  0.0390 -0.1097 -0.0298
17902W        W33371  10.368  11.602   5.796  0.0378  0.3542  0.0609
17903W        W33372  13.608   0.474   1.596  0.2768 -0.1742 -0.4698
17904W        W33373   0.877   3.113   4.216  0.2517 -0.3259 -0.1614
17905W        W33374   1.411  11.110  13.809 -0.1218 -0.1774 -0.0244
17906W        W33375  11.426   9.851   4.828  0.0971  0.0366 -0.2395
17907W        W33376  12.034  11.555  13.344 -0.4042  0.2325  0.0171
17908W        W33377  16.624   5.097   1.900  0.2311  0.2677  0.1089
17909W        W33378  14.118   8.616  12.020  0.1002 -0.2888  0.3709
17910W        W33379   4.586   1.684  15.071  0.0952  0.0260 -0.0518
17911W        W33380   5.436   1.417  14.507  0.0041  0.1117 -0.1052
17912W        W33381   4.483   4.116   3.938  0.0173  0.0604  0.0148
17913W        W33382  16.364  14.491   1.126  0.0005 -0.3708 -0.0946
17914W        W33383  12.383   6.928   4.887 -0.1330  0.1751 -0.0244
17915W        W33384  13.360   5.508   5.274 -0.1418  0.0910  0.0020
17916W        W33385   4.976  11.206  16.045  0.2204 -0.1129 -0.1362
17917W        W33386   1.518  13.613  11.511 -0.0703 -0.2745  0.1726
17918W        W33387  14.170   5.598   1.280  0.1556  0.1153 -0.1197
17919W        W33388   8.750   2.627  13.983 -0.0467  0.1212 -0.2938
17920W        W33389   6.725   7.268   4.911  0.1036 -0.0716 -0.1216
17921W        W33390   6.441  17.222  15.764  0.0824  0.2249 -0.0443
17922W        W33391   6.537   4.480   1.122 -0.1465  0.1255 -0.1126
17923W        W33392   9.802  11.632  14.870  0.2188 -0.0930  0.0321
17924W        W33393  17.148   7.391  12.566  0.2871 -0.0054 -0.1530
17925W        W33394   7.215  14.791   2.461  0.3144  0.2951  0.0186
17926W        W33395   3.416   9.023   3.881 -0.3145 -0.2218 -0.0229
17927W        W33396   6.981   0.245  14.415 -0.3888 -0.1724 -0.1113
17928W        W33397   8.890   0.197   0.982 -0.1611 -0.1149 -0.0811
17929W        W33398  13.854   9.711   4.568 -0.0760 -0.1412 -0.0127
17930W        W33399   9.597   0.038   2.957  0.1636 -0.0759  0.3380
17931W        W33400   7.823   4.696  13.853  0.2896 -0.4267  0.2026
17932W        W33401   3.372   9.668  12.576  0.1873 -0.1055 -0.0047
17933W        W33402   5.852  11.203  13.747 -0.0540  0.2428 -0.0965
17934W        W33403  16.337  15.667  15.037  0.1203  0.0157 -0.0542
17935W        W33404   7.112  10.979   1.425  0.2989  0.3240 -0.1496
17936W        W33405  13.711   9.554   1.555 -0.1117 -0.1280 -0.3350
17937W        W33406   3.914   4.415  12.954  0.0866 -0.1359 -0.0344
17938W        W33407  11.471  15.138   5.251  0.1370 -0.0079 -0.0375
17939W        W33408   7.601   5.721  11.602 -0.0958  0.0851 -0.1173
17940W        W33409  13.889  16.866  11.857  0.0540  0.1185  0.1832
17941W        W33410   9.048   4.053  15.516 -0.0494  0.0679 -0.1907
17942W        W33411   1.606  14.102   2.211  0.0969 -0.1318  0.1189
17943W        W33412  11.522   1.867   0.237 -0.0435 -0.1500  0.2560
17944W        W33413   9.545   2.708   2.808 -0.0304 -0.2805 -0.0270
17945W        W33414  12.052  17.257   0.076 -0.0566 -0.0256 -0.1677
17946W        W33415   1.939   8.204  12.398  0.0295 -0.1408  0.0374
17947W        W33416  12.492   5.481   1.161  0.0129  0.0808 -0.2093
17948W        W33417  14.808  14.618  11.639  0.1473  0.0982  0.2117
17949W        W33418   1.653   4.932  12.389 -0.1361  0.0178  0.0643
17950W        W33419   9.110   4.475   4.225 -0.2776  0.0201  0.0251
17951W        W33420   4.764   7.352   5.899  0.0747 -0.2064  0.1116
17952W        W33421   9.756  11.952  15.281 -0.1332  0.2531  0.1767
17953W        W33422  16.960   7.294   3.297  0.1491  0.5101  0.1683
17954W        W33423   6.543  11.437   0.774 -0.0995  0.1059 -0.1419
17955W        W33424   6.132  11.283  14.181 -0.3400  0.1137 -0.3857
17956W        W33425  17.680   5.925  12.638  0.0533 -0.1308 -0.1941
17957W        W33426  17.772   7.131  11.025  0.1712  0.0051  0.0311
17958W        W33427  14.056   1.979  16.146  0.1386  0.0317 -0.1515
17959W        W33428   3.269   7.815   5.313  0.0747 -0.0356  0.1377
17960W        W33429  13.267   3.752  12.645  0.0212  0.0388  0.1115
17961W        W33430   9.956  15.866   6.032  0.0144 -0.1337  0.4169
17962W        W33431   0.592   3.484   1.152  0.1746  0.1941  0.3260
17963W        W33432   1.233  13.214   3.628  0.0389 -0.2493 -0.1359
17964W        W33433  10.464  16.000  13.271  0.1513 -0.0988  0.2445
17965W        W33434  17.525   6.392  15.135  0.0503 -0.1528 -0.1472
17966W        W33435   9.681  14.780   5.966 -0.2894 -0.1799  0.2698
17967W        W33436  16.735   7.201   0.122  0.1012 -0.0218 -0.1257
17968W        W33437   8.076   7.506   3.504  0.0199  0.2536  0.1296
17969W        W33438  13.065   1.873  16.200 -0.1630 -0.0916 -0.1595
17970W        W33439  10.673  12.939  16.767  0.0002  0.1738  0.3462
17971W        W33440  14.423   2.651   2.540 -0.3282 -0.1267 -0.2221
17972W        W33441   7.234  10.524   0.989 -0.0537  0.1824 -0.3271
17973W        W33442   3.203   7.279   0.311 -0.2880  0.0129  0.0869
17974W        W33443   4.483  17.553  16.838 -0.1217  0.0062 -0.0395
17975W        W33444   1.867  14.000   4.788  0.2190 -0.2133  0.1238
17976W        W33445   2.982  11.485   0.473  0.0448 -0.0236  0.1642
17977W        W33446   5.829   2.305   2.394  0.0474 -0.0242  0.0439
17978W        W33447  12.717  16.442   1.893  0.2535  0.1673  0.0822
17979W        W33448   7.449   8.880  15.866 -0.0311  0.0884 -0.0157
17980W        W33449  15.914   6.996   0.844 -0.3484  0.2108 -0.0625
17981W        W33450   9.830  14.907   3.092  0.1042  0.0318  0.1357
17982W        W33451  10.356   7.939  14.770 -0.0971 -0.1744 -0.0805
17983W        W33452  13.260   2.820  12.844  0.2520 -0.1469  0.1254
17984W        W33453   1.510  13.966  14.591 -0.0850 -0.0180  0.0244
17985W        W33454  12.498   6.757   4.319 -0.1373  0.0546  0.0793
17986W        W33455  16.000  14.632  12.393 -0.2745  0.3278  0.1655
17987W        W33456  15.912  13.517   0.131  0.2686 -0.0196  0.0225
17988W        W33457   6.036   2.178   4.201 -0.1037  0.0521  0.0529
17989W        W33458  14.917   1.704   1.561  0.2724 -0.1134 -0.0461
17990W        W33459   3.397  16.303   2.350 -0.2095 -0.0280  0.4379
17991W        W33460  14.745  15.455  13.975  0.2312  0.0169 -0.3007
17992W        W33461  11.831  14.833   6.442 -0.1712  0.1045 -0.0105
17993W        W33462   9.193   7.726  11.419 -0.1327  0.3137 -0.0741
17994W        W33463   4.521  16.764  14.501  0.0795 -0.1713  0.2736
17995W        W33464  16.603  11.176  15.974 -0.0873  0.0978  0.0559
17996W        W33465   1.070   4.991   2.325  0.2710 -0.0334 -0.0844
17997W        W33466   8.254  10.801   0.621  0.1076 -0.0585  0.0253
17998W        W33467   3.042   4.974  15.993  0.2607 -0.3486 -0.1126
17999W        W33468   9.737  10.617  12.157  0.1589  0.2121 -0.0071
18000W        W33469   9.057   0.695   0.155  0.1391  0.1742  0.0770
18001W        W33470  13.250   8.274  15.368 -0.0774  0.1375  0.0975
18002W        W33471   0.344   0.202   1.209 -0.1897  0.3196 -0.1480
18003W        W33472  15.025   6.263  16.820 -0.2025  0.3588 -0.0682
18004W        W33473   6.780  10.379   1.052 -0.0381  0.2405  0.2223
18005W        W33474   0.450  10.354   2.745 -0.1032 -0.3111  0.2175
18006W        W33475  15.242  10.818   3.260 -0.0034 -0.1364 -0.2407
18007W        W33476   2.661   4.792  16.641  0.3102  0.0372  0.1888
18008W        W33477  15.686   3.808   4.319 -0.3211  0.0303  0.1458
18009W        W33478   1.517   8.755   1.379 -0.1497 -0.2482 -0.2794
18010W        W33479  11.259  16.045   2.377  0.1480  0.2825 -0.0594
18011W        W33480   3.655  17.733   0.389 -0.4136  0.0797 -0.0965
18012W        W33481   3.249   1.736   2.451  0.0850 -0.1690  0.0117
18013W        W33482   5.465  17.624  15.533  0.4583  0.0015 -0.0851
18014W        W33483   6.225  10.384   1.658  0.0671  0.3203  0.0122
18015W        W33484   2.179  10.604   1.174 -0.0042 -0.1018 -0.1177
18016W        W33485  15.851   2.714  10.334 -0.1176  0.0617 -0.1493
18017W        W33486  11.461   5.258   3.812 -0.1665  0.3091  0.0140
18018W        W33487  15.026   9.257   2.265  0.3443 -0.2293  0.4409
18019W        W33488   3.311   4.931  11.976 -0.0468  0.1390  0.0739
18020W        W33489   9.174  13.737   4.714  0.0675  0.0004  0.1971
18021W        W33490  14.798  17.605   3.232 -0.3225  0.0266 -0.3232
18022W        W33491  15.453   2.563  15.116  0.2241  0.0378 -0.3252
18023W        W33492   7.549   9.281   5.871 -0.0099  0.2618  0.1597
18024W        W33493   7.297   1.556  15.051 -0.0760  0.0847 -0.0515
18025W        W33494  10.983   8.069  13.001  0.0493 -0.2174 -0.0551
18026W        W33495  16.978  14.445   0.485 -0.1835 -0.0359 -0.2408
18027W        W33496  16.549   3.526   3.576  0.3145  0.1085 -0.0255
18028W        W33497   7.804   9.910  15.824 -0.2218 -0.0822  0.1606
18029W        W33498  14.014   8.860   0.792  0.0166 -0.0191  0.0812
18030W        W33499   5.372   8.226   3.141 -0.1356  0.1308  0.0514
18031W        W33500   5.041   8.988   4.910 -0.0994 -0.1224 -0.3558
18032W        W33501   3.228  14.977   0.359 -0.3663 -0.2939 -0.3233
18033W        W33502  14.793   6.371   0.817 -0.2678 -0.1155  0.0161
18034W        W33503   0.905   6.149   4.087 -0.0899 -0.0204 -0.1737
18035W        W33504  14.140   0.227   5.425 -0.2546 -0.2573 -0.3672
18036W        W33505  10.497   1.759  16.127  0.3832 -0.0826 -0.0968
18037W        W33506  17.092   3.544  16.401 -0.2646  0.1805 -0.3797
18038W        W33507   8.980   1.312   6.062 -0.2331 -0.0185 -0.0029
18039W        W33508  13.479   4.558  14.341 -0.1030 -0.0131 -0.0090
18040W        W33509  15.915   9.280   5.976  0.2416 -0.1663 -0.0957
18041W        W33510   7.459   9.467  15.978 -0.0552  0.1590  0.0131
18042W        W33511   8.954  14.899  11.840  0.0038 -0.2644  0.0056
18043W        W33512   8.115  16.087   0.292 -0.1127 -0.0798 -0.1086
18044W        W33513   4.150  17.519   0.537 -0.1309  0.2400 -0.1527
18045W        W33514   6.389  16.198   2.338 -0.3073 -0.1129  0.0481
18046W        W33515  17.266   8.365  14.627 -0.0640  0.1164  0.3372
18047W        W33516   7.552  11.966   2.611 -0.1210 -0.0813 -0.0209
18048W        W33517   8.629   5.759  14.478 -0.0945  0.0887  0.1344
18049W        W33518   3.802   4.631  16.841  0.0668 -0.2278 -0.0258
18050W        W33519  10.983   8.891  15.979 -0.3307  0.1174 -0.0123
18051W        W33520   3.555   5.647   0.858  0.2806  0.1699 -0.1099
18052W        W33521   6.006  16.029   0.595  0.2175 -0.1354  0.0847
18053W        W33522  10.894   7.399   0.273 -0.0297  0.1161  0.0043
18054W        W33523   9.581   7.971   4.252  0.3797  0.2212 -0.1182
18055W        W33524  13.976  10.802  10.931 -0.0231  0.0799 -0.0113
18056W        W33525  10.777   5.170   4.567 -0.1279  0.1766  0.0727
18057W        W33526   8.187  12.898   1.120  0.0727  0.2128  0.0022
18058W        W33527   6.779  15.800   3.303  0.1876 -0.1460 -0.0780
18059W        W33528  15.340   4.971  12.676  0.1807  0.2284  0.2984
18060W        W33529   4.029  11.480   1.457 -0.1419  0.3556  0.0627
18061W        W33530   2.577  12.632  13.538  0.0381 -0.2594  0.0032
18062W        W33531   6.434   4.909   1.299  0.0970 -0.0582 -0.0496
18063W        W33532   9.449   8.909   4.307  0.3361 -0.0508 -0.0273
18064W        W33533   5.737   5.650   2.781 -0.0640 -0.0294 -0.1275
18065W        W33534   0.860   4.318  10.105 -0.1393 -0.0898  0.0685
18066W        W33535   9.499   8.629  15.894  0.0617  0.3259  0.0527
18067W        W33536   2.337   0.522  13.739  0.1633 -0.2836 -0.3690
18068W        W33537   2.349  16.978   1.619  0.0849  0.2251  0.0652
18069W        W33538   4.234   1.601   3.139  0.1068  0.0964 -0.0225
18070W        W33539  17.635  14.372  10.664  0.0158  0.2261  0.1612
18071W        W33540  16.711   0.582  15.765 -0.2718 -0.2035 -0.1448
18072W        W33541  17.087   3.009  13.587  0.2712  0.3862  0.0944
18073W        W33542   3.840   8.748  12.021 -0.1292 -0.2545 -0.1297
18074W        W33543  11.979  10.878  13.976  0.0970  0.1319 -0.1107
18075W        W33544  10.492   0.077   1.114  0.3162 -0.1646 -0.1052
18076W        W33545   6.618   3.034   0.393  0.1601  0.1388 -0.2283
18077W        W33546  16.244   6.147   4.892  0.4236 -0.3859 -0.0594
18078W        W33547  15.065  16.699  13.717  0.0496 -0.1447  0.2506
18079W        W33548   0.413  11.448  13.598 -0.1075 -0.1995  0.0009
18080W        W33549   7.310   0.896  16.237  0.3703 -0.1911  0.0201
18081W        W33550   6.528  16.085   0.236 -0.1903 -0.1916  0.1861
18082W        W33551  15.618  16.350  14.300  0.1900 -0.2151 -0.1995
18083W        W33552   9.089   4.129   1.430 -0.1129 -0.0779  0.0440
18084W        W33553   8.041   9.481   4.912  0.2426 -0.3503  0.4056
18085W        W33554  12.148  16.308  11.947 -0.3426  0.1447 -0.2559
18086W        W33555   5.410   5.337   5.721 -0.2681  0.0107 -0.0396
18087W        W33556   4.730   2.988  13.263  0.1574 -0.0381 -0.1926
18088W        W33557  10.873   6.198   3.638  0.0754 -0.0858  0.4112
18089W        W33558   3.100  14.676   2.446  0.0590  0.2713 -0.1077
18090W        W33559   7.713   5.854   2.178  0.3644 -0.0746 -0.2910
18091W        W33560  11.261  15.076  13.431  0.0406 -0.2629 -0.0325
18092W        W33561  10.418  12.632   1.703  0.0414 -0.1094 -0.1695
18093W        W33562   7.895   3.398  15.348  0.0533 -0.0330 -0.1091
18094W        W33563   6.845  17.759  16.174  0.0209 -0.1189  0.3093
18095W        W33564  12.775  15.054   5.490  0.2818 -0.0448  0.0756
18096W        W33565  11.555   6.721   0.556  0.1107  0.1751 -0.0643
18097W        W33566   0.246   2.370   4.202  0.2261  0.2679  0.0823
18098W        W33567   6.957   8.884  15.626 -0.2465  0.1251 -0.1663
18099W        W33568  14.919  16.386   0.516  0.1676  0.2442 -0.1028
18100W        W33569  12.341  11.034   4.032  0.1823 -0.0696 -0.0672
18101W        W33570   2.984  14.196   4.194  0.0150  0.0593  0.0839
18102W        W33571   5.388   6.178  15.275  0.0900 -0.0895  0.2391
18103W        W33572   9.856  10.889  14.383  0.2247  0.0043  0.0284
18104W        W33573   0.182  10.701   3.026 -0.0664 -0.2817 -0.0668
18105W        W33574   4.758   1.807  13.272  0.1619 -0.3060 -0.0010
18106W        W33575   6.596   3.389  13.954  0.2264 -0.1460  0.2664
18107W        W33576   3.732   0.534  12.841 -0.1747  0.0690  0.0795
18108W        W33577   6.725   2.989   3.675  0.2161  0.3287 -0.0406
18109W        W33578   1.813   4.463   1.251 -0.1936 -0.2970  0.1157
18110W        W33579   8.312   2.503  15.414  0.2979  0.2162 -0.0832
18111W        W33580   2.665   7.162   5.157 -0.3926  0.0406  0.2294
18112W        W33581  12.546  10.830   5.855  0.2135  0.0010  0.1755
18113W        W33582  17.270  13.708  11.273  0.0936  0.0714 -0.0809
18114W        W33583   4.396   0.167   3.092  0.1164 -0.2547  0.0125
18115W        W33584   1.625  11.519  14.812 -0.2176  0.0589 -0.0038
18116W        W33585  17.531   9.611  14.847 -0.1998  0.0300  0.1050
18117W        W33586   1.093   9.163   1.511  0.0026  0.1214  0.2185
18118W        W33587   0.200   4.206   5.186  0.1141 -0.1278  0.0399
18119W        W33588  14.112   5.216  13.570 -0.1321  0.1627  0.0262
18120W        W33589   5.725  15.990  12.092 -0.0022  0.2626 -0.0339
18121W        W33590   5.478   3.564   0.792  0.0881 -0.0389  0.3136
18122W        W33591   5.125   3.932  15.098 -0.1964 -0.1088 -0.0246
18123W        W33592  15.901   1.930  13.204 -0.2051 -0.2402 -0.0919
18124W        W33593   4.181   5.983  14.668  0.1095 -0.2252  0.5064
18125W        W33594  12.066   4.428  12.343  0.4000 -0.1266  0.0382
18126W        W33595   5.949   8.831  13.437  0.1764  0.1469 -0.1257
18127W        W33596  17.534   7.989   5.520  0.0172 -0.0009 -0.1710
18128W        W33597   2.527   1.802   1.147 -0.2120 -0.0284 -0.0208
18129W        W33598  15.333  15.623   5.534  0.2256  0.0466  0.0915
18130W        W33599   0.101   0.018  12.126 -0.1189  0.3427  0.1276
18131W        W33600   3.812  17.041  13.484  0.1159 -0.0351  0.1773
18132W        W33601   6.421  12.390   4.689  0.0148  0.1450 -0.2649
18133W        W33602  10.863   9.574  13.253 -0.3652 -0.3616 -0.0749
18134W        W33603   3.730   7.369   4.117  0.0692 -0.1142 -0.3276
18135W        W33604   6.488   5.518   0.112 -0.2943 -0.0051 -0.0670
18136W        W33605   3.176   5.889   1.722  0.2380  0.2001  0.0105
18137W        W33606   6.413  13.740   3.926  0.0833 -0.2992  0.1338
18138W        W33607   3.788  14.460  10.859 -0.0088 -0.0684 -0.2130
18139W        W33608  10.825  12.181   3.687 -0.1444  0.1901 -0.0447
18140W        W33609  16.806  12.442  12.257 -0.2232 -0.1083 -0.0001
18141W        W33610  15.833  13.101  14.707  0.3586 -0.1193 -0.3430
18142W        W33611  10.344   7.587  13.886  0.0125 -0.1696  0.0253
18143W        W33612  11.669   4.081  16.097 -0.3096  0.4562  0.1710
18144W        W33613   4.031  11.192   2.481  0.1548  0.1675 -0.1406
18145W        W33614   3.347  15.509  14.150 -0.0195  0.2267  0.2891
18146W        W33615  15.386   1.940   1.598 -0.0442 -0.0730  0.3036
18147W        W33616  10.584  17.376   3.936 -0.1454 -0.1649  0.2073
18148W        W33617  15.690  10.718  13.079 -0.2058 -0.1554 -0.1599
18149W        W33618   3.587   5.747  15.529  0.3321 -0.0093  0.0701
18150W        W33619  12.777   2.063  16.569  0.0223  0.0639 -0.1583
18151W        W33620  12.512  12.646   0.548 -0.0001 -0.0218 -0.0165
18152W        W33621  14.481  15.521   5.223  0.1375  0.3939 -0.1100
18153W        W33622  11.301  14.635   2.203 -0.2678 -0.1195  0.1181
18154W        W33623  11.482  12.521   1.902 -0.2152  0.0327 -0.2030
18155W        W33624  14.968   6.819   3.810 -0.0705  0.0832 -0.1724
18156W        W33625   7.943   0.612  13.913 -0.2060 -0.2361 -0.0424
18157W        W33626   7.369   0.583   4.733  0.1333 -0.0325 -0.2152
18158W        W33627   1.080   9.744   5.549 -0.0656  0.2488 -0.1268
18159W        W33628   7.742   2.903   6.876 -0.3214  0.1114  0.1800
18160W        W33629   1.044   5.007  12.210  0.2741  0.0526  0.4499
18161W        W33630   0.663  17.636  10.785 -0.4847  0.1087  0.2207
18162W        W33631   4.182   2.094  13.816 -0.0781 -0.2016  0.0089
18163W        W33632  12.549  10.685  11.172  0.0006 -0.3074  0.2781
18164W        W33633   2.615   2.960   0.188  0.0059  0.2509 -0.2321
18165W        W33634  12.923   1.872   3.404  0.3043  0.1320 -0.3804
18166W        W33635  11.663  14.699   0.519 -0.0613 -0.0558  0.4729
18167W        W33636  16.504   9.303   1.825 -0.1783 -0.1803  0.1296
18168W        W33637   6.018   3.893  14.347  0.0008 -0.0982  0.0093
18169W        W33638   4.100   8.914   4.546  0.0412  0.2501  0.0249
18170W        W33639  14.202   0.075  15.270 -0.3137  0.0560 -0.0959
18171W        W33640   3.882   9.768  15.253  0.0411  0.1627 -0.2342
18172W        W33641   1.155   4.050   9.670 -0.3047 -0.2916 -0.0036
18173W        W33642   1.896   0.705   5.883  0.1770  0.0824 -0.1487
18174W        W33643  13.015   6.559  12.330 -0.4349 -0.2092  0.1374
18175W        W33644   2.981  10.374  11.388  0.3440 -0.1140 -0.1845
18176W        W33645   9.590   0.513  16.732 -0.0776 -0.1837 -0.1975
18177W        W33646  14.529   7.002  11.445  0.1312  0.3067 -0.0244
18178W        W33647   6.066  15.743  10.406  0.0680  0.1138  0.2125
18179W        W33648   7.056   3.371   4.893  0.3508  0.0546 -0.1039
18180W        W33649   2.583  11.681   2.635 -0.0960  0.1912  0.2163
18181W        W33650   6.814   0.197   5.122  0.0807  0.1123 -0.1745
18182W        W33651  17.586   6.017   1.192  0.0325  0.0333 -0.2771
18183W        W33652   7.536  17.106   5.021 -0.0632 -0.1989 -0.3096
18184W        W33653  17.426   4.216   4.433  0.0131  0.2072  0.0885
18185W        W33654  12.485   6.512  12.091 -0.0922  0.0542 -0.2270
18186W        W33655   1.658   3.462   3.268 -0.1840 -0.0821  0.2829
18187W        W33656   8.118   0.781   3.677 -0.0914  0.0901  0.5227
18188W        W33657   0.594  16.144   5.639 -0.2598  0.0311  0.1085
18189W        W33658   3.582   1.299  11.955  0.3818  0.1929  0.2008
18190W        W33659   8.315  17.601   2.121 -0.1492  0.2284 -0.1890
18191W        W33660  12.499   8.516   3.860  0.0017  0.2941  0.2318
18192W        W33661   5.002  15.424   3.850  0.0917 -0.4583  0.2024
18193W        W33662  14.754   6.441   4.064 -0.0195  0.1619 -0.1445
18194W        W33663   7.020   3.132  13.641 -0.1214  0.2711  0.0939
18195W        W33664   4.703   6.552  13.849 -0.1411 -0.0735  0.0054
18196W        W33665   4.525  10.502   4.062  0.1202  0.2249 -0.1463
18197W        W33666   2.958   6.808   3.898  0.3772 -0.0358  0.3107
18198W        W33667   7.774   9.775  16.274  0.1815 -0.0922  0.1267
18199W        W33668   6.979   2.853  15.538  0.0883 -0.1718  0.3833
18200W        W33669   5.227  13.853  11.531 -0.1597 -0.1033 -0.0938
18201W        W33670   8.305  16.593  16.780 -0.1193 -0.0412  0.1715
18202W        W33671  16.289  10.471  14.749 -0.4202  0.0638  0.1895
18203W        W33672  12.007  13.530  12.154 -0.3611  0.2014  0.0243
18204W        W33673   0.373   3.456   2.462 -0.1083  0.1539  0.1955
18205W        W33674  17.566   3.239  10.850 -0.2237 -0.1594 -0.2192
18206W        W33675  10.320   0.212   0.152 -0.2568  0.2556 -0.0868
18207W        W33676   8.246   7.333  16.711 -0.0351 -0.3441  0.0428
18208W        W33677  13.252  11.676   2.638 -0.0234  0.0951  0.1479
18209W        W33678  17.550  16.593  15.469  0.2162  0.0095  0.1681
18210W        W33679   4.088  11.887  13.286 -0.3171  0.0142 -0.0385
18211W        W33680  17.073   7.520  14.881 -0.1370  0.1874  0.1375
18212W        W33681  15.388   0.742  14.069 -0.0110  0.3352 -0.1761
18213W        W33682  16.927  10.527   2.164  0.1251  0.0399  0.1254
18214W        W33683  17.048   8.018  14.993 -0.0514 -0.0561 -0.0964
18215W        W33684  14.388   4.913  16.707 -0.0681  0.2353  0.2090
18216W        W33685   1.150   6.285  11.106  0.2499 -0.1612  0.0917
18217W        W33686  13.370   6.936  12.041 -0.0071 -0.2184  0.0496
18218W        W33687  17.547  15.642   1.355  0.1090 -0.0564 -0.0823
18219W        W33688  14.306  13.886   6.195  0.1198 -0.1185 -0.0595
18220W        W33689   0.043   5.564   1.172 -0.0455 -0.0195 -0.0098
18221W        W33690   3.096  14.904  14.312  0.0717  0.2444  0.1565
18222W        W33691  13.371  13.105  15.203  0.1160  0.1398  0.0833
18223W        W33692   7.133   1.916   4.994 -0.1891  0.1349  0.2549
18224W        W33693   5.513  12.962   1.392  0.3954  0.0819 -0.0172
18225W        W33694  14.826  14.290   4.295 -0.0384  0.3138 -0.3260
18226W        W33695  12.461  12.774   5.473  0.1606 -0.1894 -0.2678
18227W        W33696   9.948  16.272   5.201 -0.1339  0.3698  0.0288
18228W        W33697  12.318  17.607  10.354  0.0713 -0.2526  0.0024
18229W        W33698  12.556   6.464  15.583  0.1291 -0.1364 -0.0359
18230W        W33699   3.249   3.621   4.786 -0.0234  0.1636  0.1931
18231W        W33700  17.038   7.409  16.128 -0.1445 -0.3107  0.0650
18232W        W33701   5.088   6.128  15.768  0.5352  0.0629  0.2241
18233W        W33702   7.934   2.731   6.054  0.1344  0.0075 -0.1036
18234W        W33703  11.674  14.627   1.077 -0.1089 -0.0849 -0.0442
18235W        W33704   5.332  11.600   4.690  0.3900 -0.1051 -0.0212
18236W        W33705   2.955  11.313  13.558 -0.0580  0.0908  0.0563
18237W        W33706   1.864   1.886  11.104  0.1296  0.1322 -0.0197
18238W        W33707   1.780  12.550   4.059  0.0746 -0.3183 -0.0098
18239W        W33708  11.714   8.126   2.833  0.4774 -0.2295  0.0384
18240W        W33709  10.827  14.043  12.174  0.0014  0.4211  0.2141
18241W        W33710   5.529   4.368   6.331 -0.0154 -0.3740 -0.0335
18242W        W33711   8.741  11.062  16.296  0.1094  0.2650  0.2932
18243W        W33712  16.313   7.618   4.381 -0.1312  0.1913 -0.1980
18244W        W33713  13.594  13.075   6.375 -0.0365 -0.2653  0.3063
18245W        W33714   8.419   2.418  16.033 -0.1311 -0.2000  0.0788
18246W        W33715  16.885   9.292   3.932  0.2264 -0.1839 -0.1419
18247W        W33716  14.163   7.541   0.073 -0.2332  0.0418  0.0565
18248W        W33717  16.026  16.628  14.186  0.2151  0.0368 -0.4025
18249W        W33718   5.559   2.421   0.069 -0.0706 -0.2290  0.0202
18250W        W33719  10.259  14.914  16.221  0.1403 -0.2279 -0.5136
18251W        W33720  13.685  16.365   1.162  0.1525  0.4173  0.0155
18252W        W33721   0.014   4.212   3.644 -0.1148 -0.1802 -0.2115
18253W        W33722   7.848   0.793  11.963 -0.2649  0.0887  0.1073
18254W        W33723   7.774   2.612  13.924 -0.0475  0.1699 -0.3761
18255W        W33724  14.300   8.736  16.702 -0.0893 -0.1018 -0.0322
18256W        W33725   4.597  13.224  12.441 -0.0124  0.1255 -0.0738
18257W        W33726  14.124  11.593   2.918 -0.2198  0.0808  0.0915
18258W        W33727  17.733  14.407  12.332  0.2257  0.0982 -0.0234
18259W        W33728  16.209  13.320   0.844  0.2127  0.0326  0.0612
18260W        W33729  17.501   5.232  13.973  0.1980 -0.1308 -0.1282
18261W        W33730  17.496  15.864   4.535  0.0724 -0.1807 -0.3264
18262W        W33731   9.786   3.545   2.159  0.1514 -0.1880 -0.3444
18263W        W33732  15.094   8.754  12.038  0.1091  0.3796 -0.4215
18264W        W33733   5.042   6.526  14.374 -0.0576 -0.3573  0.0785
18265W        W33734  15.763  16.819  11.562  0.0107  0.0362  0.1932
18266W        W33735   3.884   6.352   0.941  0.0215 -0.0544  0.1160
18267W        W33736   5.383  17.218   0.709 -0.0069  0.3090  0.1889
18268W        W33737   0.022  10.992   4.291 -0.0702  0.1672 -0.2909
18269W        W33738  13.058   9.060  12.619 -0.0656 -0.0977  0.0669
18270W        W33739   6.810   1.077   1.395 -0.2803  0.0186 -0.4736
18271W        W33740   8.707   5.934   4.116  0.2249  0.3709 -0.1921
18272W        W33741   1.749   6.568   4.737  0.2777  0.1623  0.1962
18273W        W33742  14.137  12.407  16.014 -0.1516 -0.6374 -0.0039
18274W        W33743   1.215   5.501  12.386 -0.2586 -0.2482  0.0164
18275W        W33744  10.123   4.718  15.675 -0.1148  0.0856  0.1551
18276W        W33745  17.736  16.817   2.121 -0.0575 -0.0916 -0.2943
18277W        W33746  11.613  11.834  16.251  0.0206 -0.0134 -0.0476
18278W        W33747   3.736  15.360  11.418 -0.1442 -0.1237 -0.1177
18279W        W33748   2.555  17.538   4.539  0.1925 -0.1592  0.1202
18280W        W33749   2.959   1.920   1.384 -0.1532  0.0269 -0.1193
18281W        W33750  15.639   0.264  15.921 -0.0046  0.3613 -0.2127
18282W        W33751  12.155   8.775  12.188  0.3014  0.4858 -0.3369
18283W        W33752   0.435   4.071  13.846 -0.0470 -0.1977  0.2609
18284W        W33753  14.902   6.746  13.019  0.2627 -0.3037  0.3082
18285W        W33754   9.497   5.824  13.212 -0.0543  0.1994 -0.0868
18286W        W33755   8.509   2.376  14.372  0.2856 -0.5119  0.3611
18287W        W33756   7.941  17.425  16.759 -0.0107 -0.2666  0.0321
18288W        W33757  12.118  10.201   3.149 -0.1994  0.0096  0.4128
18289W        W33758  13.156   8.492  12.678  0.1651 -0.3199 -0.1716
18290W        W33759   7.324  14.332   3.293  0.0545  0.1430  0.0723
18291W        W33760  10.217  12.808  12.551 -0.0302  0.1445 -0.1757
18292W        W33761  17.643   1.499   4.376 -0.1762 -0.0807 -0.2860
18293W        W33762  16.997   8.451  11.080  0.1078  0.1863  0.1603
18294W        W33763   5.161  15.942   4.900 -0.0655 -0.0065  0.0264
18295W        W33764   7.906   3.298   0.499  0.2953  0.1244  0.0394
18296W        W33765   9.247   7.646  15.405  0.0318 -0.1440  0.1250
18297W        W33766  11.818  17.731  14.463  0.1033 -0.0831 -0.3304
18298W        W33767   9.904   4.359   1.455  0.1160 -0.2162  0.0094
18299W        W33768   6.815   9.600   3.846  0.1420 -0.1487  0.0059
18300W        W33769  12.483   4.047   2.984 -0.3509  0.1399 -0.3914
18301W        W33770   4.437  13.999   0.261  0.2048  0.1233  0.0499
18302W        W33771   2.316   0.665  12.696 -0.0659  0.1479 -0.1781
18303W        W33772   4.945  11.565  10.613 -0.0800 -0.1407 -0.0196
18304W        W33773   0.255   8.886  15.921 -0.4779  0.1358 -0.1278
18305W        W33774   5.084  10.441   1.900 -0.2007 -0.3476 -0.1302
18306W        W33775   6.284   6.983  14.243 -0.1735  0.3454 -0.0925
18307W        W33776   1.008  10.503   0.859 -0.0239 -0.0130  0.2531
18308W        W33777  12.017  13.507  12.654  0.1244  0.0166 -0.1087
18309W        W33778   4.623   4.827   2.304  0.0006 -0.1918  0.2348
18310W        W33779   4.159   0.203  15.150 -0.1856 -0.1376 -0.1041
18311W        W33780   2.174  14.900   4.725  0.1228 -0.2365 -0.0066
18312W        W33781   1.796  10.339  16.060  0.1662 -0.3042 -0.3895
18313W        W33782  17.004   3.633  12.981  0.1525 -0.1900 -0.2229
18314W        W33783  13.866  13.583   3.480  0.2562  0.0354 -0.5016
18315W        W33784   3.609   7.988   1.503  0.0007 -0.2294  0.3686
18316W        W33785   2.661   1.782  15.086  0.1044 -0.1892  0.0621
18317W        W33786   4.431   0.316  16.043  0.1842  0.2665  0.0941
18318W        W33787   8.146   7.681   0.200 -0.1605  0.0175 -0.0565
18319W        W33788   3.448  15.300  12.439  0.0142  0.1533 -0.0920
18320W        W33789  13.899  10.978  15.258 -0.1066  0.2655 -0.2404
18321W        W33790   1.347   2.205   1.541 -0.2806  0.0932  0.0217
18322W        W33791  10.690  11.059  15.421  0.0767 -0.1958  0.2055
18323W        W33792  11.023  11.973   2.894 -0.0163  0.2538 -0.2733
18324W        W33793  12.826   2.958  13.618  0.2829 -0.1251 -0.0366
18325W        W33794   0.734   2.373   2.448 -0.1812  0.0638  0.0867
18326W        W33795  10.953  14.541   3.588  0.1361  0.2249 -0.1014
18327W        W33796   0.303   5.215  11.540  0.0388  0.2068 -0.1401
18328W        W33797   9.891   7.531  11.889 -0.0968  0.0311 -0.2862
18329W        W33798  16.123  17.241   0.979  0.1103  0.3158  0.2551
18330W        W33799   3.959  14.536  11.939 -0.0392 -0.2725  0.1882
18331W        W33800   1.828  12.253   3.559  0.1655 -0.4837  0.0450
18332W        W33801   3.784  17.617   1.705  0.3782  0.1954  0.0134
18333W        W33802  12.205   8.754  14.316  0.0034  0.0725 -0.0354
18334W        W33803  16.314   1.555  14.031 -0.2516  0.1205  0.0556
18335W        W33804   8.718   2.954   2.258  0.1146 -0.2633  0.3957
18336W        W33805  16.469   3.627  15.085  0.2699 -0.2831  0.0966
18337W        W33806  15.477  10.358   3.085 -0.1636  0.1863  0.1224
18338W        W33807  10.966   4.358  16.721 -0.0555 -0.2537  0.1237
18339W        W33808  13.583  14.628  16.377  0.0447  0.3048 -0.2350
18340W        W33809  16.205   5.340   3.470 -0.0005  0.2092  0.0470
18341W        W33810   2.656   3.676   3.051  0.2222  0.0950  0.1162
18342W        W33811   4.219  11.883   6.345 -0.0989 -0.1330 -0.0263
18343W        W33812   3.688   5.765  13.403 -0.0679 -0.0119 -0.0411
18344W        W33813   5.621  14.500  15.160 -0.4058 -0.1143  0.0209
18345W        W33814   1.607  16.887  13.727  0.2775 -0.2701  0.1559
18346W        W33815   7.731   5.998   2.739 -0.1487  0.4830 -0.0804
18347W        W33816  14.688   5.223  13.371  0.0230 -0.2908  0.2055
18348W        W33817  12.024   7.008  15.998 -0.1068  0.0373 -0.3352
18349W        W33818   6.129   7.088   1.717 -0.2434  0.1015 -0.1974
18350W        W33819   9.448  16.447   5.169 -0.1921 -0.2059  0.0463
18351W        W33820   0.903   6.640  14.145 -0.0779 -0.0209 -0.0600
18352W        W33821  12.798   1.986   4.947  0.1926 -0.0273  0.1112
18353W        W33822  16.360   7.163  13.882  0.1771 -0.1460 -0.1115
18354W        W33823   4.611   3.198  15.041  0.0351  0.0074  0.0605
18355W        W33824   3.979  10.074   3.998  0.0994  0.0420 -0.0200
18356W        W33825  16.897  12.776   0.789 -0.1218 -0.0184  0.1773
18357W        W33826   4.786  16.766  14.056 -0.0156 -0.1829  0.0782
18358W        W33827   0.743   7.128   0.313  0.0392  0.1291 -0.3890
18359W        W33828  12.300   3.325   4.341 -0.1675 -0.1574 -0.5126
18360W        W33829   2.217  14.383  12.529  0.0844 -0.2635 -0.0083
18361W        W33830  17.772   0.040   5.500 -0.0452 -0.0895  0.3388
18362W        W33831   2.484   6.586  14.749  0.1906 -0.0621  0.1367
18363W        W33832  11.253  16.837   0.397 -0.1896  0.1543 -0.1616
18364W        W33833   8.318   0.246   3.389  0.1722 -0.0986 -0.2176
18365W        W33834   1.811  10.404  13.183 -0.0721 -0.1303 -0.1088
18366W        W33835  11.712  11.359  13.870 -0.3660 -0.1502 -0.0898
18367W        W33836   5.067  11.074  16.556 -0.1109  0.3165  0.2443
18368W        W33837  11.104  15.053  15.987 -0.1268 -0.1234  0.2474
18369W        W33838   5.905  16.352   2.376 -0.2220  0.1267  0.1033
18370W        W33839   7.176   5.404   3.347 -0.0023  0.2607  0.0548
18371W        W33840   0.212  15.183   0.054 -0.1477 -0.1521 -0.1174
18372W        W33841   8.050   8.093   2.511 -0.0352 -0.0951  0.0800
18373W        W33842   5.859  15.608  16.505 -0.2338 -0.0214  0.1335
18374W        W33843   7.391   5.633   4.946 -0.0660  0.0417 -0.3121
18375W        W33844   1.895  15.403  13.364  0.0141  0.0235  0.2468
18376W        W33845   6.172  13.526   3.310  0.0800 -0.0105  0.1545
18377W        W33846  14.056  12.279   2.208 -0.3294  0.3594 -0.0394
18378W        W33847  12.454   0.936  14.934  0.0801  0.0576  0.0420
18379W        W33848  15.024   0.711  12.728 -0.4021  0.0452  0.0344
18380W        W33849  13.948  13.217  11.178  0.0029 -0.1801  0.1430
18381W        W33850   3.193   1.466   4.777  0.1719  0.2073  0.1606
18382W        W33851   1.227  10.578   3.075 -0.1231 -0.3651  0.0349
18383W        W33852  15.067   0.505   4.219 -0.0005 -0.0176  0.0617
18384W        W33853   0.015  14.984  12.498 -0.1717  0.1209 -0.1624
18385W        W33854   1.911   4.423   4.681  0.4622  0.1202  0.0036
18386W        W33855   5.437  12.391  14.832  0.0952 -0.0100  0.0044
18387W        W33856   3.805  15.941   5.445  0.1447 -0.1333  0.0038
18388W        W33857  16.400   7.103   0.905 -0.1679  0.1296 -0.0713
18389W        W33858  16.432   0.435  11.916 -0.2255  0.0300  0.2208
18390W        W33859   4.496   7.086   2.930  0.0418  0.0510 -0.0373
18391W        W33860   8.813   5.083   2.545  0.2214  0.0457  0.0408
18392W        W33861  10.453   2.186  13.874  0.0332  0.2886 -0.0957
18393W        W33862   3.716  10.397  13.368 -0.1722  0.2722  0.3124
18394W        W33863   8.934   5.551  15.328  0.0310 -0.0259 -0.0074
18395W        W33864   1.929  10.268   3.199 -0.1302 -0.3638  0.0726
18396W        W33865   6.063  16.320  15.793  0.2440 -0.1690 -0.2140
18397W        W33866  15.980   6.816  15.750 -0.0374  0.0758  0.0514
18398W        W33867   6.620   0.236  14.023 -0.4743 -0.3951 -0.0205
18399W        W33868   1.770  17.169   3.262  0.0526 -0.2268  0.0407
18400W        W33869  16.367   4.535  15.360  0.0385  0.1371 -0.0729
18401W        W33870  14.099   5.440  12.712 -0.0821  0.1943  0.0311
18402W        W33871  17.555   4.355   1.384 -0.1611 -0.4910 -0.2354
18403W        W33872   3.828   8.583  11.393  0.0479 -0.3919 -0.1579
18404W        W33873  13.223  13.259   5.307 -0.0646  0.1071 -0.1764
18405W        W33874   7.750  11.198  15.877  0.0875 -0.0912 -0.0185
18406W        W33875   0.568  16.838  16.432 -0.2253  0.0821 -0.0739
18407W        W33876  11.924  12.231  14.444 -0.0750  0.0768  0.3523
18408W        W33877  10.634   7.870   0.253 -0.3852 -0.0201  0.0887
18409W        W33878   4.350  14.952   2.954  0.1402 -0.0979  0.4553
18410W        W33879   8.104   1.461  14.845 -0.2351 -0.1406 -0.0634
18411W        W33880  12.139  10.920  13.515 -0.0624 -0.1561  0.0778
18412W        W33881  13.738   7.621  14.922  0.0057 -0.0767 -0.2614
18413W        W33882  17.208   8.863  11.280 -0.3336  0.1135 -0.2501
18414W        W33883   7.657   9.960  15.298 -0.2956  0.0435  0.2634
18415W        W33884   5.649  15.232  11.887  0.2467 -0.3123 -0.0115
18416W        W33885  15.431  14.528   2.127 -0.0713  0.2219  0.0511
18417W        W33886   2.026  11.450  12.095 -0.0516 -0.2767 -0.3657
18418W        W33887   1.854  15.163   1.430 -0.1351 -0.0945 -0.0390
18419W        W33888  13.497   0.620  13.492 -0.0267 -0.1374  0.0618
18420W        W33889   6.873  12.149   2.025 -0.1811 -0.0262 -0.2507
18421W        W33890  16.500   8.848  13.171 -0.0443  0.0900 -0.2196
18422W        W33891   2.650  15.132   4.807 -0.0248  0.2369 -0.2390
18423W        W33892  17.025  13.417  12.500  0.2934  0.1156 -0.0513
18424W        W33893  16.994   9.766   5.839  0.3962 -0.2402  0.0728
18425W        W33894   1.866   8.812  12.284  0.0617  0.1679  0.1550
18426W        W33895  15.003   2.149   1.731  0.2804  0.4614  0.0492
18427W        W33896   8.921  15.530   3.317  0.2126 -0.0697 -0.3121
18428W        W33897   5.343   7.470   3.979 -0.0984  0.0113  0.2488
18429W        W33898  14.842  12.109  13.629 -0.0032  0.1317 -0.1898
18430W        W33899  10.995  11.361   5.847  0.1146  0.1416  0.2773
18431W        W33900   2.681  12.467   3.125  0.1835 -0.1970 -0.0205
18432W        W33901  14.961   3.104   6.052 -0.0478 -0.1384  0.2323
18433W        W33902  13.859   1.805  14.962  0.2127  0.2747  0.0058
18434W        W33903   6.468  17.218  13.225 -0.0834  0.0272 -0.0060
18435W        W33904   6.275  11.598   1.417 -0.0343 -0.0571 -0.1622
18436W        W33905   4.149   1.209  13.531 -0.1815 -0.3541 -0.4014
18437W        W33906   1.558  13.682   5.133 -0.2291  0.2375  0.0338
18438W        W33907   8.538  16.716   0.989 -0.4611  0.1537  0.2112
18439W        W33908   9.234   6.153  14.943  0.2987  0.1309  0.3911
18440W        W33909   9.185   3.938  12.951 -0.3022 -0.1566  0.3409
18441W        W33910   5.583   4.555   0.050 -0.1252  0.0557  0.0000
18442W        W33911   1.962   3.049   3.295  0.4023  0.3679 -0.2600
18443W        W33912  14.907   0.122   2.846  0.0798  0.1907  0.2365
18444W        W33913   0.054   0.930  11.378 -0.0478  0.0857 -0.1721
18445W        W33914   4.552  13.552  14.492 -0.2635  0.1589 -0.2364
18446W        W33915  10.828   7.176   3.154  0.3369 -0.0057  0.0082
18447W        W33916  17.273  15.154   1.643  0.0705  0.3641 -0.0930
18448W        W33917  16.396   7.353  12.020 -0.3162  0.0320  0.0501
18449W        W33918   7.958  13.009  15.876 -0.1372 -0.2303  0.1392
18450W        W33919  11.302  13.668  12.068 -0.0155  0.0874 -0.0431
18451W        W33920  17.591  11.071  12.379 -0.1725  0.1599  0.1427
18452W        W33921   3.951  17.383  13.965 -0.0798 -0.3653 -0.0299
18453W        W33922   8.875   3.716  12.542  0.0795 -0.2327 -0.0275
18454W        W33923   9.993   2.570   4.487 -0.1144  0.0498 -0.2017
18455W        W33924   1.620   7.222  13.942 -0.1333 -0.0862  0.2250
18456W        W33925   2.078   3.871  14.249 -0.1757 -0.1807 -0.1531
18457W        W33926   6.157   8.966  12.917 -0.1592  0.0004 -0.0724
18458W        W33927   4.510  15.525   2.775  0.1623  0.0495 -0.0293
18459W        W33928  14.417  15.689   3.601  0.0037  0.0146  0.0133
18460W        W33929  11.018  13.981   5.893  0.1197 -0.2161  0.0145
18461W        W33930   4.731   3.863  12.398 -0.1763 -0.2227 -0.1264
18462W        W33931  13.235   7.674   1.785 -0.0832  0.2234 -0.0282
18463W        W33932   8.849   4.947  14.365  0.0084  0.1298 -0.2214
18464W        W33933  11.094   4.960   1.235 -0.0666 -0.0282 -0.1768
18465W        W33934  12.772   5.010  12.062 -0.3122  0.2538  0.0271
18466W        W33935   5.690  15.384  13.998 -0.0574  0.0484  0.0348
18467W        W33936   0.144   6.054  16.067 -0.2028 -0.2231 -0.1754
18468W        W33937   4.978  14.829   5.900 -0.0330  0.2684  0.0767
18469W        W33938   0.788   8.861  15.838  0.1662 -0.1550  0.1457
18470W        W33939  17.320   8.089  14.032 -0.3066 -0.2684 -0.1680
18471W        W33940  14.969  16.096  12.385  0.1690 -0.0416  0.2248
18472W        W33941   3.224  15.534  12.005  0.0316 -0.1918  0.4342
18473W        W33942   6.280  11.937  11.559  0.2330  0.0152  0.0163
18474W        W33943   0.455   6.239  12.095 -0.1316  0.0486  0.1656
18475W        W33944   8.354  17.453   4.398  0.1562 -0.3343  0.1188
18476W        W33945  11.324   0.536   5.990 -0.1111  0.2639 -0.0312
18477W        W33946   0.602  16.419   3.635  0.1692 -0.4155  0.1501
18478W        W33947   0.209  17.086  16.067 -0.0528  0.0401  0.3719
18479W        W33948  13.375   4.309  12.486  0.1038 -0.2724 -0.0630
18480W        W33949   3.917  12.944  14.043 -0.0007  0.0394  0.1366
18481W        W33950  13.598  12.533   2.365 -0.4035 -0.3312  0.1128
18482W        W33951  12.784   5.481   3.039  0.1467 -0.0434  0.0845
18483W        W33952  14.073  15.759   4.027  0.1202 -0.1748  0.4285
18484W        W33953   9.617  11.956  16.476 -0.0325 -0.1884  0.2054
18485W        W33954  13.462  16.887   2.896 -0.3927  0.1931  0.1533
18486W        W33955   0.284  10.737   5.499 -0.1484 -0.1328  0.1463
18487W        W33956  16.384   7.139   1.436 -0.3145 -0.0602  0.1591
18488W        W33957  10.011   0.855   0.555 -0.0182  0.1043  0.0055
18489W        W33958   7.574   4.006   5.172  0.2001  0.3260  0.2451
18490W        W33959  16.911  12.221   2.927  0.4004 -0.2402 -0.1134
18491W        W33960   4.810  12.975  12.908 -0.2118 -0.0696 -0.0367
18492W        W33961   1.015  17.341  13.762 -0.2565 -0.1668  0.1940
18493W        W33962   7.159  15.606  14.832 -0.3612  0.1077 -0.0317
18494W        W33963   8.596   9.906  15.184  0.1494  0.1502 -0.0718
18495W        W33964   9.538   5.308   1.849 -0.1995 -0.2217 -0.1024
18496W        W33965   1.345   3.822   2.380 -0.0806 -0.0056  0.0232
18497W        W33966   3.942  13.416  16.245 -0.0191 -0.1376 -0.1609
18498W        W33967   7.833   4.754   2.351  0.1837 -0.2725 -0.1080
18499W        W33968   1.651  17.371  10.825 -0.1617  0.1834 -0.2308
18500W        W33969   2.413   2.260   2.026  0.2721  0.1217  0.1804
18501W        W33970  11.309  17.746   0.624  0.0725  0.1106 -0.0723
18502W        W33971  12.244  11.199  15.403  0.1759 -0.4413 -0.1884
18503W        W33972   8.650   6.952  15.435 -0.0283  0.1380  0.3430
18504W        W33973   7.066   2.841   0.623 -0.0133  0.3573  0.0868
18505W        W33974  14.247   1.370   4.072 -0.4430  0.0345  0.1196
18506W        W33975  12.629  15.293  12.852 -0.1479  0.1695 -0.0667
18507W        W33976   4.789   1.340   3.065 -0.2224  0.0462  0.1290
18508W        W33977   6.686   3.901  13.334 -0.0435  0.0850 -0.3978
18509W        W33978   2.639  17.126   4.851 -0.1198  0.3846  0.1463
18510W        W33979   3.047   1.069  11.458  0.3384 -0.1597  0.0288
18511W        W33980  10.019  13.138   1.870  0.2418  0.1353 -0.0717
18512W        W33981   5.174   1.135  15.610 -0.0876 -0.2336  0.2062
18513W        W33982   8.123  13.255   6.519  0.1172  0.3008 -0.0731
18514W        W33983   9.326   6.382   1.499 -0.0828 -0.0750  0.1195
18515W        W33984   2.587   5.531   5.496  0.1502 -0.0010 -0.1311
18516W        W33985   7.978  15.413  16.457  0.0764  0.0477  0.1377
18517W        W33986   3.665   3.016  14.835 -0.1172  0.1396  0.1696
18518W        W33987  11.959  11.115  15.991 -0.1258 -0.2146  0.0683
18519W        W33988   0.180  14.074  16.050  0.0297 -0.0042 -0.2625
18520W        W33989  11.423   3.576   5.992 -0.0092 -0.2284 -0.1833
18521W        W33990  11.432   9.269  15.252 -0.1076 -0.0384  0.3117
18522W        W33991  14.803   2.792   5.034 -0.1465 -0.2771 -0.0557
18523W        W33992   7.066  17.779  12.362  0.2186  0.1410  0.1726
18524W        W33993   1.799   9.429  13.668 -0.0591  0.1271 -0.5273
18525W        W33994  14.544  16.084  12.735 -0.0256  0.2123  0.2077
18526W        W33995   5.593   4.413  15.674  0.0619 -0.0001 -0.0584
18527W        W33996  12.378   3.210  12.969  0.1074 -0.0201 -0.1117
18528W        W33997   2.687   2.772  11.770  0.2104 -0.0951 -0.0229
18529W        W33998  10.802   5.810  14.074 -0.2305 -0.1557  0.1274
18530W        W33999   3.938  13.785  11.924 -0.1266  0.1495 -0.2331
18531W        W34000   8.662   8.311   5.625  0.0112  0.1661  0.2433
18532W        W34001   8.852  17.243  13.996 -0.0319 -0.1227  0.0500
18533W        W34002   2.238   7.563   0.243 -0.2660  0.0433  0.2845
18534W        W34003  13.202   1.089  16.738 -0.0935 -0.0949  0.0992
18535W        W34004   5.328   8.305   2.122  0.2403 -0.2261  0.2920
18536W        W34005   6.518  14.233   4.483 -0.3306  0.4533 -0.0853
18537W        W34006  16.156  17.313   3.518  0.1017  0.0718  0.1842
18538W        W34007   7.365   5.727   6.438  0.1107 -0.1116  0.0671
18539W        W34008  11.383  13.836   2.900  0.2411  0.0510 -0.2207
18540W        W34009   0.448   9.494  15.113  0.4380 -0.2177  0.1143
18541W        W34010  13.117  10.916   3.290  0.0980  0.0646  0.2732
18542W        W34011  15.878   4.312  14.029 -0.0217  0.0652  0.0281
18543W        W34012  10.433  12.484   2.613  0.1616 -0.3295 -0.2659
18544W        W34013   1.959   6.487  10.898 -0.0379 -0.1030 -0.2047
18545W        W34014  16.241  16.442  15.541 -0.1307 -0.1709  0.0305
18546W        W34015   1.025   9.589  15.127  0.1256 -0.1748  0.2901
18547W        W34016  16.871   0.866   5.433  0.3405  0.1851  0.1646
18548W        W34017   7.090   9.135  16.131  0.0604 -0.1240 -0.0036
18549W        W34018  16.032  10.233   4.199  0.0141 -0.1574  0.0956
18550W        W34019  17.285  14.438  14.485 -0.1174  0.2446 -0.0256
18551W        W34020   2.933   5.053   1.966 -0.1879  0.3597  0.2885
18552W        W34021  14.906  16.514  12.666 -0.1248  0.0818 -0.2427
18553W        W34022  13.469  14.144  14.270 -0.0141 -0.0045  0.2465
18554W        W34023   1.736   5.886   1.826 -0.0317  0.1200 -0.1875
18555W        W34024  15.392  12.737   2.788  0.1253  0.2083 -0.4281
18556W        W34025   7.072  13.538   0.803  0.1435  0.1216 -0.3281
18557W        W34026  10.545   9.128   0.371 -0.0263  0.2316 -0.1707
18558W        W34027   9.752  10.670   4.176  0.0393  0.1123  0.2201
18559W        W34028   2.858   1.534  11.384 -0.1432 -0.0259  0.0670
18560W        W34029  12.025  14.796  14.114 -0.3389 -0.2116  0.1596
18561W        W34030   2.172  14.218   5.101  0.1010  0.0153  0.2271
18562W        W34031  14.838   2.165   4.719 -0.1524 -0.0124 -0.1151
18563W        W34032  16.476  11.016  14.470 -0.1830 -0.3152  0.2837
18564W        W34033   8.011   1.284   4.949 -0.1607  0.3615 -0.1628
18565W        W34034   6.300  14.606  13.859 -0.0648  0.0245 -0.0061
18566W        W34035   9.551   9.795   2.074 -0.0937 -0.1531 -0.1037
18567W        W34036  15.321   5.958  15.571  0.1066 -0.0909 -0.3252
18568W        W34037  16.581  10.312   5.158 -0.1940  0.2096 -0.0374
18569W        W34038   5.381   9.020  14.579  0.2384 -0.0113  0.3487
18570W        W34039   4.279  16.937  15.308 -0.0383  0.1147 -0.2169
18571W        W34040   7.557   1.191   5.307 -0.1354 -0.1113  0.1013
18572W        W34041   1.258   6.671  12.515 -0.1048 -0.0871 -0.0040
18573W        W34042   9.498   4.346   2.084 -0.0832 -0.4193  0.0636
18574W        W34043   8.545   2.072  15.243 -0.0738 -0.1149  0.4456
18575W        W34044   4.113   5.581   3.007  0.2297 -0.0331  0.0056
18576W        W34045   3.883   0.711  11.943 -0.0047 -0.0876  0.0147
18577W        W34046   1.479  15.637  13.602  0.1305  0.1522 -0.0262
18578W        W34047  11.395   4.323  16.500 -0.2210  0.0123  0.0595
18579W        W34048   1.995   5.837  15.806 -0.1056 -0.0520 -0.1544
18580W        W34049   6.373   3.990   3.580 -0.0186 -0.0822 -0.1894
18581W        W34050  14.898  13.081  16.770 -0.1145 -0.3236  0.0439
18582W        W34051  13.108  17.186   3.400 -0.1292  0.4405 -0.1000
18583W        W34052   7.326  16.337  12.286 -0.0144  0.3649  0.0190
18584W        W34053  15.536   2.418  11.598 -0.1737 -0.1294 -0.0208
18585W        W34054   6.914   6.473   1.262  0.2389  0.1381 -0.0892
18586W        W34055   6.170   7.982  14.081  0.2868  0.0585  0.1870
18587W        W34056  14.293   6.369  13.401  0.2037  0.1231 -0.3571
18588W        W34057  10.103   9.719  13.925 -0.1866  0.0727  0.0938
18589W        W34058  11.679   6.735   5.475 -0.0988 -0.0353  0.0374
18590W        W34059   8.975   5.622  12.186  0.1057 -0.0475 -0.1169
18591W        W34060   5.795   3.416   4.436  0.1506 -0.1922  0.0678
18592W        W34061  12.117  13.894  16.786 -0.1561  0.1841  0.4949
18593W        W34062  15.675  13.765   1.848 -0.1773 -0.0392  0.0930
18594W        W34063  16.528   3.467   1.442 -0.2129 -0.0983 -0.0804
18595W        W34064   2.544  11.556   3.205  0.1336 -0.2992 -0.4721
18596W        W34065   3.154   2.689  11.416 -0.0616 -0.1890 -0.1004
18597W        W34066  15.354  13.220  16.498 -0.2034 -0.2845 -0.1323
18598W        W34067  13.396   1.605  16.675  0.0552 -0.2374 -0.1064
18599W        W34068   2.961   5.423  12.238  0.1269  0.1580 -0.0172
18600W        W34069   1.324  15.187   1.945  0.2062 -0.0248 -0.1655
18601W        W34070   1.656  13.334   6.051  0.2459  0.1585 -0.0311
18602W        W34071  13.600  15.929   5.710  0.0641 -0.3569  0.0824
18603W        W34072   0.470   4.460   3.839 -0.0071 -0.0818  0.3810
18604W        W34073  12.916   5.933  15.632 -0.2413 -0.0222  0.1426
18605W        W34074   7.538   6.986   0.564  0.0667 -0.2487  0.0077
18606W        W34075   9.246  17.230  13.229  0.2902  0.2191  0.0130
18607W        W34076   2.137  10.522   4.635  0.1557 -0.2861  0.0083
18608W        W34077   5.229  10.829  13.059  0.3666  0.2414 -0.2157
18609W        W34078  15.770  13.836  11.255 -0.0135 -0.0492 -0.1023
18610W        W34079   1.835   3.398  11.345 -0.0151 -0.1227  0.0578
18611W        W34080   2.712  12.726  12.615 -0.0633 -0.0664 -0.0036
18612W        W34081  12.995   4.022  12.284  0.1701  0.0340 -0.2167
18613W        W34082   5.601   1.090  15.920 -0.2193  0.1116 -0.0234
18614W        W34083  17.319  13.708   3.257 -0.2892 -0.3505 -0.0298
18615W        W34084   4.129   7.462  12.056 -0.1933  0.0155  0.0780
18616W        W34085   0.637  15.583  15.810  0.0456 -0.1127  0.1035
18617W        W34086   6.970   5.323  11.909 -0.0675 -0.0493 -0.0046
18618W        W34087   8.722   4.144  12.945 -0.0658  0.3395 -0.2966
18619W        W34088  10.638   9.023   0.866  0.1550  0.1458  0.1874
18620W        W34089  14.880   5.840  15.322 -0.2796 -0.2162  0.0284
18621W        W34090  17.586   0.687  16.219 -0.0993  0.1377 -0.0833
18622W        W34091  10.961  11.588  12.783 -0.2862  0.1597 -0.2696
18623W        W34092   9.682   8.846  12.356 -0.0586 -0.1398  0.0827
18624W        W34093  14.071  16.202   5.780  0.4252 -0.0977  0.0702
18625W        W34094   0.641  16.633  15.948  0.1568 -0.0587 -0.1951
18626W        W34095  15.801   0.927   3.933 -0.2599  0.0039 -0.0279
18627W        W34096   7.829   5.024  12.237  0.3366  0.3599 -0.2028
18628W        W34097  10.096  16.610   4.340  0.0011  0.1004  0.4034
18629W        W34098   6.489  10.434   3.237  0.0978  0.3493  0.0912
18630W        W34099   6.608   5.135  14.076  0.1186  0.2438 -0.1540
18631W        W34100  16.020   2.218  11.521  0.2929 -0.0604  0.0605
18632W        W34101   8.886  12.503  16.022 -0.1686  0.0567 -0.1916
18633W        W34102   7.201  14.292  13.540 -0.0718 -0.0614  0.1514
18634W        W34103  12.508  13.854   5.794  0.3581 -0.1240  0.1009
18635W        W34104   3.495   6.902   1.585 -0.0663  0.0702  0.3207
18636W        W34105   7.761   9.277  11.995 -0.1051  0.0641 -0.1935
18637W        W34106   7.606   9.239   4.909  0.3384 -0.0345 -0.2549
18638W        W34107   0.211  17.092  13.362 -0.3959  0.0718  0.1291
18639W        W34108   9.024  10.318   3.215 -0.0660  0.1543 -0.1342
18640W        W34109   5.408   7.783  16.811  0.3173 -0.0787 -0.1413
18641W        W34110  14.512  11.066  12.122  0.4212  0.1791 -0.1608
18642W        W34111  13.873  16.767  11.261 -0.2272 -0.0182  0.0427
18643W        W34112  13.620  14.789  12.042  0.2768 -0.0749  0.0042
18644W        W34113  14.564   7.594   1.573  0.0175 -0.0381 -0.0458
18645W        W34114  14.104   2.521  12.749 -0.1931  0.1289 -0.1181
18646W        W34115  14.331   1.516   0.759  0.2426 -0.1100 -0.3031
18647W        W34116  13.784   4.425   4.794 -0.3249 -0.2323  0.1368
18648W        W34117   8.766   6.172  14.173 -0.4020  0.1853 -0.1480
18649W        W34118   0.186   5.824  13.561 -0.2068 -0.2723 -0.0429
18650W        W34119  14.112  10.515  14.813 -0.3197 -0.2645  0.1646
18651W        W34120   7.210  16.003   2.881 -0.2032 -0.3028  0.0624
18652W        W34121   5.500  15.655   4.635 -0.0393 -0.0981 -0.0505
18653W        W34122  14.588  14.712  14.871  0.0427 -0.1259  0.0223
18654W        W34123   9.342  10.107  14.407 -0.2430 -0.0739 -0.4279
18655W        W34124   9.046   1.768   2.121  0.1398  0.1745 -0.0053
18656W        W34125  17.586   9.427  11.864  0.0268  0.2947  0.1226
18657W        W34126  10.028  15.442   1.854  0.2548 -0.2529 -0.2723
18658W        W34127   5.895   9.831  13.137  0.0332 -0.0053 -0.0304
18659W        W34128  13.253  13.309   2.271 -0.2141 -0.0825  0.0393
18660W        W34129  15.408  12.953  14.592 -0.2199  0.1660  0.2132
18661W        W34130  13.383   4.585  12.921 -0.2089 -0.0875  0.4950
18662W        W34131  10.752  14.786   0.881 -0.0186  0.0040  0.0313
18663W        W34132  13.261   0.204  15.136 -0.2678  0.0358  0.0701
18664W        W34133  15.955   3.989  16.096  0.0357 -0.0519  0.2602
18665W        W34134   2.537   2.104   1.546  0.0531  0.0125  0.2618
18666W        W34135  14.731  10.385  11.769  0.0834  0.0199 -0.1792
18667W        W34136  12.069  17.191   4.520 -0.0406  0.0604 -0.4203
18668W        W34137  10.996  12.022   1.487  0.1295  0.0388 -0.0146
18669W        W34138  11.226  14.906  16.437  0.1551 -0.1389 -0.0685
18670W        W34139   2.914  14.766   0.864  0.0716 -0.2596  0.1740
18671W        W34140   1.639  15.641  10.864  0.0441  0.0373  0.2601
18672W        W34141   8.875   6.980  13.748  0.1873  0.2824 -0.1121
18673W        W34142   1.908  10.904  12.604 -0.2585 -0.1486 -0.1974
18674W        W34143  12.579   2.701  16.030  0.4863  0.0173  0.1695
18675W        W34144  17.503   6.984   5.273  0.0584 -0.2108  0.0486
18676W        W34145  10.305   3.109  15.886  0.0715  0.0969 -0.0440
18677W        W34146   9.171  14.837   3.813  0.1777 -0.0620 -0.0396
18678W        W34147   2.573   5.892   4.425 -0.1677 -0.1238  0.2283
18679W        W34148  12.489   6.343   4.627  0.0289 -0.0147  0.3508
18680W        W34149  14.662  13.096  13.256 -0.0846 -0.0990  0.0869
18681W        W34150  10.532  13.961   3.804 -0.0245 -0.1475  0.1967
18682W        W34151   8.140   0.009   4.807 -0.2455  0.1326 -0.0341
18683W        W34152  10.281  13.711  12.875 -0.0591 -0.1280  0.1902
18684W        W34153   8.026   8.240  12.697 -0.0749  0.0673 -0.0887
18685W        W34154  13.222  16.280  15.220  0.0897 -0.2963  0.0515
18686W        W34155   9.599   6.737   0.578  0.4715 -0.1607 -0.0967
18687W        W34156   2.023   9.022   2.125  0.0247 -0.0389 -0.1081
18688W        W34157  12.180   8.232  12.160 -0.0424  0.2251 -0.1669
18689W        W34158  13.700   5.052  14.252  0.1697 -0.1141  0.1023
18690W        W34159  16.794   4.889  13.132 -0.0764  0.1436  0.4651
18691W        W34160  11.593   6.320   4.652  0.3037 -0.0110 -0.0472
18692W        W34161   0.451   9.113  10.511 -0.1077 -0.3461 -0.1283
18693W        W34162  11.974  17.646   2.161  0.0722 -0.0816  0.0250
18694W        W34163  11.219   0.821  11.474 -0.2044  0.0279 -0.1573
18695W        W34164   3.919   0.394  16.639 -0.0077  0.0237 -0.1706
18696W        W34165   7.173  14.007   5.099  0.1452 -0.3053  0.1412
18697W        W34166   8.640   1.988  12.362 -0.2372  0.0451 -0.1122
18698W        W34167  13.862   5.627   3.693  0.0870  0.0975  0.1169
18699W        W34168  10.650  11.172   1.550 -0.1506  0.0583 -0.0000
18700W        W34169   1.646   8.283  15.578 -0.0431 -0.2306 -0.0518
18701W        W34170   6.618   0.693   5.236  0.2458  0.0618  0.0337
18702W        W34171  17.035  13.574  15.262 -0.1543 -0.2301 -0.2466
18703W        W34172  17.171   9.907   0.317  0.0815 -0.0157 -0.2857
18704W        W34173  13.712  12.000   1.433 -0.4148 -0.0557 -0.1975
18705W        W34174   6.921   4.459  13.432 -0.0092  0.0623  0.0172
18706W        W34175   8.237  11.725   5.236  0.2586  0.1256  0.1517
18707W        W34176   1.182  14.876  16.536 -0.1147 -0.0905  0.0580
18708W        W34177  13.724  10.164  12.927 -0.1015 -0.1135  0.1765
18709W        W34178  11.294   7.647  14.090  0.2672 -0.3220  0.0653
18710W        W34179  17.543  10.021   0.738  0.0990  0.2288 -0.0471
18711W        W34180   8.441   5.781   4.611 -0.0870 -0.0725 -0.2050
18712W        W34181  12.073   5.925   5.858 -0.0362  0.4953 -0.0906
18713W        W34182   4.138  16.731  14.836 -0.0822 -0.0288 -0.1091
18714W        W34183   7.459   3.899  14.344  0.0440  0.1540 -0.0984
18715W        W34184   1.249  15.831   1.165 -0.0659 -0.4209 -0.1454
18716W        W34185  14.037  11.617   1.399  0.2565  0.1921 -0.3413
18717W        W34186  10.001  13.224   2.358  0.3353  0.1512  0.0851
18718W        W34187  15.936   6.490   4.049  0.5514  0.0128 -0.0538
18719W        W34188  11.222  15.917   3.566 -0.1327 -0.0427 -0.0383
18720W        W34189   0.500  14.292   0.404  0.0792 -0.0089  0.0709
18721W        W34190   4.298  10.873   4.462 -0.2138  0.0318 -0.2361
18722W        W34191   9.894   1.156   5.535  0.1683  0.0343 -0.1428
18723W        W34192  10.332   4.769   5.402  0.0020 -0.1323 -0.1035
18724W        W34193  14.601  14.474  15.467  0.1164 -0.1788 -0.1358
18725W        W34194  11.271   2.081   3.474 -0.2615  0.3590  0.1338
18726W        W34195  13.613  12.870   1.603 -0.0876  0.3208  0.1754
18727W        W34196  15.984   3.272   3.501  0.0029 -0.0895 -0.0431
18728W        W34197  16.998   6.312  14.547 -0.4043  0.0888 -0.0512
18729W        W34198   4.670  12.705  12.501 -0.3047 -0.1761 -0.1131
18730W        W34199  14.469   9.081  14.435  0.0496  0.0691 -0.0814
18731W        W34200  15.080  16.892   0.338  0.2392  0.0026  0.0105
18732W        W34201   9.988  13.014   6.231 -0.0289  0.0670 -0.2508
18733W        W34202  15.155  13.131   4.013  0.0690  0.1020  0.1318
18734W        W34203   4.266   7.120   1.959  0.1141  0.3083  0.2547
18735W        W34204   3.217  11.154   2.443  0.1084  0.3475  0.0170
18736W        W34205  14.993  14.098  16.393 -0.1884  0.0323  0.2824
18737W        W34206   8.592  12.501  14.503 -0.0068  0.3198 -0.0226
18738W        W34207  15.521  14.378  16.410 -0.1398  0.1487  0.0591
18739W        W34208  13.673  11.361  13.684 -0.3425  0.0364 -0.0121
18740W        W34209  10.383   6.896  12.220  0.0296 -0.0758  0.2199
18741W        W34210  17.345   0.209  14.487 -0.2240  0.0994  0.1191
18742W        W34211   6.196   2.160  11.844 -0.3971 -0.1398 -0.5188
18743W        W34212  13.411   7.191  13.315  0.0383 -0.0221 -0.3167
18744W        W34213  12.948  14.877  14.171  0.2930  0.0097  0.1282
18745W        W34214  13.923   5.089   2.483  0.1068  0.3605 -0.3544
18746W        W34215   6.172  15.199  16.577 -0.1067  0.2794 -0.2970
18747W        W34216  17.367   3.197  14.860  0.3515 -0.0286 -0.1224
18748W        W34217   4.945   7.492  12.882 -0.0011 -0.1142 -0.3380
18749W        W34218   2.376   2.849  12.266 -0.3142 -0.0759 -0.1337
18750W        W34219   4.454  11.146  14.842  0.1314 -0.0874 -0.3265
18751W        W34220  17.002  17.267   2.995  0.0577  0.1931 -0.4122
18752W        W34221  16.167  16.412   1.664  0.0690 -0.2512  0.0117
18753W        W34222   9.121   9.507  15.613  0.0755 -0.1893 -0.2920
18754W        W34223  14.993  11.739  16.446 -0.2635  0.0174 -0.2248
18755W        W34224   6.309  14.366  13.360 -0.1243 -0.0580 -0.2537
18756W        W34225  16.264  15.121  15.188  0.0980 -0.1844  0.0062
18757W        W34226   4.529   9.808   5.815 -0.0614  0.2080 -0.2534
18758W        W34227   1.204  14.159  10.134 -0.1612  0.0507  0.1862
18759W        W34228   5.971   8.245   0.555  0.0539  0.0538  0.1076
18760W        W34229  14.664   2.561  16.604  0.2548 -0.0277  0.2506
18761W        W34230   6.300   1.134   5.834  0.1190  0.0625 -0.2607
18762W        W34231   6.032  17.511   3.936  0.0427 -0.0455  0.2252
18763W        W34232  15.441  14.538   2.644  0.0320 -0.0691 -0.2482
18764W        W34233   4.397  15.407  15.569 -0.0284  0.0707  0.2406
18765W        W34234   6.323  13.175  16.058  0.0561  0.0605 -0.0733
18766W        W34235   7.582  11.317   2.352  0.2012 -0.0361 -0.1849
18767W        W34236   7.996   1.683   3.853 -0.1337  0.1472  0.1485
18768W        W34237   3.462  14.495   3.920  0.1814 -0.0468  0.0174
18769W        W34238  15.423   9.775  11.237  0.0090  0.3405  0.2672
18770W        W34239   2.061   5.939  16.536  0.1285  0.2722 -0.0955
18771W        W34240   1.406   8.813  12.493  0.1669  0.0426  0.2197
18772W        W34241   3.897   9.724  14.233  0.3013  0.0687  0.2356
18773W        W34242  15.945  11.763  13.144  0.2591  0.1513  0.1067
18774W        W34243  10.850   6.371  16.731  0.0986 -0.2105 -0.1247
18775W        W34244   5.224  10.110   4.672  0.1523  0.0834 -0.0991
18776W        W34245   4.640  15.497  14.751 -0.1300 -0.0881 -0.2490
18777W        W34246  16.840   3.328   5.755  0.0180 -0.2441  0.0570
18778W        W34247  10.311   3.161  16.435 -0.2102  0.1006 -0.1426
18779W        W34248   8.502  11.362  12.720  0.0592 -0.1248  0.0331
18780W        W34249   1.746   7.677   2.323 -0.2123  0.3364 -0.0683
18781W        W34250   8.689   3.628  13.011 -0.1529  0.2441  0.0833
18782W        W34251   9.226   5.029  13.858 -0.2303 -0.2465 -0.0320
18783W        W34252  13.242  13.985  13.715  0.2341  0.1750  0.0943
18784W        W34253  13.611   0.882  14.361 -0.0405 -0.0396 -0.3748
18785W        W34254  14.490   4.861   1.883  0.1036  0.0405 -0.2296
18786W        W34255   9.588   7.068   3.956  0.2377  0.2229  0.1868
18787W        W34256  15.175  13.176  15.996 -0.0117  0.2291  0.0077
18788W        W34257   2.186  14.096  11.526 -0.0017 -0.1512  0.0582
18789W        W34258   2.450  16.837  10.927  0.1200 -0.0867  0.0681
18790W        W34259  12.763   6.984  12.793 -0.0282 -0.1316  0.0754
18791W        W34260  16.923  13.576   4.073 -0.1502  0.0027  0.1426
18792W        W34261  13.596   5.965   5.517  0.1902  0.0266 -0.0178
18793W        W34262  16.341   2.256  15.561 -0.1320  0.1787 -0.0834
18794W        W34263  17.418   4.935  15.956  0.1918  0.1624 -0.0075
18795W        W34264  13.293  17.722   3.236  0.3441 -0.0657 -0.2569
18796W        W34265  15.910  17.414  13.303  0.0809  0.0502 -0.3424
18797W        W34266   7.375  11.112  14.886  0.3688 -0.2077 -0.0766
18798W        W34267   0.576   4.027  12.648  0.0762  0.0304 -0.1717
18799W        W34268   1.695  14.610  15.639 -0.0982  0.0497 -0.0181
18800W        W34269   4.026   4.961   4.241 -0.0336  0.1331 -0.2995
18801W        W34270  16.727   1.085  16.550  0.1003 -0.0589 -0.1736
18802W        W34271   2.458  17.680   2.135  0.1269  0.1592  0.1659
18803W        W34272   4.472   8.769   3.160 -0.2229  0.1069  0.0444
18804W        W34273   4.313   0.240   5.294  0.0340  0.0153 -0.0002
18805W        W34274   7.231  14.859   4.651 -0.3737  0.1400  0.0595
18806W        W34275  12.956  16.092   2.173  0.0685 -0.0126  0.0761
18807W        W34276   2.260  17.188  16.633  0.1277  0.0845 -0.2029
18808W        W34277   2.342  10.733  10.774  0.3616  0.0854  0.1798
18809W        W34278   6.132   1.703  12.169  0.2046  0.0701 -0.1116
18810W        W34279  16.761   0.258   2.878 -0.2107 -0.1284 -0.0373
18811W        W34280   5.811   0.961   4.550  0.1533 -0.3817  0.0542
18812W        W34281   5.499   1.582  12.733 -0.2263  0.2497 -0.0890
18813W        W34282   4.522  14.786  15.266 -0.2046 -0.1904 -0.0235
18814W        W34283   6.776   1.889  16.565  0.2075 -0.1740  0.0473
18815W        W34284  14.467  15.885  14.101 -0.1728 -0.0452 -0.1224
18816W        W34285   0.091   3.449  15.043 -0.0321  0.0838 -0.0338
18817W        W34286   9.788  15.386   0.034 -0.0359 -0.0584  0.1154
18818W        W34287  12.024   2.399  13.684 -0.0906 -0.0826 -0.0628
18819W        W34288  16.032   1.625  16.231 -0.0090 -0.0013  0.0276
18820W        W34289  10.512  16.629  12.997 -0.0124 -0.0593 -0.1351
18821W        W34290  15.151  17.212   1.701 -0.1928 -0.0139 -0.0484
18822W        W34291  10.684  11.387   1.989 -0.1959  0.2564 -0.0036
18823W        W34292   0.845   7.810   4.515 -0.0293  0.1811  0.2662
18824W        W34293   5.687  11.831   4.411 -0.0772  0.0999  0.0108
18825W        W34294   4.342   5.243   1.444  0.1414 -0.1312  0.1060
18826W        W34295  14.488  10.275  15.140 -0.0955  0.1185 -0.0646
18827W        W34296  14.591  13.376  12.365  0.2724  0.4607 -0.1303
18828W        W34297  16.682   3.554   2.793  0.0850 -0.1390 -0.1969
18829W        W34298  15.933   0.428  15.580  0.3632 -0.1259  0.0534
18830W        W34299   2.974   3.184  15.818 -0.1059  0.0183 -0.0814
18831W        W34300  14.620  12.871   4.990  0.2812 -0.0979 -0.3815
18832W        W34301   4.428   6.474   5.492 -0.0643 -0.1603  0.1275
18833W        W34302  10.040   1.286   2.750 -0.1429  0.0225  0.1466
18834W        W34303   9.498  15.069   6.466  0.0150  0.2192 -0.1174
18835W        W34304  12.607  10.896   4.420  0.0311 -0.0766  0.0527
18836W        W34305  11.179   8.197   2.778 -0.2015 -0.2288  0.0485
18837W        W34306  16.817  13.523   5.056  0.1019  0.3495 -0.0452
18838W        W34307   5.550   4.639  16.127 -0.3343 -0.2524  0.1681
18839W        W34308  11.564   0.988  16.412  0.0293 -0.0135  0.1596
18840W        W34309   5.425   1.700  16.579  0.0353  0.0443 -0.0173
18841W        W34310   4.739   9.438  14.493  0.1048  0.0042 -0.0837
18842W        W34311  14.323  10.301   1.683 -0.0380  0.0422  0.1450
18843W        W34312  17.289   1.077  15.323  0.0870  0.2769  0.4035
18844W        W34313   9.228   5.308  14.935 -0.4191  0.1405 -0.1273
18845W        W34314   2.039  15.657  15.401  0.0405  0.0252  0.1960
18846W        W34315  11.436  10.567   5.293  0.2977  0.3710  0.3020
18847W        W34316  12.716   1.512   4.347 -0.0218  0.1040  0.1283
18848W        W34317   2.835   8.967   1.208 -0.0777 -0.0917 -0.1918
18849W        W34318   5.377  11.022  11.256 -0.0098 -0.1653  0.0984
18850W        W34319   4.489   2.464   3.128 -0.1665 -0.1902  0.1442
18851W        W34320  13.247  16.129   4.807  0.1820  0.0057 -0.1128
18852W        W34321   8.305  16.664  13.751  0.0590  0.0245 -0.4451
18853W        W34322   3.970   4.208   4.731  0.0590 -0.2414 -0.0731
18854W        W34323   3.514   8.222  12.219 -0.0217 -0.0322  0.0759
18855W        W34324  12.624   6.003  12.258  0.2342  0.0609 -0.0812
18856W        W34325   1.336  14.021   1.486 -0.2429  0.1207  0.1748
18857W        W34326   8.391  11.960  15.990  0.2171  0.1634  0.0466
18858W        W34327   7.261   6.761   2.487 -0.3514  0.1498 -0.1240
18859W        W34328   7.184  12.290  14.128 -0.3190 -0.0323  0.0205
18860W        W34329  10.302   4.774   0.834 -0.0442  0.1162 -0.0719
18861W        W34330   2.527   7.019  15.539  0.1777 -0.0881  0.0520
18862W        W34331   1.410   6.405   2.874  0.1763 -0.1792  0.0113
18863W        W34332  11.516   1.133  15.302 -0.1203 -0.1348 -0.0594
18864W        W34333   3.311   2.183  13.596  0.1193 -0.0331 -0.0444
18865W        W34334  11.241   5.606  11.692 -0.0481 -0.0925 -0.1710
18866W        W34335  10.771  16.878  15.517 -0.1216  0.3876 -0.0488
18867W        W34336  16.703   8.737  16.798 -0.3210 -0.2814 -0.0886
18868W        W34337   7.873   4.677  15.864 -0.1698 -0.0263 -0.1711
18869W        W34338   7.601   9.375  14.103  0.1941  0.0408 -0.1559
18870W        W34339  13.158  14.743  11.697 -0.1617  0.1804 -0.2577
18871W        W34340   0.576  13.388  15.658 -0.1342  0.0145  0.3876
18872W        W34341   2.211   4.931  12.422  0.0620 -0.0156  0.0864
18873W        W34342  14.389  10.969  13.006  0.3023  0.1227 -0.2232
18874W        W34343   2.935   8.368  16.627 -0.0597 -0.1960 -0.0469
18875W        W34344   6.726  13.393  16.236  0.0292 -0.1329  0.0350
18876W        W34345   7.904  10.702  13.170  0.0419  0.2545  0.1303
18877W        W34346   6.205  16.965   1.171 -0.1563 -0.1884  0.2334
18878W        W34347   2.716   5.151  11.566 -0.0812 -0.3016 -0.2287
18879W        W34348   5.271   0.675   5.144 -0.0644  0.2347 -0.5792
18880W        W34349  11.425  12.852  14.180  0.1962 -0.1053  0.1165
18881W        W34350  17.652   7.160   4.412 -0.1503 -0.0189  0.3074
18882W        W34351   5.542  10.874  15.447 -0.1839  0.2175 -0.0367
18883W        W34352  17.473  15.010   2.984  0.2710  0.0661 -0.2035
18884W        W34353   5.621   5.948   4.844 -0.1890 -0.0697 -0.1248
18885W        W34354   0.976   0.097   2.907  0.1273  0.1604 -0.1097
18886W        W34355   8.095   3.298   1.262 -0.0388 -0.0488 -0.1599
18887W        W34356   2.574   0.873  12.313  0.1455 -0.1774  0.2173
18888W        W34357   9.320  15.455   3.695  0.1057 -0.1488  0.0133
18889W        W34358   7.066   9.027  11.316  0.0313 -0.0614 -0.1213
18890W        W34359  13.207  17.181  16.453  0.0117 -0.0082 -0.1099
18891W        W34360   9.288   3.992  12.369  0.2256  0.1076 -0.0503
18892W        W34361   8.933  16.281   5.072  0.0393 -0.1460 -0.2438
18893W        W34362  15.231  14.796   1.107 -0.2053 -0.2240  0.2946
18894W        W34363  15.302   8.396   5.142 -0.0431  0.1984 -0.0863
18895W        W34364   2.052  17.750  13.000 -0.2190 -0.2285 -0.2043
18896W        W34365   3.720  13.320   1.102  0.2080 -0.0568 -0.0220
18897W        W34366   1.972   2.909  16.387 -0.2253  0.1760  0.1593
18898W        W34367   2.931   3.248   2.682 -0.1479  0.1768 -0.0430
18899W        W34368  14.874   3.151  12.565  0.2085 -0.0759  0.5684
18900W        W34369   9.550   2.427   5.701  0.0720 -0.4166  0.0068
18901W        W34370   8.632   8.443  16.837 -0.1503  0.0403 -0.4957
18902W        W34371  10.614  17.507  11.735  0.2723 -0.4005  0.1008
18903W        W34372   1.087   0.136   5.036  0.0222  0.0610 -0.1915
18904W        W34373   4.625   7.618  12.078 -0.1732  0.2607  0.0055
18905W        W34374  10.869  17.050  12.617  0.2629  0.1417 -0.0106
18906W        W34375   8.238  14.734  15.727  0.1671  0.0224  0.0753
18907W        W34376   0.264   4.512  12.407  0.1198 -0.1423 -0.1011
18908W        W34377   3.960  10.818   5.615  0.0820  0.0135  0.2533
18909W        W34378   0.368   4.869  13.311 -0.2399 -0.0811  0.1279
18910W        W34379  14.819  11.144   1.703 -0.1496  0.1933  0.0235
18911W        W34380  14.437  10.143  13.514  0.0150  0.3399 -0.0536
18912W        W34381  17.762   6.506   3.752  0.3607 -0.4191 -0.1166
18913W        W34382   7.768  16.836   2.977  0.1003  0.2560  0.0996
18914W        W34383  12.977   1.536  11.910 -0.3094 -0.2395 -0.0646
18915W        W34384  15.204   6.092   0.958 -0.2010 -0.2784  0.0515
18916W        W34385  13.557  12.262  11.612  0.0561  0.0495  0.0714
18917W        W34386   5.794  10.175   1.354  0.4242  0.0253  0.2128
18918W        W34387  12.468   3.070   1.768 -0.1181 -0.2542 -0.2031
18919W        W34388  17.164   3.273  16.791  0.0188  0.0946 -0.0941
18920W        W34389  12.362   1.219   1.774 -0.0050 -0.0805 -0.1377
18921W        W34390   1.417   9.453  11.092 -0.0153  0.1907  0.0537
18922W        W34391   1.486   7.239   2.319 -0.0330  0.1699 -0.1650
18923W        W34392   2.323   1.484   4.859 -0.0744 -0.1153 -0.3785
18924W        W34393   5.206  15.256  13.120  0.1765 -0.1886 -0.0419
18925W        W34394   1.824  15.950   4.206  0.1188 -0.0681  0.3983
18926W        W34395   6.587  15.561  15.804 -0.0180  0.0685  0.1249
18927W        W34396  14.869   7.946  14.900  0.2365  0.0729 -0.0813
18928W        W34397  16.247   1.807  12.220 -0.1781 -0.1225  0.1625
18929W        W34398   4.334   0.040   1.017  0.1144  0.1642  0.1003
18930W        W34399   4.393   2.434   0.949  0.2497  0.1350  0.1202
18931W        W34400  16.751   5.341   2.663  0.0520 -0.0003  0.3133
18932W        W34401   0.025  12.958   1.292  0.0943  0.1069  0.5436
18933W        W34402  11.429   8.640  12.511 -0.1248 -0.0676 -0.0776
18934W        W34403  13.622  17.569   0.629  0.0508 -0.0981  0.0332
18935W        W34404   0.684  14.851  16.177 -0.0876  0.2719 -0.2454
18936W        W34405   7.560  12.940  13.296  0.3550  0.0664 -0.1940
18937W        W34406   3.181   4.780  12.937 -0.1748 -0.1350  0.2392
18938W        W34407  12.358  16.926  12.658  0.0570 -0.2210  0.2539
18939W        W34408   0.537  12.100   4.690 -0.0035  0.1203 -0.0773
18940W        W34409  11.100   0.868   0.783 -0.0046  0.3061  0.0536
18941W        W34410  14.266  16.095  13.655  0.0666 -0.0788 -0.1465
18942W        W34411   7.221   3.082  12.209 -0.1158 -0.0235  0.1356
18943W        W34412   0.141  16.281   3.538  0.1330  0.1709 -0.2919
18944W        W34413   0.721  10.695   5.189 -0.0994 -0.0319 -0.3434
18945W        W34414   9.909  13.646   2.006  0.1013  0.3000  0.1416
18946W        W34415  16.622  14.680  13.130 -0.0833 -0.2348 -0.0607
18947W        W34416  13.979   6.058   3.929 -0.4798  0.1653 -0.3288
18948W        W34417  10.182  15.654  15.026 -0.0656 -0.2662 -0.0521
18949W        W34418   4.218   6.351  12.999  0.0645 -0.4603 -0.2314
18950W        W34419   9.484   3.616  12.726 -0.0858 -0.0057 -0.0258
18951W        W34420  16.269  12.368  16.567 -0.0463  0.0181 -0.1233
18952W        W34421   9.831   0.459   0.944 -0.1178 -0.0431 -0.1490
18953W        W34422  17.756   0.982   0.590 -0.1178 -0.0008  0.2433
18954W        W34423  12.909  17.657  13.911 -0.0829  0.1346  0.1247
18955W        W34424   9.508  17.329   5.082 -0.1567  0.1055  0.0344
18956W        W34425   3.227  14.508  16.588  0.1742  0.0711  0.3346
18957W        W34426   5.106   7.773  15.090 -0.0221  0.3999  0.3802
18958W        W34427   2.927   6.392  14.849  0.1493  0.1296 -0.3758
18959W        W34428   2.800  11.062   3.637 -0.0519 -0.1030 -0.0453
18960W        W34429   6.928  15.599   4.185  0.0328 -0.1035  0.0326
18961W        W34430   8.702   1.635  15.973 -0.1367  0.0817 -0.1038
18962W        W34431   2.549  15.086  15.428  0.1747 -0.0486 -0.0197
18963W        W34432   3.480   6.753  16.134  0.2121  0.0602  0.1917
18964W        W34433   5.940   3.567  15.978 -0.2627  0.1227  0.1107
18965W        W34434  15.078   7.816   1.702 -0.0146  0.3364 -0.2557
18966W        W34435   3.835   1.523  15.749  0.0654 -0.5435 -0.0432
18967W        W34436   0.449   2.749  15.337  0.1500  0.1194  0.0307
18968W        W34437   0.677  11.609  14.335 -0.0151 -0.1192 -0.2291
18969W        W34438   8.976   5.173   5.269  0.2254 -0.1630 -0.0810
18970W        W34439   7.829  13.471   3.632 -0.0705 -0.2273  0.3368
18971W        W34440  16.036  13.982   3.122 -0.1154  0.1763  0.1175
18972W        W34441   6.766   1.903  12.345  0.4627  0.0664  0.1676
18973W        W34442  16.400   9.945   3.450  0.2070  0.0475  0.0929
18974W        W34443  12.652   5.058   4.516  0.1369  0.4419 -0.2512
18975W        W34444  17.332  12.108   1.420  0.1976  0.0039 -0.0920
18976W        W34445   8.316   2.264   0.513 -0.1356  0.1299  0.0588
18977W        W34446   9.065  15.289  12.656  0.0561 -0.2372 -0.0438
18978W        W34447  13.298   8.012  14.442 -0.2970  0.2255  0.0257
18979W        W34448  16.991   3.987   0.617  0.0419  0.0591 -0.0155
18980W        W34449   8.449   9.993  14.688  0.0907 -0.2454 -0.0383
18981W        W34450   4.217  15.439  11.651 -0.0614 -0.1972  0.1215
18982W        W34451   4.290   7.521  14.544  0.0363 -0.0637 -0.1977
18983W        W34452  17.353  11.548   3.551  0.0574  0.1402  0.1347
18984W        W34453  17.442  17.156  16.097 -0.1118 -0.0297 -0.0272
18985W        W34454   8.049   8.826  14.736 -0.0652 -0.2319  0.1880
18986W        W34455  17.348  10.214  15.884 -0.3074 -0.1227 -0.4423
18987W        W34456  11.941  13.832   3.303 -0.1490  0.2189 -0.0719
18988W        W34457  16.250   0.213  13.867  0.2135 -0.1899  0.0159
18989W        W34458   0.869   2.687  12.884 -0.0012 -0.2093  0.2048
18990W        W34459   0.731   1.866  14.372  0.2038 -0.1080 -0.0627
18991W        W34460   9.217  14.713   1.454 -0.0422 -0.0749 -0.2741
18992W        W34461   1.147   5.868   2.376  0.1075  0.0127  0.1394
18993W        W34462   2.500  12.449   0.591  0.2741 -0.0916 -0.0341
18994W        W34463   3.180   3.431  16.497  0.3108 -0.1193 -0.1730
18995W        W34464  15.764  16.880  12.564  0.2404 -0.0103 -0.3065
18996W        W34465   1.400   6.884   4.749  0.1392 -0.0743 -0.0217
18997W        W34466  16.379  16.207   2.569  0.3781  0.1779 -0.1835
18998W        W34467   3.421   5.010   0.834 -0.0733 -0.0759  0.1967
18999W        W34468   1.946   1.653  13.294  0.1287  0.0325  0.0631
19000W        W34469  12.533  17.704   1.262  0.0282 -0.0908 -0.1966
19001W        W34470   6.626  10.416   5.630  0.1778  0.0305 -0.1187
19002W        W34471   5.757  17.101   3.980  0.4586 -0.1200 -0.1004
19003W        W34472  11.484  13.730  13.791  0.1614  0.1033  0.1825
19004W        W34473   1.456  12.095  13.992  0.0359  0.0369  0.1741
19005W        W34474  14.966   3.451  15.463  0.2703  0.0283  0.0993
19006W        W34475   3.479  13.534  15.415 -0.1147  0.2675 -0.0041
19007W        W34476  11.679  16.682   2.691 -0.1562  0.1224  0.1365
19008W        W34477  10.556   2.403  12.051  0.0517 -0.3212 -0.2193
19009W        W34478   8.416   6.043   5.938  0.1459  0.1665  0.3239
19010W        W34479   6.475  15.346   1.055 -0.0897 -0.1250 -0.2449
19011W        W34480  12.602  14.938  15.071 -0.0881  0.1456 -0.0162
19012W        W34481  11.880  15.139   4.898  0.1394  0.0507 -0.0503
19013W        W34482  10.513   4.906  14.846  0.2869  0.0200  0.2247
19014W        W34483  15.567   0.661   0.965  0.2228  0.1497 -0.0689
19015W        W34484  16.567  17.667  11.230  0.1392  0.1979 -0.0685
19016W        W34485  10.239   1.225   4.610 -0.1445 -0.2962 -0.1013
19017W        W34486   4.929   3.800   0.284 -0.1058 -0.2861 -0.2421
19018W        W34487  17.548   2.111  11.908  0.3801  0.0360 -0.1919
19019W        W34488   2.773  16.994   0.822  0.0725 -0.0738  0.0936
19020W        W34489  12.052  15.114  16.258  0.2874  0.0286 -0.1681
19021W        W34490   2.469   5.997   2.606 -0.2008  0.2352  0.0493
19022W        W34491   3.916  15.798  14.575 -0.0574  0.2189  0.2758
19023W        W34492  11.834  13.511  15.818  0.0131 -0.2125 -0.2975
19024W        W34493  13.076  14.354  12.427  0.0215  0.1258 -0.2034
19025W        W34494   6.943   1.632   2.950  0.0610  0.2708  0.0090
19026W        W34495  13.048  16.668   3.642  0.2946 -0.1046 -0.1654
19027W        W34496   3.938  11.553  10.837 -0.0886  0.2384  0.0006
19028W        W34497  11.643   5.585  15.887  0.2696  0.4428  0.0940
19029W        W34498   4.417   1.138  12.418 -0.0624  0.0628 -0.1532
19030W        W34499   3.529  15.401   3.627  0.1649  0.0858 -0.1100
19031W        W34500  13.278   9.038   2.977 -0.0649 -0.3665  0.2341
19032W        W34501  13.257  13.953  13.211 -0.1221 -0.0629  0.2307
19033W        W34502   8.035  11.709   2.112  0.3036 -0.0377  0.0858
19034W        W34503  15.198  17.054  14.741 -0.0435  0.0771 -0.1237
19035W        W34504  13.120  15.254   2.321  0.0482  0.2676 -0.0896
19036W        W34505   7.867   2.209  12.359 -0.1086  0.0151  0.3917
19037W        W34506  13.991  16.960  15.794  0.0015  0.0025  0.0146
19038W        W34507   9.768  14.587  11.665  0.3337 -0.2027 -0.1385
19039W        W34508   0.138   8.050   2.834  0.1723 -0.2198  0.0151
19040W        W34509  10.337   7.048   5.905  0.0797  0.1303  0.2713
19041W        W34510   8.744   3.376   5.282 -0.0493 -0.2705  0.0965
19042W        W34511   5.992   9.660   3.274 -0.4041 -0.2157 -0.1550
19043W        W34512   6.056   7.295  11.871  0.0832 -0.2662 -0.1175
19044W        W34513  17.547  16.772  11.409  0.1291 -0.2012  0.0520
19045W        W34514  12.251  16.863   5.771 -0.0934  0.1934  0.0879
19046W        W34515  13.575   3.124   2.968  0.1708 -0.0209 -0.1347
19047W        W34516  16.522   6.221  14.399  0.0972 -0.2038  0.0848
19048W        W34517   0.642  17.625   4.580  0.0612  0.2913  0.3178
19049W        W34518  13.062   6.478   1.089  0.3805 -0.1752 -0.1055
19050W        W34519   6.758   9.471  11.469  0.0818 -0.1446 -0.2485
19051W        W34520   4.339   7.947  11.814  0.1838  0.2450 -0.0474
19052W        W34521  14.832   3.720   4.722 -0.1523 -0.1401  0.0192
19053W        W34522  14.145  13.767  16.587  0.1144 -0.0024 -0.4073
19054W        W34523   5.855   5.822  13.829 -0.0434  0.1288  0.0056
19055W        W34524  15.663  13.181  15.661 -0.0564  0.2382 -0.0759
19056W        W34525   1.792  17.621   3.852  0.0933  0.0426  0.0966
19057W        W34526  15.874  16.000   1.859 -0.0168  0.2352  0.1925
19058W        W34527   2.554  15.723   4.948 -0.0956  0.1750 -0.0565
19059W        W34528  10.164   2.710   2.520  0.0251 -0.2467 -0.0567
19060W        W34529   0.805   9.955  11.908  0.1206  0.0131  0.1522
19061W        W34530   0.192   9.221  13.651  0.4587 -0.1720  0.1042
19062W        W34531  13.240   7.420  15.913  0.2156 -0.1100 -0.1746
19063W        W34532   7.232  10.927  12.569 -0.2688  0.1234 -0.1119
19064W        W34533   8.839   5.160   1.442 -0.0039  0.0507 -0.3543
19065W        W34534  13.112  11.570  12.107 -0.1059 -0.0686 -0.2384
19066W        W34535  11.973   3.326   3.715 -0.0776 -0.1255  0.0718
19067W        W34536   0.202  12.006   3.431 -0.0310 -0.0646 -0.0115
19068W        W34537  12.749   0.492   5.741 -0.0862  0.1755 -0.1049
19069W        W34538  14.481   1.733   1.228  0.2979 -0.1286  0.0291
19070W        W34539   5.071   8.680   0.513  0.0807  0.0624 -0.1955
19071W        W34540   9.170   5.968  13.931  0.1940  0.0403  0.1511
19072W        W34541  14.287   8.390  15.204  0.1203 -0.0407 -0.1325
19073W        W34542   3.684  15.112   5.267 -0.2081 -0.0285 -0.0200
19074W        W34543  13.532   8.373   2.859  0.1014  0.0385 -0.2479
19075W        W34544  15.394   9.455  14.307  0.0587  0.2958  0.1798
19076W        W34545   1.528  13.357   4.727 -0.1338  0.1569 -0.0097
19077W        W34546  11.674  10.366   2.215  0.0815 -0.1788 -0.4235
19078W        W34547  10.819   2.578  13.901  0.0133 -0.3670  0.2593
19079W        W34548   7.939   4.141   5.647  0.1118  0.1748  0.1722
19080W        W34549  17.612  14.773  13.235 -0.0884  0.0381 -0.0437
19081W        W34550   7.303  13.251   3.346  0.2231 -0.1146 -0.1819
19082W        W34551  10.271   4.603   4.073  0.2299  0.1792  0.2565
19083W        W34552  11.896  17.380  14.120  0.0624  0.1906  0.2672
19084W        W34553  17.396  17.198   3.315 -0.0349  0.1794  0.5588
19085W        W34554   6.969   9.010  11.795  0.0229  0.0304  0.1949
19086W        W34555  13.203   5.245  12.226  0.0659  0.1374 -0.4946
19087W        W34556   1.238   3.268   5.503  0.1083  0.0875 -0.0224
19088W        W34557   1.439  12.323   0.714 -0.1328 -0.1285  0.1425
19089W        W34558   8.422   0.946  11.382  0.2032 -0.1276 -0.1318
19090W        W34559  17.284   9.335   0.008  0.1623  0.1218  0.1779
19091W        W34560   2.371   2.731   4.109 -0.1941 -0.2630 -0.1928
19092W        W34561  17.655   6.340  16.462 -0.2728 -0.2342  0.0724
19093W        W34562   2.374   1.553  16.020 -0.0686  0.3613  0.2163
19094W        W34563   8.310   7.347  15.448 -0.0693 -0.0726  0.0568
19095W        W34564  16.320   2.336  16.142  0.0337 -0.3321  0.1116
19096W        W34565   5.245  10.872   1.031  0.2093 -0.2273 -0.2173
19097W        W34566   5.993   3.932  14.922 -0.2491 -0.0819 -0.2420
19098W        W34567   7.448   9.585   2.859 -0.0104  0.1397  0.4648
19099W        W34568   4.065   4.037   5.230  0.0480  0.0599  0.2687
19100W        W34569   6.361   8.387   2.214  0.2017 -0.1212 -0.1063
19101W        W34570  12.179   8.926  16.822  0.0028 -0.0189 -0.1612
19102W        W34571   9.956   5.692  13.299  0.2184  0.2706  0.0822
19103W        W34572  11.047  15.533  14.707  0.2037 -0.2428  0.1763
19104W        W34573  11.264   8.197  16.116 -0.0272 -0.1962 -0.0649
19105W        W34574  16.559  10.653   0.076 -0.1752  0.2814 -0.1027
19106W        W34575   0.541   7.888  14.240 -0.0317  0.1923 -0.0419
19107W        W34576  15.393   5.193  15.091 -0.1300  0.3608 -0.1483
19108W        W34577   4.583   6.955   5.651 -0.3226  0.2587 -0.3369
19109W        W34578   6.542  17.634   4.827  0.0096 -0.0948  0.1315
19110W        W34579  17.508  15.027   0.314  0.1090 -0.2085 -0.0515
19111W        W34580   3.292  12.048   4.725  0.0576  0.3117 -0.0972
19112W        W34581   2.293  14.027  16.266  0.1543  0.1939  0.0565
19113W        W34582   9.325  11.207  12.598  0.1066 -0.1063 -0.1900
19114W        W34583   0.757  13.136  11.085 -0.1651 -0.0430 -0.0131
19115W        W34584   7.161   1.490  13.642  0.1605  0.0499  0.0310
19116W        W34585  15.806  13.157   1.612 -0.2259  0.1735 -0.0201
19117W        W34586   2.382   3.737   1.664 -0.4356 -0.0640  0.2100
19118W        W34587  10.019  13.740  12.403 -0.0663 -0.1051  0.0439
19119W        W34588   4.985  16.942  14.508  0.0895 -0.0664 -0.0927
19120W        W34589   2.456   6.340   2.180 -0.0628 -0.1750 -0.0825
19121W        W34590  14.271   4.646  14.901 -0.0109 -0.5370  0.1295
19122W        W34591   2.644  10.717   4.568 -0.1041 -0.1924 -0.1322
19123W        W34592  13.306   7.669   0.681 -0.1859  0.1062  0.5196
19124W        W34593   4.496  14.074   3.275  0.0523  0.2367  0.0992
19125W        W34594   7.512   1.739  12.903  0.0307 -0.0270  0.2729
19126W        W34595   3.144  16.120  14.510 -0.1992 -0.0413 -0.3292
19127W        W34596  14.477   4.150   4.790 -0.1459 -0.1371  0.1771
19128W        W34597  11.966  16.153   1.843  0.0765  0.0279  0.1270
19129W        W34598  12.959   7.265   5.588 -0.0489  0.1586  0.0400
19130W        W34599   0.370  15.909  14.664 -0.2153  0.0748  0.0760
19131W        W34600   7.601  17.589   0.230  0.0284 -0.1169 -0.2972
19132W        W34601   5.969  16.427   4.515  0.1203 -0.2480  0.3485
19133W        W34602   7.109   8.376  12.556 -0.0960 -0.2865  0.0271
19134W        W34603  17.325  13.487  12.007  0.3849 -0.1207 -0.0417
19135W        W34604   9.430   0.808  15.169 -0.1148  0.0452  0.0777
19136W        W34605   3.360  15.616   5.343 -0.2653  0.1011 -0.1510
19137W        W34606  15.294   9.485  15.466 -0.3581  0.2784 -0.2265
19138W        W34607  13.523   3.815  16.781 -0.1929  0.2199 -0.1835
19139W        W34608  15.323  16.892  10.234  0.1106  0.1559  0.1648
19140W        W34609  13.077   6.491   1.883  0.4319  0.1400 -0.3862
19141W        W34610  10.852   6.466   5.271  0.2201  0.1234 -0.0286
19142W        W34611  12.991  15.301  11.966  0.1277 -0.1434  0.1145
19143W        W34612  17.448   6.857   0.463  0.0289 -0.1598  0.2357
19144W        W34613  10.096  15.732   5.476 -0.0941  0.0001 -0.0231
19145W        W34614   1.760  16.007   3.253 -0.0660  0.3904 -0.0457
19146W        W34615   0.349  13.419  12.348 -0.1044  0.2967 -0.2746
19147W        W34616   6.611  11.947  14.790  0.0376 -0.0475  0.2077
19148W        W34617   4.067  10.630   1.756  0.1317  0.1946 -0.1750
19149W        W34618   7.337  17.531   1.819  0.0258  0.0875 -0.0757
19150W        W34619  15.751   2.922  13.364  0.1070  0.0849  0.2766
19151W        W34620  16.384   2.709   4.704  0.1531  0.1733 -0.3112
19152W        W34621  13.856  10.638   4.627  0.0857 -0.2317  0.1430
19153W        W34622   1.054   0.034   4.354 -0.0931  0.1796 -0.1206
19154W        W34623   4.207  14.024   2.768  0.0893  0.1939 -0.0862
19155W        W34624  13.278   0.873   2.912  0.2160  0.0608 -0.2438
19156W        W34625   2.366   2.092  11.342 -0.2132  0.0739  0.0527
19157W        W34626  10.677   2.643   3.844  0.2316  0.0002 -0.1267
19158W        W34627   6.904  10.917  14.661  0.2719  0.2494  0.2331
19159W        W34628  12.094   2.977  14.051  0.0627  0.2691 -0.1838
19160W        W34629   9.340   6.297  11.321 -0.0769  0.1754  0.1268
19161W        W34630   2.425   4.046  15.065 -0.4073  0.2838  0.1586
19162W        W34631   2.108   0.237  15.434 -0.0703  0.2287 -0.0317
19163W        W34632   1.758  10.904   9.938  0.1034 -0.0683 -0.1932
19164W        W34633  16.957   1.855  16.209 -0.3357 -0.1569  0.1322
19165W        W34634  13.140   5.570   1.206  0.2010 -0.0916 -0.1192
19166W        W34635   1.218  11.990  16.539  0.1527 -0.2693  0.1093
19167W        W34636  15.658  14.788   0.375  0.1860 -0.0212  0.2848
19168W        W34637   9.879   0.138  16.821 -0.1634 -0.0921  0.1145
19169W        W34638  16.917   5.793   2.831  0.1353 -0.2007 -0.1464
19170W        W34639   0.216  11.732   2.308 -0.0429 -0.0927  0.1185
19171W        W34640  10.389  16.790   2.304 -0.0052  0.1449 -0.2224
19172W        W34641   1.162   3.415   4.543  0.0699 -0.3919  0.1259
19173W        W34642   0.716  14.873  12.397  0.1287 -0.1269  0.2034
19174W        W34643  10.579   2.575   5.924  0.0250 -0.2821 -0.0314
19175W        W34644  15.691   0.936   1.624  0.0728  0.0274  0.1254
19176W        W34645  16.117  11.160  16.160 -0.0210  0.3245 -0.1143
19177W        W34646   1.236   5.875   4.384  0.0908 -0.1106  0.1505
19178W        W34647   9.807   3.996  12.484  0.0698  0.0815 -0.1441
19179W        W34648   1.106   4.671   3.787 -0.1357 -0.3673  0.2126
19180W        W34649   4.689   8.251  11.463  0.0895 -0.2364  0.0154
19181W        W34650   9.152  17.088   4.398  0.1044  0.0488 -0.0046
19182W        W34651  11.612   4.923  13.581 -0.2457  0.1100  0.0599
19183W        W34652   1.537   5.698  11.674 -0.0684  0.2478  0.0579
19184W        W34653  17.190  11.629   4.009 -0.3758 -0.1877 -0.2059
19185W        W34654  14.760  11.837  15.977 -0.1838 -0.1238 -0.1196
19186W        W34655   2.521  13.996   3.033  0.0840  0.1534 -0.0747
19187W        W34656  14.933  15.588   3.834 -0.0335 -0.0470 -0.0365
19188W        W34657   9.640   9.217   5.667 -0.2178  0.2961  0.3007
19189W        W34658  17.181   1.969  15.736 -0.1026 -0.2239  0.1019
19190W        W34659   4.125   0.779  16.163 -0.0296 -0.1083  0.0419
19191W        W34660  12.032   0.456  15.805  0.1421  0.0826  0.1021
19192W        W34661  17.031   9.068   3.447 -0.4052 -0.0572 -0.0330
19193W        W34662   8.272   9.486  11.877 -0.0059  0.0074 -0.2591
19194W        W34663  16.260  14.838  13.720 -0.1596  0.0149 -0.1104
19195W        W34664   5.401  16.545   4.961  0.1264  0.1307 -0.0220
19196W        W34665  12.983   2.115   2.026  0.1277 -0.4776  0.0733
19197W        W34666   4.683   5.912  16.819  0.2224 -0.1261 -0.0049
19198W        W34667   9.877   2.601   5.277  0.0072 -0.0384 -0.0565
19199W        W34668   4.091  10.502   4.231 -0.0620 -0.1087 -0.2288
19200W        W34669  10.866  11.434  16.362 -0.0442 -0.2091 -0.1229
19201W        W34670   1.972   8.673   1.218 -0.0190 -0.1209  0.0938
19202W        W34671  16.977  15.273   4.270 -0.3747  0.2166 -0.1218
19203W        W34672   1.162  12.642  15.513 -0.1094 -0.2379 -0.2347
19204W        W34673   0.064  16.617   1.042  0.1520  0.1521 -0.0255
19205W        W34674   6.900   7.373  13.757 -0.1145 -0.0493 -0.1343
19206W        W34675  14.073   4.906  13.970 -0.1803 -0.0321 -0.3029
19207W        W34676   5.514   4.597   1.561 -0.4480  0.3665  0.0510
19208W        W34677   1.669  16.481  15.183 -0.2515  0.0960  0.2611
19209W        W34678   3.387   5.386  15.965  0.2503 -0.0084 -0.1735
19210W        W34679   6.511  13.348  13.523  0.1855 -0.0030 -0.1209
19211W        W34680  13.427  13.313   3.508 -0.1391  0.4365 -0.0766
19212W        W34681  13.073   5.370  14.807  0.5328 -0.2319  0.1304
19213W        W34682  13.371  15.187  14.396 -0.2192 -0.1661 -0.1352
19214W        W34683   9.096   8.477  15.659  0.1470 -0.1022  0.3827
19215W        W34684   8.694  16.864   3.848 -0.0462  0.1541 -0.0211
19216W        W34685   8.776  10.510  16.685  0.0664 -0.2648  0.0548
19217W        W34686   1.457   4.938  11.911 -0.0152 -0.1325 -0.2201
19218W        W34687   4.048  10.461  13.769  0.2059 -0.0848  0.1232
19219W        W34688  17.561  11.204  16.752 -0.1850  0.0966 -0.3867
19220W        W34689   5.187  17.545   3.395  0.1194 -0.0955 -0.2607
19221W        W34690   2.593  11.232  15.442 -0.0204 -0.0038  0.2600
19222W        W34691   1.484  11.499  10.414  0.1764 -0.3061 -0.3745
19223W        W34692   8.535  14.476  16.713 -0.0461 -0.1343 -0.0446
19224W        W34693   2.551  12.020   3.035  0.4156 -0.0808 -0.2813
19225W        W34694  10.076   1.724  13.191 -0.0298  0.0582 -0.0849
19226W        W34695   2.957   3.876  10.455  0.0097  0.0493 -0.0569
19227W        W34696  15.370   8.006  16.451 -0.1242  0.0309  0.3101
19228W        W34697   2.989  17.747   3.256  0.1047 -0.2592  0.0405
19229W        W34698   4.400   0.888   0.957  0.1775  0.1532 -0.1691
19230W        W34699  11.176  10.609  13.723  0.2116  0.0104 -0.2181
19231W        W34700   0.786   2.318  13.214 -0.3059  0.2488  0.1861
19232W        W34701   2.990  17.067  13.701 -0.0614 -0.1858 -0.3176
19233W        W34702   2.796  14.150  14.367  0.1256 -0.0698  0.0197
19234W        W34703   2.872  10.303   2.912 -0.2236  0.1221 -0.2078
19235W        W34704   8.023  11.736  14.963 -0.0743  0.1601 -0.3343
19236W        W34705   6.624  17.067   4.509 -0.4306 -0.2342 -0.0448
19237W        W34706   0.245  11.607   0.286 -0.1035  0.4446 -0.1238
19238W        W34707   1.926  13.265  11.510 -0.0092 -0.1497  0.2692
19239W        W34708   6.672  14.877   5.747 -0.0646  0.3552 -0.0395
19240W        W34709  13.496   1.191   4.748  0.0035 -0.0956  0.1128
19241W        W34710   8.626  16.287  16.506 -0.0389  0.1420 -0.0877
19242W        W34711   0.572   2.336   1.864 -0.1607  0.2628  0.2005
19243W        W34712  13.376   8.422   1.376  0.0631 -0.4160 -0.0602
19244W        W34713  10.064   0.610   0.065 -0.2307 -0.1636  0.2202
19245W        W34714   4.419  13.974   4.238  0.0176 -0.0214 -0.0202
19246W        W34715   7.800  17.539  15.322  0.1744 -0.2114 -0.1699
19247W        W34716   7.850  14.213  12.721 -0.0358 -0.2520 -0.0435
19248W        W34717  12.932   3.598   3.940  0.1612 -0.0441 -0.1348
19249W        W34718   0.183  12.592  15.454 -0.4305 -0.3150 -0.0959
19250W        W34719  16.576  13.771  16.722  0.0815  0.1745  0.1959
19251W        W34720  16.123   1.048  14.254 -0.1462  0.3010 -0.2266
19252W        W34721  11.490   1.505  14.340 -0.0058  0.3443 -0.2806
19253W        W34722   0.646   5.739  16.469  0.2795 -0.2664 -0.1081
19254W        W34723  12.540   2.124   6.384  0.4146 -0.0236  0.0631
19255W        W34724  12.979   2.809   5.952 -0.0648  0.0572  0.0790
19256W        W34725  13.268   4.470   4.001 -0.1349 -0.0855  0.1650
19257W        W34726   6.816  14.647  15.510  0.0666 -0.0723  0.1183
19258W        W34727  14.396   7.825   5.234  0.2409  0.2257 -0.0054
19259W        W34728   2.475  14.843   0.553 -0.0579 -0.3391 -0.4142
19260W        W34729   5.390  13.372   0.416 -0.1746 -0.0738 -0.2046
19261W        W34730   0.476   6.671  12.360 -0.2582 -0.1225  0.1442
19262W        W34731   6.432  17.480  15.340 -0.0236 -0.0951 -0.0387
19263W        W34732   7.824   3.785  14.790  0.0500  0.1494 -0.1021
19264W        W34733   5.567  13.976  15.329 -0.1313  0.0244  0.1548
19265W        W34734   3.363   7.532  16.693  0.1401 -0.0082 -0.1524
19266W        W34735  10.187   8.831   0.600 -0.2672 -0.0487  0.2717
19267W        W34736   8.901  13.486   4.408 -0.0720 -0.0316 -0.1175
19268W        W34737  11.972   3.643  12.775 -0.0483  0.1571  0.0385
19269W        W34738   9.280   6.834  16.095  0.2923 -0.0774  0.1308
19270W        W34739   7.318  15.758   4.642 -0.0345 -0.3134 -0.3927
19271W        W34740   8.628   2.942   5.571 -0.2083 -0.1179 -0.2688
19272W        W34741  15.693   7.365  10.999  0.0757 -0.1447  0.2043
19273W        W34742   8.205   9.704   4.481 -0.0129 -0.1210 -0.0958
19274W        W34743   5.789   3.907  11.984  0.0163 -0.1094 -0.0906
19275W        W34744   1.614  13.650  13.324  0.0041  0.1238  0.0134
19276W        W34745   4.629   4.827  13.257 -0.5064  0.2086 -0.1190
19277W        W34746   1.907  16.970  14.787  0.2370 -0.2131  0.0050
19278W        W34747  16.935  17.570  16.416 -0.0386  0.2428 -0.0770
19279W        W34748   2.050   7.283   2.435  0.0828 -0.1642 -0.0878
19280W        W34749   3.647   9.237  13.984  0.2916 -0.1956  0.1208
19281W        W34750   1.203   8.527  15.906  0.3159  0.2583 -0.0374
19282W        W34751  10.855  10.128  12.954  0.0707  0.1099  0.0496
19283W        W34752  16.000   7.366   0.447  0.0721  0.0931  0.2433
19284W        W34753   7.371   9.784  14.706 -0.0001 -0.3764  0.1356
19285W        W34754  15.296  14.706   5.611 -0.2298 -0.0854  0.1283
19286W        W34755  16.791  15.321   3.802 -0.1684  0.0967  0.1571
19287W        W34756   9.225   3.175  11.811 -0.0200  0.1012 -0.2387
19288W        W34757  16.380   6.176  11.974  0.1642  0.0909 -0.0312
19289W        W34758  13.102  12.233  15.292  0.0610  0.2103  0.2195
19290W        W34759  10.752  12.774   2.254 -0.4603 -0.2096 -0.3588
19291W        W34760   8.094  15.767  13.556 -0.1874 -0.0430  0.1632
19292W        W34761   8.076  10.054  15.057 -0.1631  0.0182 -0.0653
19293W        W34762   2.964  12.982  13.322  0.1872 -0.1453 -0.1885
19294W        W34763  15.446   9.315   4.421 -0.2439  0.1315  0.2878
19295W        W34764  12.682  12.470   1.877  0.1987  0.4043  0.1119
19296W        W34765  14.764   2.809   3.280 -0.2705  0.1158 -0.0660
19297W        W34766   2.305  16.090  16.716 -0.1173 -0.0267  0.1466
19298W        W34767   8.447   3.783  12.184  0.2003  0.0876  0.2836
19299W        W34768  15.696  12.168  11.099  0.0180  0.0336  0.2826
19300W        W34769   7.524   4.485  14.266 -0.0070 -0.1336  0.2302
19301W        W34770  16.276   1.168  15.280 -0.1954 -0.0584 -0.1615
19302W        W34771   5.313   6.033  12.086  0.0557 -0.1248  0.0994
19303W        W34772  14.380  17.265   3.734  0.3537  0.0378 -0.0079
19304W        W34773   4.120  14.052  15.570  0.1256 -0.0974  0.0543
19305W        W34774  16.471   6.572   4.691  0.3061 -0.1138 -0.0436
19306W        W34775  17.661  11.949  16.303  0.0154  0.0302  0.2778
19307W        W34776   6.752   6.706   1.802 -0.2191 -0.0238 -0.2451
19308W        W34777  16.047   9.566   3.438 -0.3555 -0.3814 -0.2017
19309W        W34778   3.847  16.795  15.389  0.3373 -0.0378 -0.0125
19310W        W34779  15.349   9.011  14.125 -0.0847  0.2006 -0.3291
19311W        W34780   9.175  16.845  14.261 -0.0889  0.1424 -0.0980
19312W        W34781  17.527   8.791  12.173  0.1900  0.1244 -0.1565
19313W        W34782  15.965   9.580  15.551 -0.1545 -0.2338  0.0862
19314W        W34783   4.237  11.952   1.555  0.1127 -0.2649 -0.0416
19315W        W34784  12.823   3.920  16.344  0.0471  0.1238 -0.0695
19316W        W34785   0.812   0.569   2.145 -0.0592  0.0642 -0.0762
19317W        W34786   5.262  17.351  14.531 -0.0424 -0.1484  0.2257
19318W        W34787  14.392  16.984  15.469  0.1940  0.3880 -0.0086
19319W        W34788  10.419   7.115   0.355 -0.3649  0.1002 -0.1794
19320W        W34789   0.346   9.771  12.872  0.1801 -0.1421 -0.3805
19321W        W34790   0.294  11.562   2.794 -0.2987  0.1976 -0.1525
19322W        W34791  10.633  12.285  13.916 -0.0113 -0.2134  0.1516
19323W        W34792   4.293   7.942   3.415 -0.1038 -0.0759  0.2996
19324W        W34793   5.619  14.826   5.640  0.0799 -0.1474  0.2949
19325W        W34794  16.495   1.642   1.583 -0.0030  0.1947 -0.1393
19326W        W34795  13.265   7.831   4.059  0.1423  0.4622  0.0247
19327W        W34796  12.255   2.836   3.518 -0.1297  0.0130  0.1042
19328W        W34797   2.919   0.754   4.155 -0.3834  0.2108 -0.1689
19329W        W34798   4.909  11.301  14.796  0.0117  0.1150  0.0141
19330W        W34799   6.980  13.689   2.235  0.1221  0.1180  0.2747
19331W        W34800   4.547   9.581   0.751  0.3240  0.7317  0.1791
19332W        W34801  11.909  15.179  16.805  0.0424 -0.0413 -0.1219
19333W        W34802  14.334  14.208   2.745 -0.0303  0.0015  0.0092
19334W        W34803  12.636  11.434   2.009  0.1478 -0.0936 -0.0528
19335W        W34804   3.232   6.321   5.140  0.2835  0.1695  0.0426
19336W        W34805  15.087  16.413  16.611 -0.0586 -0.3043  0.2206
19337W        W34806   9.473  15.267  16.523  0.3055 -0.2223  0.0482
19338W        W34807  15.774  12.179   4.500  0.1158  0.5404 -0.3893
19339W        W34808  15.636   5.733  16.015  0.0588 -0.3216 -0.1142
19340W        W34809   4.911   7.556  13.966 -0.1083  0.2092 -0.1984
19341W        W34810   5.455   7.182   0.314  0.2200 -0.1246  0.0449
19342W        W34811   0.967  15.922   2.057  0.2320 -0.0163  0.2102
19343W        W34812  15.943  16.127   3.316 -0.1371  0.1635 -0.2894
19344W        W34813   1.268  11.000  11.943  0.0016 -0.3441  0.0744
19345W        W34814   5.445   1.414  14.028  0.2216  0.0797 -0.1640
19346W        W34815  14.931  15.335   2.855  0.2312 -0.1431  0.0661
19347W        W34816  10.695  12.449  16.655 -0.2180  0.1903 -0.1085
19348W        W34817  13.038   5.504   3.982  0.0273  0.3351  0.1587
19349W        W34818   3.775  16.297   4.765 -0.0865 -0.0151 -0.1949
19350W        W34819   3.548   9.848   2.679 -0.0423  0.0135  0.0594
19351W        W34820   1.183   4.969   3.195 -0.2664  0.0328  0.1065
19352W        W34821   3.172  15.119   5.453 -0.1379  0.1015  0.3872
19353W        W34822   5.358   3.873   1.564  0.0237 -0.1058  0.1135
19354W        W34823   8.761   6.425  12.564  0.0133 -0.0924  0.0269
19355W        W34824   8.013   6.214   2.398  0.0538  0.1212 -0.0491
19356W        W34825  16.320  10.022  11.167 -0.0376 -0.0348 -0.2533
19357W        W34826  13.986  12.454   1.445  0.1724  0.1593  0.0230
19358W        W34827  15.675   0.342  16.499  0.2245 -0.0928 -0.1074
19359W        W34828   3.337  10.747  15.748 -0.0356  0.1318 -0.1623
19360W        W34829  12.438  14.633  13.460  0.1311 -0.4092  0.1210
19361W        W34830   8.974   9.746  12.382 -0.2305  0.1143 -0.0700
19362W        W34831  11.018  11.155   0.019  0.1617  0.1970 -0.2077
19363W        W34832  17.508   5.999  16.777  0.2678 -0.1568 -0.4508
19364W        W34833   4.514   4.201   4.932  0.0083  0.3622  0.0054
19365W        W34834   2.349   2.131  16.675  0.1631 -0.0539 -0.1039
19366W        W34835   2.167   3.676  12.579 -0.0538  0.2468  0.0611
19367W        W34836   9.183   9.158  13.118  0.0838  0.1072  0.0537
19368W        W34837   6.590   1.467   5.604  0.0221  0.0833  0.1615
19369W        W34838  17.384   6.189   0.453  0.0287 -0.0928  0.1808
19370W        W34839   8.060   0.624  13.290 -0.1101  0.2189 -0.3087
19371W        W34840   1.631   7.365   9.976  0.2579 -0.0962 -0.2498
19372W        W34841  17.041   0.299  16.513 -0.1351 -0.2848  0.0325
19373W        W34842   5.366   1.142   5.319 -0.0559  0.0275  0.2533
19374W        W34843  17.110   3.740  15.921 -0.1677  0.1057 -0.2052
19375W        W34844   1.791   6.712   3.088 -0.0223  0.0188  0.0120
19376W        W34845  13.901   0.706  15.756  0.0192  0.0424  0.1591
19377W        W34846  14.958   2.978   1.808 -0.1137  0.1312  0.0139
19378W        W34847   4.896  15.332  12.017 -0.2144  0.0829 -0.0744
19379W        W34848  13.611  14.127   2.801 -0.1691 -0.3112 -0.1329
19380W        W34849  14.049  11.649  12.515 -0.3558 -0.1587 -0.0623
19381W        W34850   5.459   5.320   0.160 -0.2592  0.2236 -0.1505
19382W        W34851  13.211   5.730   0.710  0.2105  0.1208 -0.0767
19383W        W34852  14.082   3.589  15.448 -0.3521  0.0446 -0.0866
19384W        W34853  14.225  10.332  11.780  0.0439  0.2159 -0.0999
19385W        W34854  14.973   9.960  13.461 -0.0948 -0.0946 -0.0589
19386W        W34855  15.810  13.310  12.175 -0.1649 -0.0300  0.1751
19387W        W34856  15.575   5.075  15.527 -0.2732  0.1888  0.0831
19388W        W34857   9.373   8.138  14.730 -0.0044  0.2173  0.1363
19389W        W34858  17.469   3.644   1.371  0.0500 -0.1883  0.1019
19390W        W34859   9.386   0.901   4.901 -0.3081 -0.0717  0.2482
19391W        W34860  17.021   3.991   0.095  0.2599 -0.1179 -0.1410
19392W        W34861  12.326   9.748   4.115 -0.0364  0.0187 -0.3742
19393W        W34862  12.281   3.566   5.260  0.1398 -0.1117 -0.3375
19394W        W34863   7.658   3.811  16.657 -0.0630 -0.0642 -0.0999
19395W        W34864  16.991  11.621  14.834 -0.2967  0.4888 -0.0636
19396W        W34865  14.164   1.780  14.583 -0.0993  0.0075 -0.1431
19397W        W34866  12.308   7.631  13.361 -0.0684 -0.1110 -0.2170
19398W        W34867   6.740  11.785  12.502 -0.0418  0.1847 -0.1585
19399W        W34868  11.824   4.512  16.384 -0.1676 -0.2196 -0.2807
19400W        W34869  11.691   0.430   1.531  0.4465  0.0030  0.1795
19401W        W34870   4.802  10.921   3.873 -0.0068  0.1068 -0.2897
19402W        W34871  16.744   1.836  12.135 -0.2247 -0.0665  0.0450
19403W        W34872  13.961  15.936   3.557 -0.0309 -0.1118 -0.1289
19404W        W34873   9.854   5.663   5.484 -0.1533  0.1941 -0.2561
19405W        W34874   3.862  17.271   5.112  0.0321 -0.2572  0.1765
19406W        W34875  10.322   6.708   1.993 -0.0277 -0.0304  0.0239
19407W        W34876  14.182   2.908  14.703 -0.0772  0.1991  0.0377
19408W        W34877   5.157   2.674  16.583  0.1755  0.0764  0.0287
19409W        W34878  14.268   1.661  15.822  0.0594 -0.2802 -0.1711
19410W        W34879  14.698   3.028  14.675  0.1672  0.0654 -0.0397
19411W        W34880   9.418   8.106  12.699 -0.2625 -0.1244 -0.1687
19412W        W34881  15.066   3.830  15.112 -0.1204 -0.3242  0.1517
19413W        W34882  13.757  10.726  15.691 -0.0218  0.3230 -0.1980
19414W        W34883  12.514   2.676  13.847 -0.1023 -0.0551  0.0445
19415W        W34884  15.386  17.603  16.661  0.2111 -0.2653 -0.0631
19416W        W34885   8.821  13.786   3.409  0.0403  0.1366  0.1708
19417W        W34886  16.133   4.754  16.622  0.0373 -0.1361  0.2087
19418W        W34887   6.464  11.820   0.377  0.0245  0.1506  0.0857
19419W        W34888  10.188   1.594   2.186 -0.1829  0.0094 -0.1565
19420W        W34889  15.164   1.000  14.436 -0.3960 -0.2960  0.1528
19421W        W34890  16.243   9.753   2.990  0.0807  0.2140  0.0445
19422W        W34891  16.136   8.668   1.195 -0.0620 -0.1983 -0.0382
19423W        W34892   8.815   6.955   0.214  0.0809  0.0067  0.0028
19424W        W34893   8.814   3.358   2.576 -0.2945  0.2736 -0.2540
19425W        W34894  11.439  16.140   5.281  0.0368  0.1355  0.0924
19426W        W34895   6.768   5.803  15.880  0.1511 -0.0334  0.0125
19427W        W34896  13.212   9.211  15.552  0.2999 -0.2217  0.0116
19428W        W34897   6.415   2.494  11.509 -0.2545 -0.2243 -0.3045
19429W        W34898   5.834   2.356   1.168 -0.1229 -0.0745 -0.1517
19430W        W34899   8.776  10.333   2.741 -0.0643  0.1768  0.4096
19431W        W34900  15.195   2.738  12.602  0.2585 -0.2176 -0.1318
19432W        W34901  16.690  11.116   0.176  0.0976 -0.2799  0.1720
19433W        W34902   5.757  10.034   3.586  0.2147  0.3051 -0.4058
19434W        W34903   8.859   2.287   2.405  0.2245  0.1059 -0.0511
19435W        W34904  12.699  14.600  12.232  0.4434  0.0481  0.2677
19436W        W34905  15.881   4.317   4.598 -0.2065 -0.2042 -0.2522
19437W        W34906  11.756   5.733  14.217  0.1362 -0.0820  0.0187
19438W        W34907   8.383  17.188   0.686 -0.3855  0.2362 -0.1145
19439W        W34908   6.968   3.797   1.700 -0.0093 -0.0436  0.2474
19440W        W34909   6.026   2.828   0.858  0.0476 -0.0544  0.2390
19441W        W34910   0.067  14.848   2.101 -0.2173 -0.0382  0.1115
19442W        W34911   8.898  17.464   4.545  0.0225 -0.3113  0.0782
19443W        W34912   0.739  17.586   3.978 -0.1452  0.0178  0.0619
19444W        W34913  10.061  15.862  15.478 -0.3000  0.2097 -0.3181
19445W        W34914   1.480   8.104  14.687 -0.1182 -0.2629 -0.3529
19446W        W34915   7.504   1.731   3.968  0.0250  0.2719 -0.1074
19447W        W34916  11.893   4.063  16.654 -0.0300  0.0312  0.2655
19448W        W34917   4.797  12.593   5.427  0.2578  0.2225  0.0732
19449W        W34918   7.912  11.283  14.761 -0.0364 -0.2389 -0.1237
19450W        W34919  14.340  10.881  15.085 -0.3529  0.0849  0.0896
19451W        W34920   9.800  12.023  14.320 -0.0751 -0.1738 -0.2719
19452W        W34921   7.820   9.074   0.111  0.0768  0.1037  0.0071
19453W        W34922  14.702   0.289   3.807  0.2748  0.1042  0.0069
19454W        W34923   6.116  17.158   4.694  0.2703 -0.1922 -0.0056
19455W        W34924  15.072  16.065   3.356 -0.2493  0.1893  0.1263
19456W        W34925   1.294  16.905   4.814  0.0101  0.2008 -0.1969
19457W        W34926  13.475  13.314  13.047 -0.1609 -0.0330  0.0275
19458W        W34927   6.039   4.464   6.102  0.3962  0.1528 -0.4360
19459W        W34928   0.635  11.870   4.155  0.1123  0.0105  0.1284
19460W        W34929  11.940   6.702   2.716 -0.0349 -0.0959 -0.1467
19461W        W34930  17.383  10.538  12.353 -0.0160 -0.1638 -0.0458
19462W        W34931   7.481  15.275   4.611  0.1228 -0.0757 -0.0978
19463W        W34932   5.113   8.723  16.028 -0.0107  0.1611  0.0432
19464W        W34933   3.603  14.579  12.992  0.1555 -0.2000  0.1045
19465W        W34934   8.029  17.532  11.179  0.0226 -0.1786 -0.2133
19466W        W34935  13.452   8.358   3.882 -0.0509  0.1242 -0.1704
19467W        W34936   5.056  16.186  15.160  0.1644  0.1298  0.2214
19468W        W34937   3.363   5.745  12.059 -0.1845 -0.1264  0.4684
19469W        W34938   6.711  10.926   5.837 -0.0051 -0.0473 -0.0181
19470W        W34939   1.926   3.558  12.089 -0.1218  0.1632  0.0108
19471W        W34940   7.110   5.129  14.779  0.0607  0.1202 -0.1203
19472W        W34941  15.248  11.966   5.457  0.0758 -0.2432  0.0961
19473W        W34942   2.240  15.770  12.052  0.0818  0.0924 -0.2710
19474W        W34943  16.788  10.771   1.594 -0.0828 -0.1719 -0.1026
19475W        W34944   4.382   6.675   2.329 -0.0589  0.0920  0.0111
19476W        W34945  12.628   6.943   0.083 -0.2261 -0.2513 -0.2116
19477W        W34946  16.383   8.145  13.602  0.0707  0.1307 -0.1363
19478W        W34947   4.405  12.072  14.504 -0.0562  0.1127  0.0268
19479W        W34948   9.898  16.720   3.340  0.2777 -0.1038  0.0781
19480W        W34949   1.808   9.580  12.944  0.0143 -0.0807  0.0145
19481W        W34950   7.623   1.740  12.413 -0.2806  0.1258  0.0014
19482W        W34951  15.241  13.774   3.618  0.0306  0.0532 -0.1265
19483W        W34952   7.846  13.901   2.735  0.0887 -0.2214  0.2577
19484W        W34953  15.489   9.345   2.594 -0.2117  0.0698  0.1052
19485W        W34954  13.794   0.405   4.920 -0.0452 -0.2258 -0.0133
19486W        W34955   6.952   1.628   4.231 -0.2723  0.4083  0.1607
19487W        W34956   2.095  11.572   0.665 -0.1405 -0.1520 -0.1739
19488W        W34957   9.298   5.829  15.295 -0.3689 -0.2721 -0.2828
19489W        W34958   8.711   6.707  14.868 -0.1066  0.0968 -0.2156
19490W        W34959  15.391  13.159  15.070  0.1142  0.2609  0.2043
19491W        W34960   3.690  13.968  14.557  0.2098  0.0449  0.0175
19492W        W34961   8.884   1.196   4.911  0.2899 -0.0060  0.1238
19493W        W34962   8.089   2.905  15.120 -0.0378 -0.4099 -0.1921
19494W        W34963   0.093   1.462  15.748  0.1362 -0.2437 -0.0705
19495W        W34964  11.420   4.085   6.053  0.0327  0.0844 -0.0725
19496W        W34965  16.209  12.724   3.299 -0.0969 -0.3094 -0.1090
19497W        W34966   6.422   8.240  15.104 -0.2161  0.1257  0.1566
19498W        W34967   9.232   9.142   3.548  0.0819 -0.3294 -0.0422
19499W        W34968  12.815  13.402  16.289  0.0841 -0.0090  0.0774
19500W        W34969   6.685  13.731   4.564 -0.1199 -0.0732  0.0953
19501W        W34970   7.006  16.310   5.437 -0.1408  0.0299  0.0629
19502W        W34971   9.071   2.330   2.860  0.1243 -0.0641 -0.0970
19503W        W34972   8.183   2.964  10.739 -0.3017 -0.3934  0.0303
19504W        W34973   7.383  17.295  16.231 -0.0864  0.1074  0.0712
19505W        W34974  10.026  15.496  12.566 -0.2077  0.1918 -0.1314
19506W        W34975  16.132  12.208   3.398 -0.2691  0.0406  0.3462
19507W        W34976   3.771   3.259  15.271 -0.2746 -0.2098  0.0232
19508W        W34977   8.733   5.606   5.026  0.4152  0.2393 -0.1681
19509W        W34978  14.148  12.111   0.054 -0.1699 -0.0156  0.1071
19510W        W34979   8.191  14.979  13.435  0.2295 -0.2051 -0.1278
19511W        W34980  16.527   2.538   3.294 -0.0342 -0.0032 -0.2707
19512W        W34981   7.590  10.320  11.875  0.0290 -0.0853 -0.1212
19513W        W34982  16.153   5.049   2.723  0.1986 -0.0969  0.0692
19514W        W34983   8.321   3.775  12.711 -0.0422 -0.1194  0.0053
19515W        W34984   4.665   9.048   0.926  0.0416  0.0298 -0.2132
19516W        W34985   8.534  11.534  11.808 -0.0768  0.1373 -0.0861
19517W        W34986   7.717   4.583   3.961  0.1906  0.1834  0.0774
19518W        W34987  17.105   2.194   2.457  0.0255  0.2523  0.1580
19519W        W34988   4.234   1.256   2.280  0.1455 -0.1176 -0.0356
19520W        W34989  15.511   8.306  14.677  0.0457  0.3039 -0.0304
19521W        W34990  16.966   4.525   5.210  0.1379 -0.1481  0.1353
19522W        W34991  12.118   2.168   2.338 -0.0409 -0.1943 -0.1800
19523W        W34992   8.370   9.228   5.193  0.1396 -0.0218  0.1738
19524W        W34993   7.219  15.050  15.544 -0.0477  0.0225 -0.4607
19525W        W34994   0.925  15.430   2.137 -0.0680  0.0810  0.0284
19526W        W34995   5.874   0.667   6.542  0.2629  0.1586 -0.0952
19527W        W34996   5.764   9.829   0.261  0.2555  0.0734  0.0653
19528W        W34997  15.227   7.624  13.340 -0.3656 -0.1145 -0.3385
19529W        W34998  17.402   3.983   2.629 -0.0613 -0.2942 -0.2035
19530W        W34999  12.526  13.211  13.794  0.2457 -0.0456 -0.1232
19531W        W35000  11.943  14.040   3.789 -0.1345  0.2080  0.1019
19532W        W35001   1.018  12.337  13.839 -0.3322 -0.0708 -0.1483
19533W        W35002   5.638  14.833   0.937 -0.2286  0.1698  0.1695
19534W        W35003  12.732   6.962   6.099  0.1474 -0.2977  0.1126
19535W        W35004   7.139   8.845  14.992 -0.1323  0.2874 -0.0893
19536W        W35005   4.374   4.380   4.477 -0.2154 -0.0522 -0.2316
19537W        W35006   1.195  12.522  11.862 -0.3731 -0.0511  0.0159
19538W        W35007  10.595  13.940   1.879  0.2526 -0.0274 -0.1580
19539W        W35008   4.457   7.862   4.043  0.0198 -0.3339 -0.1185
19540W        W35009  12.582  10.037   3.818  0.1766  0.1540  0.3262
19541W        W35010   0.445   3.573   0.715  0.2937  0.2447  0.1998
19542W        W35011  12.105  16.734  13.932 -0.1864 -0.0916  0.3831
19543W        W35012  15.220   1.613  16.777  0.2349  0.0656 -0.2334
19544W        W35013  15.457   5.457  16.768 -0.2341  0.1052  0.0600
19545W        W35014  14.365   1.806   0.336 -0.0419  0.1228  0.1256
19546W        W35015  14.055   6.349  14.223  0.1541 -0.2150  0.1067
19547W        W35016  17.281   0.341   1.149  0.0404  0.0199 -0.0424
19548W        W35017   4.698   8.700  11.668  0.2308 -0.3437 -0.2103
19549W        W35018   5.404   0.814   2.640 -0.0324  0.0538 -0.0076
19550W        W35019  15.722   6.046  13.256 -0.1502 -0.0362  0.0621
19551W        W35020  12.134  13.163  13.458  0.2369 -0.1513  0.0422
19552W        W35021   2.299   7.152   4.351 -0.0997  0.2155 -0.2382
19553W        W35022   8.692   8.085   1.675  0.1472 -0.0415  0.0040
19554W        W35023  16.846  14.567  12.338 -0.0387  0.0177  0.0214
19555W        W35024   3.917  15.051  12.299  0.0085 -0.0430 -0.0564
19556W        W35025   4.431   4.479   0.886  0.0345  0.0918 -0.0972
19557W        W35026   0.232  12.093   2.943  0.0065 -0.0965 -0.0039
19558W        W35027  10.453  11.655  11.265  0.2133  0.1924  0.0440
19559W        W35028  16.098  11.076   5.246 -0.2435 -0.1073 -0.0391
19560W        W35029  15.470   1.831   2.541 -0.2211  0.3761  0.0093
19561W        W35030   1.031   1.638  11.488  0.1254 -0.2739 -0.2329
19562W        W35031   4.056  16.859  13.020  0.4201 -0.3557  0.1104
19563W        W35032  15.532   0.336  13.384  0.0571 -0.0644  0.3893
19564W        W35033  14.590   1.416  14.872  0.0825  0.1050  0.1328
19565W        W35034   6.281  17.723  12.347  0.1188 -0.1254 -0.0194
19566W        W35035   8.087   0.722   0.599  0.0908 -0.0345  0.1292
19567W        W35036  10.636   7.919   4.772 -0.1538  0.2249  0.1626
19568W        W35037  17.250  17.349   2.567 -0.3634 -0.0390 -0.2426
19569W        W35038   3.860  16.356   0.803  0.0159  0.3290  0.3020
19570W        W35039   2.686   0.863   3.181 -0.1009 -0.1437 -0.3818
19571W        W35040   2.808  17.702   1.393 -0.0681  0.0319 -0.0169
19572W        W35041  14.158  13.290  16.319 -0.0626  0.0216 -0.2375
19573W        W35042   1.934   4.207   1.767  0.1348 -0.0291  0.0655
19574W        W35043  10.633   1.527  13.225 -0.0842  0.0202  0.0650
19575W        W35044  13.277   4.074   1.613  0.0628 -0.1401  0.0449
19576W        W35045   9.211  15.125   1.966  0.0297 -0.1578 -0.0952
19577W        W35046   2.842   8.420  11.189 -0.1688 -0.0280  0.3099
19578W        W35047  12.592  16.466  16.624 -0.0055  0.0531  0.2063
19579W        W35048   4.485   0.442   4.352 -0.1541 -0.1461 -0.1134
19580W        W35049  13.169  10.029   0.563 -0.2397  0.1469 -0.1351
19581W        W35050  16.103  15.721  10.531 -0.1466  0.1189  0.3976
19582W        W35051   8.393   2.057  15.720 -0.0781 -0.1729 -0.0160
19583W        W35052  17.684  14.250  15.168  0.1405  0.0759  0.2227
19584W        W35053  16.847  12.176  13.466 -0.0188 -0.1255  0.1597
19585W        W35054  12.546  13.613   3.907 -0.3168 -0.1874  0.0760
19586W        W35055   8.058  14.711   2.464  0.0264 -0.0310  0.3329
19587W        W35056  17.525  15.408  16.811 -0.1702 -0.0488  0.0127
19588W        W35057  17.347  15.647   1.869 -0.0520 -0.0440  0.1342
19589W        W35058   1.671   7.982  10.658  0.0407  0.0525 -0.3266
19590W        W35059   9.309  14.848  11.458  0.2532  0.1306 -0.0072
19591W        W35060  14.189   5.145  11.541 -0.1515 -0.1367 -0.2165
19592W        W35061  11.045  11.026   4.147 -0.2403  0.1888 -0.0172
19593W        W35062   6.396  13.845   6.052 -0.0410  0.0067 -0.0574
19594W        W35063   2.464   4.368  12.972 -0.0296 -0.0993  0.1817
19595W        W35064  12.146   8.968   0.459 -0.1667 -0.0460 -0.1696
19596W        W35065  17.019  12.321  14.557 -0.0815 -0.2090 -0.1892
19597W        W35066  14.593   3.425  16.635 -0.0408  0.6284 -0.2149
19598W        W35067   9.008   6.110   1.776 -0.1838 -0.0679 -0.0122
19599W        W35068  13.887  17.203  14.014 -0.0998  0.1690  0.0490
19600W        W35069  13.020  12.492  12.893 -0.2087 -0.1529 -0.1801
19601W        W35070  14.859   0.511   4.668  0.2278  0.0687 -0.3143
19602W        W35071  13.995   9.779  13.257 -0.1404 -0.2181 -0.2753
19603W        W35072   8.455  16.667  16.268  0.2833 -0.3841  0.5124
19604W        W35073   7.754  15.052   2.630 -0.0677  0.2372 -0.2262
19605W        W35074   7.502   6.469   6.645 -0.0794 -0.0334  0.2161
19606W        W35075  11.172   8.871   3.665  0.0724 -0.0928 -0.0908
19607W        W35076  15.183   8.650   0.971 -0.3990 -0.0010  0.1301
19608W        W35077   9.181   5.699   5.154  0.2070 -0.2135  0.2039
19609W        W35078   4.292   7.355  16.832 -0.1281 -0.1685 -0.0413
19610W        W35079  13.915  12.790  12.980  0.0129  0.1204 -0.2196
19611W        W35080   7.544  14.484  14.252 -0.5234  0.1274  0.1173
19612W        W35081   6.310   2.843   1.792  0.0004 -0.2554  0.1244
19613W        W35082  14.035  12.729   1.854  0.0332 -0.0233 -0.0982
19614W        W35083  13.618  15.305  11.100 -0.2940 -0.2775 -0.0387
19615W        W35084  15.146   9.767   5.084  0.3208 -0.0102 -0.0688
19616W        W35085  14.641   0.417   0.144 -0.1161  0.1062  0.1980
19617W        W35086   9.470   6.063   4.625  0.0460 -0.2025  0.1998
19618W        W35087  11.594  15.368  16.463  0.2152  0.0494 -0.2410
19619W        W35088  13.995   9.012   1.470  0.1632 -0.1593 -0.1040
19620W        W35089  10.754   9.424  14.485  0.0856 -0.0130 -0.0700
19621W        W35090  16.174   6.429  11.068  0.0906  0.2142  0.1435
19622W        W35091   7.925   9.548   0.393 -0.0896 -0.4891 -0.2348
19623W        W35092   0.385  15.032   1.752 -0.0102  0.2287 -0.1656
19624W        W35093  13.066   1.768  13.551 -0.0704 -0.1193 -0.3574
19625W        W35094  15.400  12.492   2.273  0.2151  0.0099 -0.1447
19626W        W35095   6.328   2.848  11.852  0.1541 -0.0211 -0.1051
19627W        W35096  15.556  12.105  14.387 -0.2615 -0.0493  0.0725
19628W        W35097   2.184   7.303   0.968  0.0817  0.1616 -0.1528
19629W        W35098   7.620  17.639   5.201  0.0364 -0.0413  0.2244
19630W        W35099  15.568  15.809   3.232 -0.0824  0.0715  0.0738
19631W        W35100   2.364   0.738   6.163  0.0783 -0.1387 -0.2423
19632W        W35101  15.116   7.184  13.149  0.1074 -0.1588  0.2441
19633W        W35102   5.076  15.505   1.115  0.1552  0.3559 -0.0256
19634W        W35103   1.762  13.292  13.720 -0.4056  0.0269  0.1576
19635W        W35104  16.870  16.673  12.941  0.0454  0.0292 -0.0091
19636W        W35105   0.867  13.934   0.884  0.3739  0.0155  0.0986
19637W        W35106  11.339   2.567   5.410 -0.1489 -0.1855 -0.0633
19638W        W35107  14.328   7.529  15.568  0.2919 -0.1614 -0.1498
19639W        W35108   0.685  10.568  15.292 -0.0804 -0.0947  0.2859
19640W        W35109  12.987   2.972   1.930 -0.0634 -0.1286  0.1532
19641W        W35110   8.597   5.317   1.064 -0.2139  0.0084 -0.0431
19642W        W35111  17.647   5.263  11.823 -0.0028 -0.3422 -0.1161
19643W        W35112  15.810   0.912  12.384  0.2686  0.1357 -0.1804
19644W        W35113   8.942  12.522   3.561 -0.0021  0.0669  0.0288
19645W        W35114  17.083  10.099   2.366 -0.1782 -0.0282 -0.0334
19646W        W35115   6.493  17.155   5.056 -0.1100  0.1273  0.0336
19647W        W35116   4.256   9.536  12.837  0.1531  0.0827  0.1213
19648W        W35117   9.340  12.751  12.653 -0.0060 -0.4484  0.0104
19649W        W35118   8.456   5.478  13.574  0.0519  0.0074 -0.0388
19650W        W35119   4.356   2.761   4.476 -0.2945 -0.0530  0.2536
19651W        W35120  10.332  15.020   1.184 -0.3301  0.2681 -0.0167
19652W        W35121   6.943  12.940   2.469  0.0270 -0.0038 -0.0190
19653W        W35122  12.033  11.761   2.058 -0.1421  0.1405 -0.1176
19654W        W35123   9.007   6.025   0.315 -0.0192 -0.1756  0.3141
19655W        W35124   7.311   2.446   3.148 -0.1110  0.0738  0.2183
19656W        W35125  11.916  10.551   1.528 -0.0522 -0.0457  0.1793
19657W        W35126   8.869  16.870   3.300 -0.1208  0.0049 -0.0181
19658W        W35127  13.573  15.753   3.337 -0.0715 -0.1408 -0.1246
19659W        W35128  13.758   8.605   5.082  0.3232 -0.1022 -0.1992
19660W        W35129   9.132  15.663  15.998  0.1887 -0.2225 -0.2222
19661W        W35130   5.931   1.825   0.101  0.4308  0.1250  0.0779
19662W        W35131   1.344  17.015   3.470 -0.1911  0.0926 -0.0229
19663W        W35132   2.852   5.715  14.902 -0.0704 -0.1237  0.2475
19664W        W35133  14.818  14.788  12.182  0.1500  0.0154  0.0711
19665W        W35134   0.372   2.029  13.262  0.0444 -0.0932  0.1246
19666W        W35135   6.172   0.004   5.159  0.0532 -0.2250 -0.0012
19667W        W35136  13.684  14.716   0.068  0.1530  0.1470  0.2789
19668W        W35137   6.767  11.702  15.776 -0.1650  0.2456  0.0341
19669W        W35138  17.480   1.681   6.452 -0.2082  0.3717  0.0694
19670W        W35139   8.103   4.611  12.096 -0.1795 -0.2050 -0.2025
19671W        W35140  12.537   6.732  13.195 -0.1007 -0.2410  0.1310
19672W        W35141   8.942  11.051  13.491  0.3057  0.0827  0.1239
19673W        W35142  10.811   5.497  14.439 -0.2238  0.0448  0.2053
19674W        W35143   6.630  15.195  15.430  0.2941  0.0181  0.0137
19675W        W35144   8.029  12.037  12.307 -0.2152  0.1177  0.0113
19676W        W35145   2.451   1.081   2.775  0.4271  0.2104  0.1868
19677W        W35146   2.463   0.250  15.799  0.0901  0.2109  0.1623
19678W        W35147   7.557   3.148  12.580 -0.2450 -0.2300 -0.0086
19679W        W35148  16.557  12.997  16.717 -0.2476 -0.0385 -0.0464
19680W        W35149  10.951   2.033  12.954 -0.2234  0.2109 -0.0719
19681W        W35150  13.060  17.224  15.209 -0.0279 -0.2158  0.0911
19682W        W35151  13.651   4.181   5.189 -0.2172 -0.3164 -0.0764
19683W        W35152  16.199   4.824   3.292 -0.0044 -0.0226  0.2298
19684W        W35153   0.184   8.487   2.407 -0.2726 -0.1468  0.0605
19685W        W35154   2.223  15.359   5.039 -0.0755 -0.0598  0.0529
19686W        W35155  17.337   6.942   3.347 -0.2471 -0.2646 -0.0363
19687W        W35156   3.294  17.251  12.423 -0.1804 -0.0419 -0.0786
19688W        W35157   7.107   9.675   0.688 -0.0878 -0.3443  0.1234
19689W        W35158   9.740   0.189   2.145 -0.0883  0.0439 -0.2127
19690W        W35159   6.666   8.696  12.817 -0.0378  0.3234  0.1251
19691W        W35160   2.422   1.590   2.889 -0.3815  0.1838  0.0625
19692W        W35161  11.421   9.451   1.250  0.0021 -0.2024  0.1640
19693W        W35162   9.339   8.368   1.130 -0.3373  0.1819 -0.0025
19694W        W35163  16.547   1.342   3.410  0.0807  0.0286 -0.0443
19695W        W35164   7.844  10.478   2.504  0.0507  0.3068  0.1374
19696W        W35165   1.508  10.068   1.645  0.0267 -0.0883  0.0051
19697W        W35166   1.386   4.333   1.357 -0.0733  0.1906 -0.2313
19698W        W35167   6.131  14.621  14.806 -0.0840 -0.2762  0.0170
19699W        W35168  17.205   5.388  11.507 -0.2846 -0.2701 -0.0826
19700W        W35169   1.561  14.909   3.217 -0.0044  0.0713 -0.1543
19701W        W35170   4.034  11.895  16.135  0.0445  0.0081  0.1013
19702W        W35171   8.988  15.710   5.837 -0.1146  0.2270  0.3666
19703W        W35172  12.505  13.506  14.183 -0.2747 -0.0641 -0.3899
19704W        W35173  16.859  10.154  16.028 -0.2636  0.1197  0.0162
19705W        W35174   3.498  16.765   4.286  0.2827 -0.0550 -0.2898
19706W        W35175  17.479   7.449  13.206  0.0863 -0.0351  0.0693
19707W        W35176   4.735   8.805  16.394  0.0506  0.2098  0.2562
19708W        W35177  13.257   4.995  14.023  0.1569  0.1121 -0.2486
19709W        W35178  11.555  11.572  11.932 -0.0679 -0.0610 -0.2995
19710W        W35179   0.548   4.209   3.009  0.1654 -0.0352 -0.0218
19711W        W35180  15.451  15.027  14.835 -0.0973 -0.2320 -0.4220
19712W        W35181   5.087   1.415  13.084  0.1829 -0.2870 -0.1024
19713W        W35182   8.508  17.202   3.428  0.0609  0.1872 -0.1380
19714W        W35183  14.231   4.148   4.027 -0.0397 -0.0070  0.0402
19715W        W35184   7.511   0.573   2.855  0.0904 -0.0356 -0.4932
19716W        W35185   6.733   4.608   0.134  0.0118 -0.4190 -0.1081
19717W        W35186   7.466   0.076   2.870 -0.0720  0.3179 -0.0758
19718W        W35187   6.208  17.679  14.838  0.0840 -0.1193  0.3565
19719W        W35188  16.753  10.016  11.935 -0.0360  0.2934  0.1421
19720W        W35189   8.600  17.436  14.865 -0.0827 -0.1030  0.0574
19721W        W35190  16.369   9.156  14.687  0.0316 -0.0429  0.1305
19722W        W35191  15.545   2.313   4.340 -0.1101 -0.2183 -0.0306
19723W        W35192   8.374   2.870   4.091 -0.2815 -0.0100 -0.1041
19724W        W35193   0.883  16.606   1.482 -0.1930 -0.1458  0.0785
19725W        W35194   7.740   4.930   3.510  0.2834  0.1026  0.0882
19726W        W35195  15.141   6.489   4.486 -0.0824 -0.0104 -0.1551
19727W        W35196  10.663   3.023   6.125  0.0329 -0.0759 -0.0571
19728W        W35197   4.461  17.642  12.681  0.0324 -0.0476  0.0737
19729W        W35198  11.101   7.529  14.670 -0.0564  0.0813  0.0197
19730W        W35199   0.097   4.795  11.970  0.0725  0.0012  0.0808
19731W        W35200  10.116  14.024  16.805 -0.0971  0.0068 -0.1456
19732W        W35201  11.638  17.176   3.665  0.0022  0.0951 -0.0697
19733W        W35202  16.429  13.413   0.146  0.0853 -0.4221 -0.3305
19734W        W35203  14.982   9.223  11.972 -0.1065  0.1856  0.1698
19735W        W35204  17.291  17.696  16.722  0.1488  0.3026 -0.1809
19736W        W35205   2.779  11.559   3.742  0.1801 -0.0835 -0.1259
19737W        W35206  12.496  15.827   4.437  0.2593  0.0615 -0.2108
19738W        W35207   5.549   7.316  12.038  0.1422  0.0215  0.0412
19739W        W35208   1.366   6.861  14.918 -0.2740 -0.0612  0.1816
19740W        W35209  14.099  16.264  12.757 -0.2051  0.2990 -0.0075
19741W        W35210  10.204   2.480  11.556 -0.0785 -0.1938  0.1996
19742W        W35211   3.553   2.247  12.123 -0.1500  0.0488  0.0391
19743W        W35212   4.093  15.874   0.894  0.1291 -0.0262 -0.1606
19744W        W35213  13.377  15.952   5.299 -0.0930 -0.0374 -0.1401
19745W        W35214  13.974   1.694  13.039  0.1249  0.2956  0.2833
19746W        W35215   9.324   7.131   1.371  0.2770  0.0158 -0.1394
19747W        W35216   4.253  12.859   4.664  0.2456  0.2574 -0.0031
19748W        W35217  13.319  13.718  16.499  0.0285  0.2237  0.2756
19749W        W35218  15.780   3.225   2.501  0.2548  0.3267  0.1745
19750W        W35219   0.302  10.231  16.037 -0.0478  0.1626 -0.1526
19751W        W35220   8.947  17.514   1.316  0.2877 -0.0228  0.1332
19752W        W35221  16.754  12.800  15.676  0.0187 -0.1919  0.0312
19753W        W35222   9.947   1.687   5.225 -0.0277  0.0824  0.1574
19754W        W35223  12.890  12.810  14.528  0.3247  0.0820  0.1931
19755W        W35224   6.285  14.291  14.228 -0.3951  0.1241 -0.0429
19756W        W35225   6.662  12.793   0.474 -0.3604 -0.1706  0.1685
19757W        W35226  14.449  10.416  12.194 -0.1635 -0.1766  0.0178
19758W        W35227   7.014  16.724  11.318 -0.1908 -0.2867  0.2459
19759W        W35228   2.508  17.180   4.032 -0.1258 -0.2129  0.0695
19760W        W35229  12.161  17.545   0.487 -0.0834 -0.2266  0.2726
19761W        W35230  10.206  11.229   2.142 -0.0585  0.0541 -0.0727
19762W        W35231   0.149   7.743  14.629 -0.3533  0.0078  0.1174
19763W        W35232   5.943  10.124   2.013  0.3969 -0.2744  0.2589
19764W        W35233   4.053   7.516   3.297  0.0706 -0.2809 -0.2191
19765W        W35234   3.723  13.466   0.525 -0.1843  0.0844 -0.1316
19766W        W35235   9.105  15.385  12.106  0.0252 -0.3468  0.1785
19767W        W35236   3.828   7.591   1.656 -0.3084  0.0607  0.0771
19768W        W35237   7.865   9.504   3.614  0.3100 -0.2050  0.0923
19769W        W35238   8.163  14.159  14.914 -0.2669 -0.1045 -0.0315
19770W        W35239  14.304  10.749  13.494 -0.0707 -0.1020 -0.1293
19771W        W35240   8.810   9.469  11.916  0.1668 -0.1320 -0.2599
19772W        W35241  12.632   9.292   3.002 -0.0537  0.0274  0.1818
19773W        W35242   0.516  15.726  13.886 -0.0566 -0.3380 -0.1048
19774W        W35243   5.640   5.035   1.770 -0.1352 -0.0826  0.1901
19775W        W35244  12.628  12.501  15.063 -0.2571  0.0217 -0.1243
19776W        W35245   0.259  14.172  11.506 -0.1814 -0.4055 -0.2702
19777W        W35246   3.347   0.074  16.223 -0.0384 -0.1725 -0.2298
19778W        W35247   8.833  13.475   3.897 -0.2659  0.0998  0.1670
19779W        W35248   5.427  16.896  14.681 -0.2131 -0.0211  0.2120
19780W        W35249  11.617  12.459   6.505  0.1556 -0.0743  0.0707
19781W        W35250  12.396   4.549   1.799 -0.0427 -0.2407 -0.2332
19782W        W35251   2.205   3.516  13.882  0.1980 -0.0447  0.0260
19783W        W35252  14.315   7.231   4.140 -0.0167 -0.0193  0.1433
19784W        W35253   2.121   6.276  12.017  0.2297 -0.0911 -0.0464
19785W        W35254  12.135   3.495  14.242  0.0089 -0.1549  0.0127
19786W        W35255  16.682  10.861  15.439 -0.2637  0.1189  0.1762
19787W        W35256  10.816   2.265   1.813 -0.0055 -0.5274 -0.2275
19788W        W35257   6.739   9.506  14.235 -0.1344  0.0290 -0.0962
19789W        W35258   2.213  17.132  11.985 -0.4238 -0.0360  0.1963
19790W        W35259   3.628  17.121   3.264 -0.0418 -0.0283  0.2013
19791W        W35260   2.205  10.539  13.855  0.0558  0.1061 -0.1395
19792W        W35261  10.324   8.983   1.259  0.0472 -0.3561  0.2082
19793W        W35262   1.578  12.935   1.913  0.0341  0.3078 -0.0537
19794W        W35263   1.770   7.581   2.856  0.3324  0.0237 -0.1520
19795W        W35264  12.554   3.739  14.029  0.0297 -0.1563 -0.0642
19796W        W35265  13.263  11.105   4.748  0.1774 -0.1968 -0.4227
19797W        W35266   8.175   0.118   6.407 -0.0418 -0.0346  0.0018
19798W        W35267   4.011   3.431  14.873 -0.0175  0.0175 -0.0400
19799W        W35268   1.791  15.377  16.304 -0.0051  0.3041 -0.0463
19800W        W35269   5.857   7.485  16.819 -0.0232 -0.0746 -0.0225
19801W        W35270  15.861   5.299   1.257  0.0700 -0.1892  0.1643
19802W        W35271   2.743   9.698   4.153  0.4281  0.1167 -0.1305
19803W        W35272  11.756   5.842   4.385  0.1909 -0.1224 -0.2328
19804W        W35273  13.121   8.458   0.364  0.1876 -0.0999 -0.0082
19805W        W35274   1.618  11.721  15.315 -0.1269 -0.3241  0.2965
19806W        W35275   1.908   2.163   4.485  0.0038  0.0775 -0.3766
19807W        W35276   8.270   2.020   1.096 -0.0372 -0.1569 -0.0731
19808W        W35277   4.967   3.528   4.214  0.0033 -0.0684 -0.0155
19809W        W35278   7.211  16.240  13.776 -0.0231  0.0329 -0.4624
19810W        W35279  16.535  13.290  13.327  0.0825 -0.1577  0.1492
19811W        W35280  16.321  16.049  11.969 -0.0195  0.0727  0.2065
19812W        W35281  16.062  16.120  14.166 -0.0682 -0.1108  0.0954
19813W        W35282   3.746   1.938  14.008 -0.2361 -0.0997 -0.0696
19814W        W35283  10.033   5.200  11.967 -0.1566  0.0635 -0.2932
19815W        W35284   3.578  11.814  13.094  0.2304  0.3152  0.0626
19816W        W35285  11.150  12.525   0.049 -0.1666 -0.0783  0.0049
19817W        W35286   5.139   2.033   3.575 -0.1488  0.2816 -0.2951
19818W        W35287   9.867  15.078  12.946 -0.4557 -0.0467  0.3386
19819W        W35288   8.645  12.312   1.988  0.1836  0.0177 -0.0299
19820W        W35289   5.941   7.967   0.126 -0.1252 -0.2096 -0.0677
19821W        W35290   5.153  12.985  15.505 -0.0445  0.1667  0.0774
19822W        W35291  16.961   6.414   1.037  0.0067 -0.0173 -0.2437
19823W        W35292  16.656  15.048  12.125  0.1903 -0.0575  0.0878
19824W        W35293  11.469   8.094   3.782  0.1870 -0.2923  0.0828
19825W        W35294   6.609  17.230  11.757  0.1210 -0.2413  0.1868
19826W        W35295   2.968  12.114  15.920 -0.0818 -0.1291  0.3301
19827W        W35296  14.412  16.151   3.340  0.0838 -0.2461 -0.4444
19828W        W35297   6.857  17.309  16.483  0.1235 -0.2995 -0.0242
19829W        W35298  14.707   5.035  12.909 -0.0700  0.0827 -0.0341
19830W        W35299   4.896   2.201   0.760 -0.0434  0.0271 -0.0501
19831W        W35300  13.580   0.811   2.543 -0.1915  0.0414  0.0499
19832W        W35301  16.277   5.972  16.709 -0.3746  0.0864  0.1211
19833W        W35302  10.722   8.429  15.215  0.0269  0.0821 -0.0780
19834W        W35303   3.875   5.707  12.406  0.2824  0.1840  0.0443
19835W        W35304   5.383   5.286   2.738  0.1551 -0.0638 -0.2052
19836W        W35305  11.212   1.568   4.607  0.0908 -0.0242 -0.0323
19837W        W35306   6.798   1.380   3.449 -0.1059  0.1156 -0.3559
19838W        W35307   1.620   1.045  15.054  0.1476  0.0783 -0.2221
19839W        W35308  11.719   7.332  13.480  0.0566  0.0830  0.4300
19840W        W35309  17.704  12.541   4.225 -0.3028  0.0590 -0.2140
19841W        W35310  11.786   8.827   4.344  0.2270 -0.0396  0.0002
19842W        W35311  16.348  10.510   1.839  0.0970 -0.2882 -0.2546
19843W        W35312   6.119   5.040   4.587  0.2120 -0.2382  0.0707
19844W        W35313   3.353   1.652  14.310 -0.2127  0.0549  0.1257
19845W        W35314   3.811  15.947  12.823 -0.2153 -0.0706  0.2094
19846W        W35315  11.262  13.489   0.257 -0.1300 -0.2375  0.0308
19847W        W35316   6.120   2.203   0.450  0.0550 -0.0949 -0.1569
19848W        W35317   2.255   6.758  16.238  0.0116  0.3823 -0.0798
19849W        W35318   4.188   2.060  14.370 -0.1572  0.1148  0.1107
19850W        W35319   3.479   4.583  16.466  0.1343  0.2972 -0.0471
19851W        W35320   9.290   5.340   1.386  0.1283  0.0335 -0.0219
19852W        W35321  15.577   2.083   1.146 -0.1185 -0.0253 -0.0100
19853W        W35322   3.476  10.652   5.130  0.0426 -0.0784  0.2129
19854W        W35323   9.586   6.124   2.355  0.0717 -0.0928 -0.0578
19855W        W35324   1.757  14.487  13.296  0.0828 -0.0414  0.0848
19856W        W35325   4.018  14.747  16.042 -0.0252 -0.0083 -0.0081
19857W        W35326   5.835   3.125   1.936 -0.0456 -0.1212 -0.0323
19858W        W35327   3.307  16.913   1.289 -0.0923  0.1876  0.3228
19859W        W35328   1.426  15.956   1.605 -0.0609 -0.1343 -0.0588
19860W        W35329   4.217  12.505  12.584 -0.1554  0.2282 -0.2444
19861W        W35330  12.053  12.420  15.621 -0.2671 -0.0377  0.1955
19862W        W35331   4.165  16.328   5.296 -0.1048 -0.0828  0.1259
19863W        W35332  16.671  11.562  16.836  0.0772  0.2270  0.1283
19864W        W35333  17.337   2.977   1.111 -0.0591  0.2015 -0.0546
19865W        W35334   4.594   2.002   0.026  0.0552 -0.1244 -0.1026
19866W        W35335   2.232  16.538   1.408 -0.0201 -0.2489 -0.0340
19867W        W35336  13.839   9.108  14.967 -0.2163  0.0842 -0.0036
19868W        W35337   4.495   9.006   4.121 -0.0747  0.0607  0.0821
19869W        W35338   8.322  16.671   0.482 -0.0903 -0.0143 -0.1141
19870W        W35339   9.460   3.158  11.347 -0.1620  0.0367  0.0834
19871W        W35340   1.900   9.043   0.228 -0.0639  0.1113  0.2768
19872W        W35341   8.545   4.249   5.481  0.2568  0.1614  0.0245
19873W        W35342   1.822   7.193   3.276 -0.1779  0.0565 -0.3054
19874W        W35343  11.206  15.971  14.459  0.1997 -0.1513  0.0187
19875W        W35344   7.970  12.163  15.704 -0.0676  0.1541 -0.2695
19876W        W35345   3.896  17.292   5.579  0.1018 -0.0938 -0.3875
19877W        W35346   6.584   6.817  14.987  0.1332  0.0522  0.0446
19878W        W35347  11.050   7.327   2.126  0.0352 -0.0581  0.0087
19879W        W35348   7.032  17.706   5.538 -0.0791  0.2406 -0.2674
19880W        W35349   3.627   5.313  14.065 -0.1176 -0.0617  0.0834
19881W        W35350  14.114   0.851   5.433  0.0813 -0.0870  0.2813
19882W        W35351  11.031   8.874  13.421 -0.1906  0.0304 -0.0065
19883W        W35352   2.378   5.862   0.955  0.1755 -0.1825 -0.1364
19884W        W35353   9.131  14.410   4.198 -0.1594 -0.2427  0.1077
19885W        W35354  13.558  13.559   1.875  0.2522 -0.0017 -0.0547
19886W        W35355  15.008   4.682  13.582 -0.0460 -0.1182  0.0119
19887W        W35356   9.691   5.213  13.928  0.0992 -0.0276 -0.0709
19888W        W35357   1.214  14.120  13.861  0.0939  0.4677  0.2062
19889W        W35358   3.282   1.863   5.097  0.0376 -0.1036 -0.0647
19890W        W35359   5.018  11.155  13.431  0.0516  0.1540 -0.1987
19891W        W35360  15.058  10.693   5.209 -0.0686  0.1479 -0.0265
19892W        W35361   5.339   8.699   1.414  0.0962  0.2221  0.1052
19893W        W35362   4.563  12.560   1.901 -0.0236 -0.1791 -0.2989
19894W        W35363  12.265   0.245   0.252  0.2154  0.1441  0.2802
19895W        W35364  15.895  11.267   3.932 -0.0214 -0.3423 -0.0034
19896W        W35365   7.135   7.078   1.844 -0.0850 -0.1838  0.2473
19897W        W35366  11.634  13.209   0.115  0.0331 -0.0032  0.0366
19898W        W35367   6.125   6.952   3.109 -0.2551  0.1223  0.0422
19899W        W35368  15.154  17.674  11.350 -0.0972 -0.0003  0.0153
19900W        W35369  10.994  14.597  13.174  0.0466  0.0191  0.0316
19901W        W35370   4.687   5.435   3.636 -0.0765  0.0847  0.1860
19902W        W35371   3.642   8.971   4.303  0.0054  0.0912  0.1181
19903W        W35372  15.492   3.449  15.555  0.2236 -0.0807 -0.2649
19904W        W35373   7.903   1.580   2.067  0.0048 -0.1298  0.0297
19905W        W35374  11.676  11.610   3.513 -0.0858  0.2225  0.0205
19906W        W35375  16.412  14.326   2.935  0.1691 -0.1308  0.0166
19907W        W35376   4.740  12.391  12.066  0.0140 -0.3105 -0.1851
19908W        W35377   4.691  12.256  14.136  0.0791  0.0908 -0.0815
19909W        W35378  16.177   8.622   3.380  0.1895 -0.1488  0.2578
19910W        W35379   8.685   5.854   2.095 -0.0304 -0.1747  0.0539
19911W        W35380  13.611  16.508  11.644 -0.0387  0.2382 -0.1813
19912W        W35381   9.232  16.384   4.681  0.0904 -0.0073 -0.1082
19913W        W35382   3.525  11.758   5.029  0.2821  0.0217 -0.2125
19914W        W35383  16.179   9.678  12.666  0.2558 -0.2086 -0.5904
19915W        W35384   2.632  12.080   4.032 -0.1943 -0.2096 -0.3253
19916W        W35385   4.249  13.223  15.311 -0.0279  0.0195  0.3727
19917W        W35386   2.614   3.553  11.312 -0.1861 -0.2645  0.1751
19918W        W35387   8.178   7.432  13.764  0.2590  0.1302  0.0598
19919W        W35388   4.259  17.320  13.569  0.0468 -0.0147  0.0955
19920W        W35389  17.090  16.045  11.324 -0.0670 -0.2997  0.2041
19921W        W35390   2.060   5.213   4.159 -0.1375  0.1263 -0.0434
19922W        W35391  12.480   8.445  12.485 -0.0364  0.1562  0.1312
19923W        W35392  17.041  17.607  11.432  0.4035 -0.1011 -0.2127
19924W        W35393  16.246  16.714   0.298  0.1003 -0.0756  0.1779
19925W        W35394  14.502  14.017   0.408 -0.2247  0.0668 -0.0542
19926W        W35395  15.167   6.865  12.150 -0.0575  0.0471 -0.1622
19927W        W35396   2.487  11.256   3.942 -0.0204 -0.0737 -0.0116
19928W        W35397  10.155  15.536   6.390 -0.0701  0.0419  0.0344
19929W        W35398   0.970  15.735  13.665  0.0920  0.1272  0.2705
19930W        W35399   3.568  10.141   5.290 -0.0969  0.0892 -0.1992
19931W        W35400   7.843   5.169  14.618 -0.1308 -0.3119 -0.0192
19932W        W35401   8.868  13.594  14.040 -0.0519  0.2772  0.3161
19933W        W35402   7.282   3.024  14.360 -0.1361 -0.0885 -0.0228
19934W        W35403   1.594  16.099   2.801  0.0142  0.0811  0.1960
19935W        W35404   0.490  15.623  11.797  0.3371 -0.0464  0.0053
19936W        W35405   4.775  13.259   3.069  0.1089 -0.0666  0.0034
19937W        W35406  14.034  14.124   4.671  0.1899  0.2735  0.1286
19938W        W35407   3.202  17.373   1.704 -0.1844 -0.1012  0.1126
19939W        W35408  16.257  15.864   5.421  0.0152 -0.1167  0.0088
19940W        W35409   8.354   3.374   0.388 -0.4472 -0.3472 -0.1634
19941W        W35410  10.721   0.285  11.882 -0.0166  0.0096  0.1048
19942W        W35411   6.203  11.350  11.508 -0.0503  0.0025  0.0367
19943W        W35412  14.847   1.274   0.749 -0.1125 -0.1368  0.0279
19944W        W35413   0.121   5.741   4.654 -0.0845  0.0679 -0.0430
19945W        W35414  12.508  10.951  14.845 -0.0892  0.1035  0.4149
19946W        W35415   8.560  14.762  11.331 -0.4150  0.3584 -0.0051
19947W        W35416  16.026   0.806   3.279 -0.1900  0.3776 -0.1859
19948W        W35417   3.759   1.296   1.386 -0.0926  0.0723  0.1944
19949W        W35418   9.281   4.674   3.103 -0.3664 -0.0498 -0.0110
19950W        W35419  15.886  12.706   4.493  0.1980 -0.0165  0.0457
19951W        W35420  14.172   2.609  13.869  0.1875  0.1882  0.2172
19952W        W35421   7.075   1.721  13.151  0.1226  0.0467 -0.2603
19953W        W35422   5.026   7.907  13.538 -0.0163  0.1746 -0.0182
19954W        W35423  15.618   1.759  15.957  0.0871 -0.0840 -0.1096
19955W        W35424   4.708  17.617  13.671  0.2585  0.0926  0.0553
19956W        W35425  13.028   7.484   4.708  0.1455 -0.0835  0.1548
19957W        W35426  12.259  17.259   2.559  0.0080  0.0413  0.0137
19958W        W35427   4.277   3.462  15.303  0.1375  0.0152  0.7395
19959W        W35428  16.262  15.488   5.074  0.2393  0.2479  0.1812
19960W        W35429  17.404   0.181  15.286 -0.3097  0.1103  0.1421
19961W        W35430  10.848   3.319  11.627  0.0054 -0.0440 -0.0846
19962W        W35431   5.886   4.478   4.603 -0.0065  0.4597 -0.3752
19963W        W35432  10.969   5.577   0.448 -0.0750 -0.0335 -0.2001
19964W        W35433  10.813   4.189  15.718  0.1940 -0.1455 -0.0412
19965W        W35434   4.577  12.909  16.337  0.0530 -0.0506  0.1802
19966W        W35435  16.780   2.467  11.812  0.5014 -0.0809  0.1169
19967W        W35436   1.090   2.849   0.825 -0.1759 -0.2445 -0.0868
19968W        W35437  10.979   3.175   6.507 -0.0528  0.0405  0.1319
19969W        W35438  10.735   3.754   1.781  0.3016 -0.0205  0.2061
19970W        W35439   4.598  10.168   1.708 -0.1149  0.1933  0.0147
19971W        W35440   8.081  16.917   4.253 -0.3467  0.0680 -0.0003
19972W        W35441   1.828   3.449  14.378  0.3497  0.1023 -0.2786
19973W        W35442  12.389  14.555   4.347 -0.1257  0.1038  0.1228
19974W        W35443  16.884   1.437   0.414 -0.1385 -0.1856  0.3840
19975W        W35444   3.571   4.179   3.710  0.2240  0.1216  0.0390
19976W        W35445   2.613   4.280   4.124 -0.1792  0.1216 -0.2926
19977W        W35446   4.919   5.940   3.706  0.2518  0.0654  0.0500
19978W        W35447  13.305  13.066   5.868 -0.0465  0.1715  0.0423
19979W        W35448  11.522  13.540  12.514  0.4203  0.0234 -0.0675
19980W        W35449  10.065  15.103  15.243 -0.2246 -0.1252 -0.1492
19981W        W35450  16.202   7.117  12.492  0.2974  0.1860  0.0702
19982W        W35451  11.280   1.516   1.226 -0.2070  0.0666 -0.1069
19983W        W35452  15.253   6.625  16.020  0.1965  0.2708  0.1137
19984W        W35453   9.886  11.955   1.470 -0.0667 -0.1674 -0.0084
19985W        W35454  10.891  14.829  12.682 -0.1738 -0.0858  0.0165
19986W        W35455  15.657  17.757   0.200  0.0714 -0.2322  0.2238
19987W        W35456  15.622  14.506   4.092  0.0110 -0.2696  0.0249
19988W        W35457   9.835   5.998  15.012 -0.1063 -0.0894  0.3173
19989W        W35458  15.680   3.389   4.994  0.2120 -0.3052  0.1992
19990W        W35459  14.677  15.708   3.163  0.0536 -0.0085  0.0714
19991W        W35460  11.040  13.327   4.980 -0.0442  0.1039 -0.2994
19992W        W35461  16.208   7.992  12.758 -0.1280  0.0208 -0.2087
19993W        W35462   3.029   2.693   2.489 -0.1012  0.0274  0.2042
19994W        W35463   8.041   6.654   1.697  0.1643  0.1640  0.1918
19995W        W35464  16.456   8.159   3.448  0.1356  0.0241  0.0954
19996W        W35465   4.035  13.785   5.646 -0.1739  0.0282  0.0432
19997W        W35466   8.610  17.017   6.029 -0.1752 -0.0751  0.0377
19998W        W35467   1.988  15.672   2.948 -0.0255  0.0186 -0.1777
19999W        W35468  17.161   2.079  14.042 -0.2160 -0.1943 -0.2705
20000W        W35469   7.501  13.327  10.861  0.0075  0.3574 -0.0557
20001W        W35470   8.445   2.879  14.379 -0.0428 -0.1462  0.0967
20002W        W35471  10.789  15.058  13.133  0.2337  0.1306 -0.2328
20003W        W35472   6.272   1.654   0.582 -0.2480  0.0142  0.0989
20004W        W35473  12.029   7.335   1.568  0.0291 -0.2589  0.2446
20005W        W35474   5.447  16.498  13.131 -0.0439 -0.1486 -0.0286
20006W        W35475   6.109   6.698  15.515 -0.2227 -0.0927 -0.0474
20007W        W35476  13.601   6.236  14.592  0.2688  0.0086  0.1386
20008W        W35477  15.976   6.144  11.675 -0.0461 -0.2708  0.0185
20009W        W35478   0.909  14.208   1.335 -0.0008 -0.0505 -0.0138
20010W        W35479   5.313  13.613   2.097 -0.2995 -0.1061  0.0972
20011W        W35480   0.280   2.357   1.454  0.2010 -0.2016  0.1922
20012W        W35481   7.607  12.063   5.676 -0.0604 -0.1399  0.0453
20013W        W35482  12.683   7.093   3.894  0.2833 -0.0483 -0.1063
20014W        W35483  15.509   3.599  16.843 -0.1648  0.3162 -0.2688
20015W        W35484   0.508  15.460  14.855  0.1056 -0.0152 -0.0959
20016W        W35485  10.735  16.350   2.348  0.0446 -0.1241  0.1333
20017W        W35486   8.873  13.081  16.101  0.2182  0.0212  0.1501
20018W        W35487   5.944  10.381   6.064 -0.0985 -0.2051 -0.2358
20019W        W35488   7.683   4.135  13.930  0.4873 -0.0523  0.0103
20020W        W35489  13.473   5.996  15.767  0.0948 -0.3483 -0.1414
20021W        W35490  11.714   4.892  15.219 -0.0957  0.1053 -0.0531
20022W        W35491   1.343   3.632   2.833  0.0218 -0.0642  0.2381
20023W        W35492   2.536  10.654   5.074  0.0287 -0.2277  0.0421
20024W        W35493  14.435  13.495  15.813 -0.1609  0.0931 -0.1643
20025W        W35494   6.668   6.065  15.011 -0.2953  0.0771  0.1046
20026W        W35495   8.277  17.518  16.211 -0.0403 -0.1655  0.1331
20027W        W35496  11.088   3.807  12.986  0.3766  0.0494 -0.0844
20028W        W35497  16.729  16.480   2.857  0.1643  0.0454  0.0427
20029W        W35498   3.760   8.445   2.860  0.2077 -0.0649  0.4088
20030W        W35499   0.348   4.065  12.144  0.2274  0.1172 -0.1868
20031W        W35500   0.550  14.771   2.727  0.1043  0.0200  0.4878
20032W        W35501   2.303  12.500  14.470 -0.5496 -0.0330  0.1464
20033W        W35502   0.597   6.793  13.696  0.2039  0.0574  0.0702
20034W        W35503  10.750   6.062  12.496 -0.1939 -0.0933  0.1786
20035W        W35504  14.465  11.623   1.742 -0.0660 -0.0497  0.0190
20036W        W35505  12.813   4.823   1.885  0.0331 -0.0556  0.1000
20037W        W35506   2.081   4.231  13.454  0.1004  0.1048  0.0979
20038W        W35507   0.327   9.334  10.963 -0.1239  0.1252  0.0148
20039W        W35508  13.807   8.009  14.373  0.1423 -0.1604 -0.2270
20040W        W35509   6.618  17.597   5.866  0.0742  0.2376  0.0292
20041W        W35510   9.267  12.196  15.111 -0.0432 -0.2490 -0.1283
20042W        W35511  10.562   5.637  16.596 -0.0430 -0.0452  0.0929
20043W        W35512   9.352  10.358  13.045  0.0029  0.3182  0.0199
20044W        W35513   7.483   9.830  11.884 -0.1638  0.0079  0.1404
20045W        W35514   9.375   0.490   5.729 -0.2379 -0.1246  0.1102
20046W        W35515   5.451  10.567  11.113  0.1334 -0.2652  0.0906
20047W        W35516  13.045   3.044  15.139  0.0363  0.0596  0.0409
20048W        W35517   9.151  13.859   6.025 -0.0471 -0.0269  0.1972
20049W        W35518   7.035   2.965   4.532 -0.0927  0.2355  0.2272
20050W        W35519  16.673   9.775  12.644  0.0617 -0.0133 -0.0184
20051W        W35520  12.536   4.013  12.529 -0.1055 -0.0500 -0.0942
20052W        W35521  15.091  10.638   1.650  0.1142 -0.0811 -0.0204
20053W        W35522   1.662  10.895  10.980  0.0459 -0.1158  0.0589
20054W        W35523   5.083   8.378   3.918  0.1016 -0.0328 -0.0215
20055W        W35524   7.567  15.818  16.084  0.0855  0.0665  0.1248
20056W        W35525  14.909  16.750   1.849 -0.2553  0.0975 -0.0578
20057W        W35526  14.984   7.133  11.670  0.0783 -0.0453 -0.1891
20058W        W35527  13.994  12.306  11.979  0.1847 -0.3147 -0.2101
20059W        W35528  10.764   5.545  12.324  0.0476  0.2607 -0.1414
20060W        W35529  10.399  10.574  10.433 -0.0938  0.4287  0.1512
20061W        W35530   4.531   2.491   5.015  0.0945 -0.1576 -0.1234
20062W        W35531   0.625  12.181   3.252 -0.0529 -0.4472 -0.0702
20063W        W35532   3.834   7.738  14.699  0.2256 -0.0664  0.0190
20064W        W35533   2.666  15.638   1.041  0.0254 -0.1595 -0.3352
20065W        W35534   0.955   2.484  14.416  0.3303  0.0184 -0.0327
20066W        W35535   3.230   0.012  12.730 -0.2434  0.1021  0.1022
20067W        W35536   3.616  11.182   3.401  0.1748 -0.3396  0.1791
20068W        W35537  16.635   6.331  15.388 -0.0610  0.1419  0.2308
20069W        W35538   1.603   0.412   1.708 -0.2493  0.2870  0.1243
20070W        W35539  13.992  15.072  11.770  0.2032  0.0169 -0.2143
20071W        W35540  10.225   7.804   5.326 -0.1801  0.0428 -0.4289
20072W        W35541   1.001   9.731  15.855  0.2314  0.2003 -0.1783
20073W        W35542   3.518   6.258  13.615  0.2239 -0.0271  0.0411
20074W        W35543  10.329  12.499   3.888 -0.2218 -0.2067  0.0997
20075W        W35544   3.051  12.308   4.258 -0.0159 -0.0460  0.0909
20076W        W35545  17.709   3.988  11.663  0.1189  0.0218 -0.1915
20077W        W35546   7.303  10.153   0.548 -0.3020 -0.1534 -0.1610
20078W        W35547   5.192  10.429   5.638 -0.1610 -0.0324  0.3218
20079W        W35548   3.223  11.703  12.053 -0.0068  0.2525  0.0230
20080W        W35549  12.415   5.365  16.323  0.1155 -0.2137  0.0182
20081W        W35550  16.709   3.641  12.562 -0.2258  0.2132 -0.2034
20082W        W35551   6.917   8.310   0.411  0.2298 -0.2950  0.0717
20083W        W35552  10.845   2.339   5.511  0.2371  0.1060  0.1736
20084W        W35553  10.778  11.656   1.002 -0.1000 -0.0878 -0.1309
20085W        W35554   8.156  10.396   5.311  0.0248 -0.1433  0.0504
20086W        W35555   0.815  13.563  13.252 -0.2791 -0.3032  0.0686
20087W        W35556   3.459   4.187   1.311 -0.1093 -0.2090 -0.0100
20088W        W35557   4.207   7.346  15.956 -0.2158  0.0707  0.0199
20089W        W35558   8.973   3.589  10.694 -0.1656 -0.1317 -0.2624
20090W        W35559  14.281  10.694   2.414 -0.0935  0.1780  0.0699
20091W        W35560   8.228  15.809   5.131 -0.0261 -0.0498  0.2347
20092W        W35561   5.656  12.734   5.130 -0.0456  0.0487 -0.1476
20093W        W35562   6.821  13.405  15.671 -0.1986  0.0164 -0.2376
20094W        W35563   1.247   4.323  15.909  0.2974 -0.1603  0.4770
20095W        W35564  11.511  17.194   5.140 -0.0393  0.1855 -0.2995
20096W        W35565  13.457   7.768  12.897 -0.1373 -0.0378 -0.2316
20097W        W35566   6.613   6.723  15.593 -0.0384 -0.1932  0.2739
20098W        W35567   5.744   1.344  12.210  0.2827 -0.0209 -0.1115
20099W        W35568   8.242   6.591   0.968 -0.0380  0.1241 -0.4485
20100W        W35569  15.754   6.911   0.332  0.1548 -0.2346  0.0359
20101W        W35570   5.776  11.667  11.549 -0.1294 -0.2402  0.1047
20102W        W35571   1.651  11.031   5.413  0.3309 -0.1973  0.0126
20103W        W35572   3.586  13.837   6.405 -0.2183  0.1252 -0.1197
20104W        W35573   2.491   2.933  15.569 -0.1734  0.2736 -0.0472
20105W        W35574  14.954  10.970   0.211  0.0588 -0.0803 -0.1906
20106W        W35575   6.852  11.844   3.856  0.0434 -0.0289  0.2742
20107W        W35576  13.651   3.353   1.678  0.4617 -0.1651 -0.1829
20108W        W35577  17.390   9.907   4.929  0.0296 -0.0589 -0.0077
20109W        W35578   7.418   7.588  14.369 -0.0284 -0.1101  0.1504
20110W        W35579   0.806   2.111   5.582 -0.2164  0.1841  0.0202
20111W        W35580   7.604  13.055   4.132 -0.0465  0.0091  0.2284
20112W        W35581  10.976   3.107   4.731  0.1739 -0.2375  0.0492
20113W        W35582  13.273   9.720   2.467  0.1512 -0.0561 -0.1316
20114W        W35583   7.625  15.979  12.522 -0.0921 -0.1614  0.0420
20115W        W35584   5.364   6.935   2.603  0.1455 -0.0118 -0.3271
20116W        W35585   2.604  14.706  14.281 -0.0210 -0.1345  0.0773
20117W        W35586  14.635   2.018   2.966  0.1616 -0.0717 -0.0516
20118W        W35587   7.968  10.163  11.617 -0.1282 -0.1557  0.2424
20119W        W35588  14.369   2.030   4.675  0.2192  0.2186  0.0741
20120W        W35589   1.290  11.975   5.491 -0.0335 -0.0573  0.0926
20121W        W35590   1.394   9.497  10.579 -0.0358 -0.0956 -0.3604
20122W        W35591  16.544   5.920  14.777  0.2308  0.2261 -0.1778
20123W        W35592  13.739  14.586  14.257  0.1090  0.0281 -0.0706
20124W        W35593  12.807   0.229   0.874 -0.0325 -0.1465  0.1879
20125W        W35594  11.449   4.751  14.459 -0.1228  0.1282 -0.0698
20126W        W35595   4.423   9.178   1.758 -0.0791  0.2345  0.1482
20127W        W35596  12.715  16.352   1.164  0.0785 -0.3541 -0.2013
20128W        W35597   9.476  10.614   0.561  0.1032 -0.0757  0.1372
20129W        W35598  13.686  14.843  14.691  0.0674 -0.1817 -0.0098
20130W        W35599  14.535  16.609   2.473 -0.0332 -0.1428  0.0445
20131W        W35600   5.880  14.672  13.562  0.1212  0.0491 -0.3024
20132W        W35601  17.321  16.725  16.315 -0.0551  0.0701  0.1813
20133W        W35602   1.954  14.455  16.816 -0.1063 -0.0193  0.1298
20134W        W35603  12.354  14.683  16.099 -0.0554 -0.3186 -0.0260
20135W        W35604   2.246  10.151  16.281  0.2874  0.2258 -0.1606
20136W        W35605   9.327   1.232   0.406  0.0704 -0.2768  0.0343
20137W        W35606  11.638   9.722   0.875  0.1812 -0.0358 -0.0176
20138W        W35607  14.171  15.212   3.200 -0.0195  0.0200  0.2304
20139W        W35608  10.127   3.022   3.383 -0.0284 -0.1072  0.2277
20140W        W35609   9.892   4.218   3.720  0.0219 -0.1445  0.0275
20141W        W35610   4.096  10.097   1.571  0.0459 -0.2452 -0.1566
20142W        W35611  13.348  17.635   2.383  0.0567 -0.0566 -0.2393
20143W        W35612   8.738   8.239   5.106  0.3289  0.2015  0.1013
20144W        W35613   9.348  13.490   0.459 -0.1648  0.0412  0.3117
20145W        W35614  10.960  12.082   0.129  0.2306 -0.1363  0.1567
20146W        W35615  14.856  13.809   3.269 -0.1930 -0.1211 -0.3486
20147W        W35616  12.653   5.648  13.642 -0.1754  0.1556  0.0495
20148W        W35617   0.916  12.202  14.705 -0.3370  0.1854 -0.0060
20149W        W35618   3.246   4.031   3.379 -0.2871  0.1708 -0.3512
20150W        W35619  17.129   7.835  15.860 -0.0303  0.0048 -0.0006
20151W        W35620  12.796  15.400  15.093 -0.2095 -0.0627  0.2418
20152W        W35621  15.700   2.744   4.217  0.2787  0.1907 -0.2713
20153W        W35622   4.493   8.326  12.480 -0.2068 -0.2408  0.2173
20154W        W35623   8.002  15.744  12.255  0.0120 -0.0166 -0.3882
20155W        W35624   4.948  13.492  13.668 -0.1778 -0.0185  0.2133
20156W        W35625   2.045  14.633  13.925 -0.0956  0.1222  0.0978
20157W        W35626   2.888   2.069  11.420  0.2680  0.3915  0.3441
20158W        W35627   4.785  13.130   3.639  0.0377  0.1708  0.3278
20159W        W35628   8.865  13.278   3.410 -0.2381 -0.1156 -0.0976
20160W        W35629   2.859   1.336   2.701 -0.0918 -0.1029 -0.1023
20161W        W35630  12.337   0.458  14.951  0.0192 -0.1626 -0.0098
20162W        W35631  16.567  17.604  11.878 -0.0889  0.0116  0.1284
20163W        W35632   2.697  16.191  13.403  0.1312  0.1144 -0.1430
20164W        W35633   9.682   9.836   3.672  0.1546  0.0180  0.0519
20165W        W35634  10.044   3.275  13.239  0.1656 -0.4204  0.3921
20166W        W35635  11.087  11.182   6.279  0.1389  0.1914 -0.1940
20167W        W35636   9.795   0.875   2.521  0.0707  0.0702  0.1234
20168W        W35637   3.725  13.771  14.104 -0.0883 -0.1075 -0.1278
20169W        W35638   3.314  13.554  14.499 -0.3605 -0.0777 -0.1160
20170W        W35639  14.058  10.075   3.237  0.1020  0.2060 -0.4342
20171W        W35640   8.925  17.418  13.556 -0.2333 -0.1955 -0.0128
20172W        W35641   5.038  11.193  15.499  0.2072 -0.2407 -0.0754
20173W        W35642  17.622   4.743  15.505  0.1443 -0.1947  0.0260
20174W        W35643  16.147   4.516   4.235  0.1128 -0.0435 -0.0863
20175W        W35644   3.703   1.774  12.033 -0.2632 -0.1345 -0.0201
20176W        W35645   6.688  16.659   1.097  0.0971 -0.0769  0.1178
20177W        W35646   8.104   8.395  16.475 -0.1446  0.1974  0.0767
20178W        W35647   7.401   2.686  15.794 -0.0080 -0.0679 -0.3406
20179W        W35648   0.694   3.088   2.582 -0.1413  0.0962  0.0546
20180W        W35649  16.583  12.389   3.282 -0.0711  0.0066 -0.2742
20181W        W35650   8.512   6.100   3.639 -0.1936 -0.0582 -0.3826
20182W        W35651   1.527  12.530   1.660  0.1769  0.0866 -0.0560
20183W        W35652   1.204   9.965  14.775 -0.0233  0.3659  0.0642
20184W        W35653  14.931   5.528  14.133  0.3178  0.1931  0.1263
20185W        W35654   3.867  11.982  14.610 -0.0849 -0.1005  0.0199
20186W        W35655   0.166   2.637  14.388  0.1461 -0.2438 -0.1991
20187W        W35656   0.110   0.423  13.623 -0.1761 -0.3135  0.0702
20188W        W35657   0.131  13.432   5.049  0.0331 -0.2562 -0.2838
20189W        W35658  15.844  13.659   4.303 -0.0461 -0.2202 -0.3818
20190W        W35659   7.096  11.609  12.168  0.3048 -0.3491 -0.0809
20191W        W35660  11.806  14.833   4.508  0.1933  0.0307  0.2709
20192W        W35661   8.351  17.196  12.787  0.0441  0.0287  0.2382
20193W        W35662   6.826  13.158   4.704 -0.1197  0.1265 -0.2500
20194W        W35663  13.785  11.467  13.116 -0.1181  0.3205  0.0981
20195W        W35664   8.859  14.881  16.709  0.1207 -0.2708 -0.0282
20196W        W35665  14.497   5.193   2.899 -0.1906 -0.0455  0.1581
20197W        W35666  14.223   8.265   2.139  0.1162  0.0322 -0.1984
20198W        W35667   7.895   3.158  13.628  0.2301 -0.0435 -0.2807
20199W        W35668   4.603   8.246  13.663 -0.1576 -0.2365 -0.0814
20200W        W35669  17.345  10.767   4.334 -0.0143 -0.0280  0.0024
20201W        W35670   0.469  16.704   0.633 -0.4000  0.0913 -0.0617
20202W        W35671   9.054   7.143  12.323  0.1895  0.0474  0.1443
20203W        W35672   6.964   4.590  14.757  0.0090  0.1255  0.0777
20204W        W35673   3.275   3.442  15.283 -0.1523 -0.1497  0.0218
20205W        W35674   7.979  10.062   2.803  0.2051 -0.2011 -0.1955
20206W        W35675  14.007   9.307   4.133  0.0639  0.0207  0.0058
20207W        W35676   5.604  13.862   5.083  0.1751  0.1502  0.0827
20208W        W35677  11.311  14.236  12.311 -0.0287 -0.0934 -0.2508
20209W        W35678   3.040  11.004   4.510 -0.2701  0.3049  0.1712
20210W        W35679   2.345   7.784  16.021  0.1104  0.4272  0.0608
20211W        W35680   7.530   6.281  15.078  0.3472  0.0772 -0.0676
20212W        W35681   2.104  14.271  15.457 -0.4681  0.0328 -0.0808
20213W        W35682   5.762  15.213  12.574  0.4176  0.0695 -0.0675
20214W        W35683  15.187  11.677   2.944 -0.1742  0.2698 -0.2029
20215W        W35684   1.025  14.375   5.337 -0.3261 -0.3805 -0.1251
20216W        W35685  13.889   4.339  15.612 -0.1530 -0.0979 -0.2084
20217W        W35686   0.932   8.558  16.348  0.1088 -0.1451  0.0028
20218W        W35687   0.240  12.004  12.459 -0.1935 -0.3117 -0.0876
20219W        W35688   9.726   4.261  14.780 -0.2727 -0.1037 -0.2278
20220W        W35689   5.097  16.273   5.266 -0.2608 -0.2740 -0.2181
20221W        W35690   3.867  10.577  12.020 -0.2680 -0.0046 -0.3477
20222W        W35691  15.138   1.262  11.751 -0.3924  0.1012  0.1412
20223W        W35692   7.476  10.543  12.303  0.0052 -0.2119  0.2548
20224W        W35693   2.518  16.593  16.488 -0.3139  0.0018  0.2418
20225W        W35694  15.409  10.025  12.110  0.0120 -0.0639 -0.0832
20226W        W35695  15.488  14.615  13.595  0.2348  0.1965  0.2538
20227W        W35696   7.609   5.019   0.566  0.2418  0.1578 -0.2389
20228W        W35697   1.334  14.525  11.871 -0.1637 -0.0736 -0.0713
20229W        W35698  12.605   7.842   2.594  0.0860 -0.0956 -0.0540
20230W        W35699   1.901  10.986   4.519 -0.3218 -0.2897 -0.4012
20231W        W35700   4.682   7.811   5.544  0.0788 -0.0955 -0.0557
20232W        W35701   0.333   8.581  11.346  0.1371  0.1398 -0.2656
20233W        W35702  15.991  15.974   2.375 -0.0215  0.0059 -0.0113
20234W        W35703  16.987  15.185  12.481  0.1768 -0.2045 -0.0332
20235W        W35704   7.779  10.985   0.684 -0.1145  0.3004  0.0443
20236W        W35705  17.330  17.612   0.942 -0.0199  0.1700  0.0231
20237W        W35706   7.801  15.626  15.583  0.0734  0.0039 -0.2443
20238W        W35707   8.052  11.025   3.912 -0.2233 -0.2452 -0.1767
20239W        W35708   2.021   2.160  11.677  0.2952  0.1145 -0.2609
20240W        W35709   8.398   6.937   4.068  0.0214  0.0023 -0.0989
20241W        W35710   4.162   1.878   2.665  0.1606 -0.0528 -0.0102
20242W        W35711   7.180  10.274  16.497 -0.0322 -0.1856 -0.0681
20243W        W35712   4.428   7.853  16.036  0.0280  0.3920 -0.2349
20244W        W35713   5.039   7.432  11.158  0.1186  0.4252 -0.2457
20245W        W35714   6.750   1.719  13.689  0.0266 -0.4393  0.2131
20246W        W35715   4.586  14.553  14.509 -0.3634 -0.0759  0.1214
20247W        W35716  14.979  16.794  15.818 -0.0662 -0.1475 -0.0679
20248W        W35717  14.818   0.591   2.627  0.1287  0.0161  0.1687
20249W        W35718   3.860   5.638   5.452  0.4852  0.1281  0.1002
20250W        W35719   0.585  17.760   3.541 -0.2625 -0.1072 -0.1768
20251W        W35720   6.764   8.418  13.376  0.1234  0.0688 -0.1264
20252W        W35721   1.765  10.138   2.616  0.0377  0.0031  0.1729
20253W        W35722   4.235  13.865   4.698 -0.0646  0.1588 -0.4605
20254W        W35723  15.499   1.398  12.467 -0.0599  0.0829  0.2112
20255W        W35724   8.455   4.074   4.770 -0.0392  0.2701  0.3223
20256W        W35725  11.232  11.242  13.928 -0.1776 -0.0437 -0.0881
20257W        W35726  13.548   7.266   4.054 -0.2005 -0.5505 -0.4549
20258W        W35727   3.646   3.723  16.559 -0.0166  0.1432  0.2942
20259W        W35728   0.496   0.446   2.714 -0.3360  0.0914 -0.0271
20260W        W35729  11.834  11.095   4.276 -0.0422 -0.3907 -0.2834
20261W        W35730   3.056   8.411  13.777 -0.3574  0.0922  0.2868
20262W        W35731   3.515  10.798  11.785 -0.1895  0.0849 -0.0152
20263W        W35732  16.831  13.129  14.862 -0.1881 -0.3112 -0.1185
20264W        W35733   1.539   6.310   1.630 -0.2255 -0.1367 -0.3414
20265W        W35734   0.843   9.847  13.567  0.1432  0.2277  0.2618
20266W        W35735   7.006   6.483  15.776 -0.2024 -0.2934 -0.0514
20267W        W35736   0.569   6.036   4.911  0.1206  0.2006  0.2550
20268W        W35737  17.621   0.802  15.130 -0.0625  0.0501  0.0389
20269W        W35738  13.625  15.042  15.221 -0.0292  0.1969  0.0096
20270W        W35739   6.102  17.481  11.775 -0.1815  0.1089  0.4033
20271W        W35740   9.788  17.092   3.638 -0.0354  0.0942 -0.0136
20272W        W35741  10.538  13.598  12.412  0.0453  0.0208 -0.4379
20273W        W35742   7.742   7.346   5.548  0.1454 -0.0317 -0.1202
20274W        W35743   7.405  15.381   5.768 -0.0738  0.1379  0.2405
20275W        W35744   0.728  10.369  12.847 -0.0227 -0.1612  0.0887
20276W        W35745  13.733   8.772   2.687  0.1449 -0.1430 -0.0735
20277W        W35746   5.650   3.844  12.996  0.1028  0.1732  0.0338
20278W        W35747  14.379   5.174   4.498  0.1257 -0.1190 -0.1597
20279W        W35748   8.134   1.102  16.665  0.2926  0.0069 -0.2607
20280W        W35749  16.456   5.468   5.272  0.0228  0.0183  0.1146
20281W        W35750   0.499  14.536  11.752  0.1214  0.0005 -0.0182
20282W        W35751   0.572   9.559   3.937 -0.0024 -0.2078 -0.3651
20283W        W35752   1.438   1.241   2.654  0.0282 -0.1306  0.1207
20284W        W35753  11.030   8.889  12.144  0.2974 -0.0059 -0.1082
20285W        W35754   5.100   3.824   2.189  0.1099  0.0129 -0.0233
20286W        W35755  16.747   9.742   0.131  0.0535 -0.1060  0.3111
20287W        W35756   1.489  13.803   2.901 -0.1952 -0.1288 -0.0480
20288W        W35757  15.355  11.011  12.222 -0.2721  0.0502 -0.2114
20289W        W35758  10.757   0.524  16.838 -0.0463 -0.0859 -0.1706
20290W        W35759  12.016   0.682  13.014 -0.0555 -0.0966 -0.0837
20291W        W35760   9.765   4.539  13.992 -0.0668 -0.0916 -0.0255
20292W        W35761  15.578  14.596  14.749  0.1676 -0.0660  0.1551
20293W        W35762  15.047  14.780   2.516 -0.3676 -0.1373  0.0350
20294W        W35763   1.393   8.916   4.255  0.1999 -0.3120 -0.1113
20295W        W35764  14.499   9.738  15.133 -0.0457  0.1128  0.0503
20296W        W35765   1.381   0.753  11.447  0.0735  0.4272 -0.1522
20297W        W35766   5.495   5.776   5.346  0.1303  0.1706 -0.2578
20298W        W35767   1.818  10.787   0.911  0.0670 -0.2274 -0.2610
20299W        W35768   3.006  11.026   1.595 -0.4284  0.1098 -0.0004
20300W        W35769  11.246  15.472   3.298 -0.0676 -0.0167 -0.0615
20301W        W35770   1.789   7.932  11.924 -0.3154 -0.1150 -0.2474
20302W        W35771   1.174   4.646  15.461 -0.1042 -0.3008  0.3102
20303W        W35772  13.789   8.580  14.947  0.4304 -0.1286  0.1063
20304W        W35773  15.642   8.903   1.312  0.0085 -0.0825 -0.1408
20305W        W35774  12.615  10.052   0.250  0.3858  0.2404  0.0939
20306W        W35775   0.443   3.117  14.959 -0.1356  0.1213 -0.1274
20307W        W35776   1.298   7.723   4.314 -0.2539 -0.1187 -0.2234
20308W        W35777   4.887  13.778   2.237  0.1583 -0.0219  0.2066
20309W        W35778  13.079   3.854   4.585  0.0624 -0.1818  0.2334
20310W        W35779   1.444   5.711  14.206  0.0603  0.3869 -0.0739
20311W        W35780   0.661  16.796  14.901 -0.1080  0.4670 -0.2448
20312W        W35781   4.893   8.548   2.348 -0.0003  0.0484 -0.0542
20313W        W35782   0.066   2.963  11.865 -0.0084 -0.0018  0.0295
20314W        W35783   0.364  13.395   3.834  0.0695 -0.0296 -0.0232
20315W        W35784   2.311  10.057   0.413 -0.3435 -0.0310 -0.1891
20316W        W35785   2.197   5.117  13.916 -0.2885  0.1372  0.0772
20317W        W35786   0.261  16.316  16.022 -0.2680  0.3654  0.3285
20318W        W35787   8.102  13.169   2.247  0.2061 -0.1364 -0.0187
20319W        W35788  17.776   7.293   4.976 -0.0231  0.3347 -0.2233
20320W        W35789  15.273   4.944  13.962  0.0455 -0.2260  0.1877
20321W        W35790   2.164   0.562  11.380 -0.0433  0.1144  0.2414
20322W        W35791  16.383  12.128   0.812 -0.0811 -0.0606 -0.0552
20323W        W35792  17.644  11.889   0.506  0.1246  0.3050 -0.0696
20324W        W35793  16.156  14.714   0.673  0.0950 -0.0155  0.1129
20325W        W35794  10.203  16.190  12.485  0.0460 -0.1452 -0.1365
20326W        W35795   0.340   9.409  10.151 -0.0298  0.2161  0.1971
20327W        W35796   5.635  10.447   2.309  0.0486  0.0097  0.0028
20328W        W35797  15.095   4.348   1.350  0.1003  0.1030  0.1462
20329W        W35798   2.293   8.256  13.076  0.2360  0.0512 -0.1383
20330W        W35799   5.638   1.270  13.117  0.0103 -0.1260  0.1338
20331W        W35800   0.830  17.279  11.122  0.0215  0.1374 -0.0635
20332W        W35801  11.745  13.922  12.349 -0.0182 -0.0938 -0.1217
20333W        W35802  15.796   1.393   5.625 -0.0015  0.0185 -0.1690
20334W        W35803   5.175  14.007  12.058  0.2946 -0.0905 -0.0862
20335W        W35804   4.900   4.306  11.603 -0.3229  0.1888  0.0092
20336W        W35805   8.315  13.430  14.471  0.2905  0.0073  0.3384
20337W        W35806  15.097   6.179   3.797  0.4234  0.3468 -0.0716
20338W        W35807   3.472   3.085  13.070 -0.3355 -0.0917 -0.2688
20339W        W35808  15.195   1.949  14.577 -0.0764  0.1616  0.1105
20340W        W35809  13.441  12.300  12.651 -0.1072  0.0739 -0.1999
20341W        W35810  15.243   1.709   2.053 -0.0948  0.0305 -0.2743
20342W        W35811   5.752   6.836   2.204  0.1037 -0.0210  0.2664
20343W        W35812   6.875  15.095   2.088  0.1095 -0.0481  0.4347
20344W        W35813   3.069   4.578  12.151  0.4083  0.1995 -0.0203
20345W        W35814   8.437   5.345   1.670 -0.2315  0.0569  0.1845
20346W        W35815  17.046   0.758  13.565  0.0621  0.1110  0.2062
20347W        W35816   6.129   0.020  16.628  0.0522 -0.1727 -0.2328
20348W        W35817  17.683   4.010   1.784  0.1737 -0.2032 -0.1186
20349W        W35818   1.347   3.176   4.113  0.5205  0.2188  0.0233
20350W        W35819   8.031  15.670   3.747 -0.2491  0.1718 -0.0069
20351W        W35820  15.055  14.297  12.028 -0.1590  0.0746 -0.0573
20352W        W35821   7.657  14.212  15.878  0.1702 -0.0817  0.0075
20353W        W35822   7.033  12.652  14.934  0.2819 -0.0741 -0.0755
20354W        W35823  17.220   0.457  11.447  0.2449  0.2328 -0.1938
20355W        W35824  16.328   5.448  12.988 -0.1777 -0.2303 -0.0556
20356W        W35825  16.999  16.487   2.446 -0.2013  0.1099 -0.1672
20357W        W35826  13.382   8.736  10.781  0.0169 -0.0753  0.0501
20358W        W35827   1.776  12.127  16.357 -0.0988  0.3378  0.4148
20359W        W35828   5.990   1.950   1.535 -0.0226 -0.0021  0.0187
20360W        W35829  12.384   7.699   0.712  0.0045 -0.2374 -0.0686
20361W        W35830   9.388  13.324   4.366 -0.3840 -0.1796  0.1192
20362W        W35831   4.522  10.099   6.225 -0.1177 -0.2361  0.0047
20363W        W35832   5.525  17.718   0.824 -0.1085 -0.1347 -0.1939
20364W        W35833  13.535  17.442  16.732  0.0724 -0.4241 -0.2054
20365W        W35834   2.639   0.137  15.363  0.0800  0.1441  0.0254
20366W        W35835  17.603   3.590  14.640 -0.0998  0.0053  0.2480
20367W        W35836   2.187  12.990   4.231  0.3191  0.1289 -0.0656
20368W        W35837   6.208  16.285   5.068 -0.1224 -0.0685  0.0482
20369W        W35838   1.041   3.459   4.998 -0.1093  0.0975 -0.1252
20370W        W35839   7.380   2.304   1.226  0.1935 -0.0414  0.1323
20371W        W35840   2.547  11.465  13.802 -0.1409  0.0671 -0.0717
20372W        W35841   9.863  11.531   5.510 -0.0924 -0.3261  0.0047
20373W        W35842  10.134  16.246   5.710  0.0123  0.0324  0.4510
20374W        W35843   5.949  12.541  16.514 -0.3583 -0.2858  0.0370
20375W        W35844  14.337   2.673   4.547 -0.2268  0.0479  0.3605
20376W        W35845   5.928  12.986  12.158 -0.1464  0.1553  0.1366
20377W        W35846  12.303   3.237   4.843 -0.3299 -0.0942  0.2072
20378W        W35847  12.906   9.496  11.619 -0.0007 -0.0931  0.0537
20379W        W35848  13.461  12.777  12.856  0.0015  0.0872  0.1932
20380W        W35849  11.789   2.247   4.119 -0.1788  0.1238 -0.1530
20381W        W35850   7.144  12.483   1.584 -0.1748 -0.1804 -0.0933
20382W        W35851   7.756   0.965  13.574  0.0227 -0.2349  0.1532
20383W        W35852   0.369  10.376   5.067  0.3906  0.2889 -0.0438
20384W        W35853  16.992   0.642   1.566 -0.2764  0.3299 -0.0850
20385W        W35854  15.627  15.674  11.482  0.2701  0.1070  0.1616
20386W        W35855  10.146   5.079   3.169 -0.1336  0.1299  0.0343
20387W        W35856  16.631   8.083   4.298  0.3216 -0.0281 -0.0288
20388W        W35857   2.284  10.632   4.142 -0.0029 -0.1746 -0.0583
20389W        W35858   7.632   7.249  14.699  0.0432 -0.1118 -0.2012
20390W        W35859   9.920   5.893   3.798 -0.0242 -0.0472  0.2145
20391W        W35860   5.734   0.433   0.872  0.0624 -0.1955 -0.1334
20392W        W35861   7.133   6.950  11.128  0.0585  0.1161  0.3012
20393W        W35862  13.714  11.689  16.146  0.0489 -0.0847  0.2124
20394W        W35863  16.689   7.746  14.654  0.0536 -0.0337  0.2760
20395W        W35864   8.267   6.594  16.778 -0.0675  0.1024 -0.1660
20396W        W35865  15.507   1.572  11.876  0.2699  0.3908 -0.1596
20397W        W35866   3.177   4.608  14.038  0.1836 -0.1257 -0.0508
20398W        W35867   7.905   9.882   1.304 -0.0893 -0.0583 -0.0111
20399W        W35868  17.461   1.285  16.552  0.3779  0.0350  0.0628
20400W        W35869  14.131   3.919  15.083 -0.1689  0.1028 -0.1405
20401W        W35870   0.906  12.744  14.507 -0.2379  0.1633 -0.0864
20402W        W35871   1.655   5.994  13.863  0.1487  0.1683 -0.0502
20403W        W35872   5.134   3.446  16.271  0.1990  0.1181  0.0956
20404W        W35873  12.080   0.351  11.859 -0.2432  0.0564 -0.1574
20405W        W35874  13.673   6.433   0.392 -0.1087 -0.3364  0.0047
20406W        W35875   8.869   9.917  14.270 -0.0040 -0.0844  0.2170
20407W        W35876  16.289  13.303  12.704  0.1727  0.2843 -0.3301
20408W        W35877   6.732   7.753   4.868  0.0200  0.0334  0.2321
20409W        W35878  11.337   4.506  11.836 -0.4376 -0.3248  0.0203
20410W        W35879  11.895   9.068  12.560  0.3080 -0.0168 -0.3500
20411W        W35880   5.346   1.051   4.775  0.0323 -0.1597  0.1590
20412W        W35881   6.543   2.706  13.220 -0.1663 -0.0215 -0.1729
20413W        W35882   1.277   0.755   1.530 -0.0159 -0.1749  0.0398
20414W        W35883   4.192   4.535   4.027  0.1222  0.0436  0.3812
20415W        W35884  16.169   9.943  14.633 -0.0749  0.0246 -0.1480
20416W        W35885   7.604  16.997   1.963 -0.1188 -0.1827  0.1426
20417W        W35886   0.057   7.566  15.501 -0.2450  0.1692  0.0218
20418W        W35887   2.425   1.918  14.705  0.1277 -0.0899 -0.0678
20419W        W35888   7.725   8.725   3.193 -0.0533  0.1169 -0.0066
20420W        W35889   3.920   1.691  16.259  0.2081 -0.1924 -0.0558
20421W        W35890   6.440   2.034  14.573 -0.0169 -0.1028 -0.0238
20422W        W35891  10.311   0.093   2.629 -0.1326 -0.0908 -0.0135
20423W        W35892  16.141   4.408   3.674  0.2624 -0.0520 -0.3807
20424W        W35893   6.178   5.577  14.224  0.0591  0.0017 -0.4878
20425W        W35894   7.054  11.757   4.315  0.2532  0.1172  0.0504
20426W        W35895   3.329   6.331   4.615 -0.2655 -0.2183  0.0744
20427W        W35896  13.911   3.450  14.097  0.1110 -0.0482 -0.0525
20428W        W35897   9.520   3.401   4.173  0.1798  0.1178  0.4094
20429W        W35898  10.129   0.392   5.627 -0.2509 -0.3783 -0.1350
20430W        W35899   7.245   0.619   4.169  0.2901  0.1889 -0.1898
20431W        W35900  10.278  11.480   0.138  0.2011 -0.0094  0.2063
20432W        W35901  13.661  14.641   1.227  0.1925  0.0087  0.1132
20433W        W35902   2.911  12.254  15.053 -0.0575 -0.1294 -0.1836
20434W        W35903  14.900  13.289   1.585 -0.0640 -0.2298 -0.2133
20435W        W35904   3.187  10.615  10.170  0.1373 -0.1318  0.3493
20436W        W35905   1.603  15.474   4.262 -0.3089  0.0976  0.1901
20437W        W35906   1.617   6.947  10.802  0.0569  0.0011  0.1652
20438W        W35907   9.979  17.272  15.589 -0.0550 -0.1756  0.1207
20439W        W35908   1.219   1.972  12.889 -0.1567  0.0385  0.3838
20440W        W35909  11.624   6.053  15.688 -0.0741 -0.1376  0.0315
20441W        W35910   7.767  16.733   4.716 -0.3586 -0.3752  0.1064
20442W        W35911  14.646  15.038  10.488  0.2099  0.1846  0.1288
20443W        W35912   0.756   4.401  12.361 -0.0313 -0.2322  0.3783
20444W        W35913  12.738   5.967   4.304 -0.1407  0.1683  0.2272
20445W        W35914  12.979   2.439   5.007 -0.2157  0.3695  0.0585
20446W        W35915   6.628  13.720  16.651  0.1478 -0.1329  0.0924
20447W        W35916   8.722   3.847   5.722  0.0519 -0.0997 -0.4563
20448W        W35917   7.558  17.004  13.384 -0.1630  0.1072 -0.1817
20449W        W35918  10.001  15.646  14.545  0.1907  0.0787  0.1704
20450W        W35919   3.429  13.942   0.563  0.1216  0.1010 -0.0769
20451W        W35920   8.865  14.287  14.224  0.0329 -0.1651 -0.0971
20452W        W35921  10.868   4.700   5.427 -0.1303 -0.1156  0.3626
20453W        W35922   1.205   2.019  14.340 -0.0765 -0.1322  0.2659
20454W        W35923  10.628   0.130  16.537 -0.0039 -0.3166 -0.0859
20455W        W35924   0.654   8.379   1.486 -0.2627  0.1141  0.0821
20456W        W35925   1.482   6.618   1.271  0.1815 -0.1507 -0.1328
20457W        W35926   1.017   8.318   4.697  0.0626 -0.0828  0.0842
20458W        W35927   7.635  10.210  14.811  0.2967  0.0820 -0.1038
20459W        W35928   5.564  12.122   3.262  0.0868 -0.2489  0.0694
20460W        W35929  10.929   0.308  15.380  0.3752 -0.3608  0.2376
20461W        W35930  16.341  12.549  11.987  0.1501 -0.0350  0.2342
20462W        W35931  14.635   2.535  14.664 -0.0220  0.0646 -0.0462
20463W        W35932   1.252   6.804  11.166  0.1121  0.2429  0.2083
20464W        W35933   6.962  10.543   0.619  0.0394  0.0242 -0.0626
20465W        W35934   5.776   3.085   5.731 -0.1285 -0.0349 -0.0319
20466W        W35935  15.934   8.507   1.708  0.2891 -0.1464 -0.1669
20467W        W35936   6.951   9.413   1.799 -0.1270 -0.2715  0.2516
20468W        W35937  13.926   2.278  12.054 -0.2046 -0.0795 -0.0695
20469W        W35938   9.001  10.478  14.510  0.2358 -0.0015  0.1455
20470W        W35939  13.165   5.355   4.823  0.3524  0.3041  0.2532
20471W        W35940   8.595   1.743   5.408 -0.1330  0.2165 -0.1582
20472W        W35941   1.318   3.285   2.396 -0.1127 -0.1485  0.0481
20473W        W35942   7.072   6.962   0.320  0.0161 -0.1080 -0.2317
20474W        W35943  17.213   5.884  12.303 -0.0517 -0.0042  0.0223
20475W        W35944  13.307   4.306   1.188 -0.2769  0.0601 -0.1155
20476W        W35945  16.433   7.713   4.857  0.1571  0.2508  0.1110
20477W        W35946  14.629   0.218  11.074 -0.1477 -0.1254  0.0248
20478W        W35947   8.580   8.138   2.580 -0.1626  0.2752 -0.1192
20479W        W35948   1.446  15.413  11.298 -0.0042 -0.0219  0.1275
20480W        W35949   5.318  14.652  11.388 -0.1883  0.2042  0.0008
20481W        W35950  17.535   6.781  10.773  0.2020 -0.0147  0.1168
20482W        W35951  11.762  11.970  11.795  0.0588 -0.0528 -0.1257
20483W        W35952   1.221   4.640  13.707  0.2438  0.2361  0.0291
20484W        W35953  11.713  14.783  16.453 -0.3792 -0.1665 -0.1818
20485W        W35954  12.711   4.098   0.099 -0.0561  0.0146  0.0249
20486W        W35955  15.719  14.838   0.890  0.0328  0.1400  0.2157
20487W        W35956  16.734   4.092  13.836 -0.1619  0.0541 -0.1134
20488W        W35957   7.067   7.140   2.863 -0.1787  0.4564 -0.1612
20489W        W35958   6.252   6.782  11.779 -0.2014 -0.2532  0.1037
20490W        W35959   0.032  17.371  12.999  0.1020 -0.0131 -0.0292
20491W        W35960  12.298   5.898  13.026 -0.4201 -0.1099  0.2665
20492W        W35961  10.522  16.400  13.538 -0.4314  0.1688 -0.0412
20493W        W35962  15.382  17.187  13.314 -0.1215  0.2995  0.0547
20494W        W35963  15.994   9.448   2.627 -0.1941  0.0873 -0.1154
20495W        W35964   2.380   0.137  11.253 -0.2309  0.1054 -0.0374
20496W        W35965   9.001   1.355  14.608 -0.2283 -0.0412  0.0801
20497W        W35966   4.135   9.642  15.947 -0.3619  0.4025  0.1701
20498W        W35967   6.160   3.936   3.058  0.0771 -0.1658  0.1782
20499W        W35968  17.772   4.203  15.529  0.0989  0.2053  0.3581
20500W        W35969  13.997   3.449  12.242  0.1563  0.4040 -0.2844
20501W        W35970  14.963  17.698   4.671 -0.0983 -0.0237 -0.2386
20502W        W35971   9.260  14.748  14.675 -0.3090 -0.1539 -0.0941
20503W        W35972  15.383  11.314  11.505 -0.0202  0.1240  0.0040
20504W        W35973   9.430   9.171  13.553  0.0373  0.2054  0.2404
20505W        W35974   8.845   1.717  13.769  0.1738 -0.1921 -0.0423
20506W        W35975  13.815  15.468  11.538 -0.0790 -0.0643  0.3288
20507W        W35976   0.211  15.305  12.202 -0.0852 -0.2833  0.1645
20508W        W35977   1.674   7.966   4.156 -0.0031  0.1035 -0.1459
20509W        W35978  12.608  11.732   3.254 -0.0950 -0.1333  0.0372
20510W        W35979   1.704   9.193  15.194  0.0566 -0.0132 -0.2723
20511W        W35980  11.578   1.826   4.391  0.1435  0.0500 -0.3029
20512W        W35981   5.851  14.714   2.215  0.0736  0.0007  0.0864
20513W        W35982  13.635  11.417  12.601  0.0029  0.0171  0.0830
20514W        W35983  10.040   1.996  16.191 -0.1322  0.0030 -0.0953
20515W        W35984   7.343   9.810   4.157 -0.0599 -0.3776 -0.4547
20516W        W35985  16.774   8.537   3.454 -0.2065  0.1203  0.1439
20517W        W35986  15.894  10.871   0.209 -0.3140 -0.1473 -0.0295
20518W        W35987  11.648   7.792  15.076  0.2059  0.0796 -0.0119
20519W        W35988  10.838  13.908  14.440  0.1254  0.0558 -0.1025
20520W        W35989  11.288   3.187  11.818  0.0352 -0.1468 -0.0166
20521W        W35990   0.216  10.164  12.644  0.1741 -0.0205  0.1326
20522W        W35991  10.591   7.883  16.624 -0.0796 -0.2161  0.1220
20523W        W35992   2.731   2.950   1.210 -0.0823  0.1106  0.2619
20524W        W35993  17.041  14.184  14.046  0.0967  0.0350 -0.1907
20525W        W35994  13.611   3.452   0.764 -0.3305  0.2752  0.2785
20526W        W35995   1.606  10.005   3.518 -0.4417  0.3189 -0.2924
20527W        W35996  17.264   7.683   0.415 -0.1676 -0.2508  0.0828
20528W        W35997  10.533   1.893   1.946  0.2049 -0.2166  0.2394
20529W        W35998   0.373  10.957  13.381  0.0322  0.4345  0.0935
20530W        W35999   1.372   7.619  14.777  0.2401 -0.1622  0.0635
20531W        W36000   0.370   7.871  13.736 -0.1349 -0.0200 -0.2907
20532W        W36001  16.702   4.351  11.189 -0.0360  0.0260 -0.0719
20533W        W36002  11.892  10.995   1.019  0.1014 -0.1944  0.2273
20534W        W36003   9.754   9.423  14.626  0.1693  0.0571  0.3968
20535W        W36004  14.394  16.550   5.774 -0.2626 -0.0424  0.0765
20536W        W36005  16.335  15.563   0.359  0.0789  0.0612 -0.2555
20537W        W36006   3.035  13.647  15.521 -0.1062  0.0230 -0.1756
20538W        W36007  12.061   4.506   2.432  0.3248 -0.1072 -0.0143
20539W        W36008   9.043  12.090   2.126 -0.1742  0.1568 -0.0734
20540W        W36009  12.397   8.585  13.322  0.1245  0.1262  0.0107
20541W        W36010  11.909  10.846  16.444 -0.1364 -0.0041  0.3762
20542W        W36011   5.674  13.321   5.271 -0.0789  0.0622 -0.0668
20543W        W36012  13.716   1.209  16.464  0.0014 -0.0334  0.0471
20544W        W36013   6.668   8.790   3.999 -0.1392  0.3379  0.0612
20545W        W36014   5.194   1.961  13.940 -0.1645  0.3004 -0.2380
20546W        W36015   5.385  12.296   2.241  0.1748  0.2186 -0.3663
20547W        W36016  15.158  14.860   2.990  0.2053 -0.0837  0.2638
20548W        W36017   6.995   0.501  14.889 -0.0889 -0.1945  0.1842
20549W        W36018  13.320  14.045   4.009  0.2440  0.0202 -0.0850
20550W        W36019  11.884   2.612   1.615 -0.0693 -0.1130 -0.1451
20551W        W36020  10.212   0.450   1.461  0.0273  0.2009  0.2424
20552W        W36021   3.957   9.086  15.832  0.0665 -0.0541 -0.1332
20553W        W36022  13.708  16.604  15.971 -0.1553  0.1263  0.1226
20554W        W36023  10.623   3.602  16.520  0.1836 -0.0976  0.0579
20555W        W36024  17.772  14.160   4.596 -0.0194  0.3504  0.0586
20556W        W36025   4.758   9.860   4.616 -0.1966 -0.0775 -0.0547
20557W        W36026   5.783  13.530   2.374 -0.0855  0.0953  0.2862
20558W        W36027   6.002  10.575  12.509  0.1679 -0.1823  0.0573
20559W        W36028  13.590  13.347   1.386  0.0790  0.0898 -0.1202
20560W        W36029   6.811  12.929  15.338 -0.1203  0.1470  0.1785
20561W        W36030  13.929   5.963  15.907 -0.1705 -0.0198  0.0786
20562W        W36031   9.576   3.820  14.009 -0.1943 -0.0231  0.4427
20563W        W36032  10.665  15.254  14.341 -0.0717 -0.0943 -0.1412
20564W        W36033   7.805  10.736  16.113 -0.1031 -0.0567  0.1709
20565W        W36034   1.131   2.189   2.857  0.2544  0.0700  0.2435
20566W        W36035   0.873  17.612   5.601 -0.0407  0.0560  0.1043
20567W        W36036   1.087  12.562   3.195  0.2418  0.0841  0.0312
20568W        W36037   2.957  10.713  13.925  0.0708 -0.1993 -0.2976
20569W        W36038   6.967  13.439   0.015 -0.0546 -0.0294  0.1534
20570W        W36039   2.867   7.484  13.000  0.3066 -0.1465 -0.3597
20571W        W36040  15.660   1.090   3.495 -0.0942 -0.0688 -0.2189
20572W        W36041  11.320   5.567  12.309  0.2001 -0.1165 -0.1352
20573W        W36042   0.878   9.501  16.310  0.0336  0.0723 -0.2237
20574W        W36043   5.382   8.189  13.103 -0.1196  0.1413  0.0002
20575W        W36044   1.192   8.554   0.698  0.3093 -0.0350  0.1921
20576W        W36045  13.160  17.687   0.418 -0.1917 -0.3882  0.0602
20577W        W36046   0.714   9.160  11.980  0.1518  0.0649  0.3945
20578W        W36047  12.086  15.918   2.297  0.1146  0.1190 -0.1650
20579W        W36048  15.382  13.773  14.328 -0.0150 -0.0125 -0.1753
20580W        W36049  10.759  16.065  14.218  0.0503 -0.0793 -0.1469
20581W        W36050   6.606  13.591  14.645  0.3665 -0.0481 -0.0896
20582W        W36051   0.180  10.156  14.668  0.1294 -0.0260 -0.0718
20583W        W36052   9.464   1.785   0.368  0.1312  0.0920  0.2850
20584W        W36053  13.206  17.336  14.162  0.0091  0.1344  0.1264
20585W        W36054  12.771   3.439  16.501 -0.0816 -0.0408  0.1357
20586W        W36055   6.853  14.440   0.478  0.0892  0.2054  0.1428
20587W        W36056   5.450   9.912  12.186  0.0095  0.1638  0.0803
20588W        W36057   1.370   1.631  15.717  0.0761 -0.2143 -0.3019
20589W        W36058   9.336   4.279  11.211  0.1980 -0.1189  0.0505
20590W        W36059  17.405   3.813   3.099 -0.0957  0.0797 -0.0136
20591W        W36060   2.974  13.217  14.212  0.1343  0.0426 -0.0825
20592W        W36061  11.668   9.177   0.920 -0.3803 -0.1090 -0.4250
20593W        W36062   4.102  13.093   5.056  0.2328  0.2333 -0.1494
20594W        W36063  13.215  15.010   4.412 -0.2670  0.0196  0.0405
20595W        W36064   4.639   7.237   1.632  0.0424 -0.2781 -0.0413
20596W        W36065  13.362   4.811   4.705 -0.2525  0.4559  0.1256
20597W        W36066  17.310   9.700   2.096  0.0868  0.0463 -0.5266
20598W        W36067  11.207   6.193   3.992 -0.1070 -0.1692  0.1232
20599W        W36068   9.186  15.485   2.356 -0.0222 -0.1044  0.0100
20600W        W36069  17.509  13.535   5.432 -0.0518 -0.0270  0.0213
20601W        W36070  16.946   2.752  12.204 -0.2267 -0.0685 -0.0029
20602W        W36071   4.594   2.938   2.633  0.1885 -0.1583  0.1996
20603W        W36072  12.879   2.037  12.619 -0.1083 -0.1778  0.0651
20604W        W36073   2.867  16.968  12.637 -0.2709  0.0169  0.2094
20605W        W36074  16.605  13.412  15.497 -0.1738 -0.1568 -0.2055
20606W        W36075  14.963   4.538  14.077  0.4007  0.0125 -0.0369
20607W        W36076   2.478  16.140   1.804 -0.4033  0.0127  0.0143
20608W        W36077  13.682  15.922  12.863  0.0512  0.1013 -0.1403
20609W        W36078   7.942   2.902  11.616  0.1013  0.0095  0.0826
20610W        W36079   5.394  10.258  16.421  0.0638  0.1267 -0.1950
20611W        W36080  11.785   0.744  11.967  0.0162  0.0233  0.1319
20612W        W36081  12.376   9.487   1.459 -0.2325  0.1803 -0.0508
20613W        W36082  17.111   2.753   0.694  0.2458 -0.0308 -0.0367
20614W        W36083   5.106  16.831   5.250 -0.0343  0.0478 -0.4370
20615W        W36084   9.454  17.524  12.532 -0.1085 -0.0634  0.0883
20616W        W36085   8.239   8.625  16.070 -0.2538  0.0720 -0.2346
20617W        W36086  11.534  11.540   4.088 -0.2461  0.0860  0.1828
20618W        W36087   0.202  15.703   5.717 -0.2161 -0.0165 -0.1351
20619W        W36088   0.764   6.675   0.656 -0.0849 -0.2332  0.0186
20620W        W36089  13.490  15.349   5.418  0.1588 -0.3151  0.2099
20621W        W36090  16.211  17.493   5.847  0.2568  0.0494  0.2099
20622W        W36091   6.210  17.154  14.958 -0.1580 -0.0564  0.4287
20623W        W36092   1.982  13.173  12.712 -0.0332 -0.2434 -0.1987
20624W        W36093   0.953  17.319  11.999  0.1778  0.1296 -0.1609
20625W        W36094  13.409   0.753  15.016  0.2484 -0.1783 -0.2351
20626W        W36095   3.897  16.486  13.576  0.0377  0.1092 -0.0984
20627W        W36096   8.836   8.906  14.821 -0.0221  0.1814 -0.3086
20628W        W36097   2.731  10.667  11.071  0.1003  0.0231 -0.3134
20629W        W36098  17.626   4.792  14.152 -0.0279  0.3366 -0.0901
20630W        W36099   2.854   7.657  14.543  0.0637 -0.3990 -0.0753
20631W        W36100   2.725  13.711   3.439 -0.1127 -0.0866 -0.3829
20632W        W36101   0.272  13.698  12.839 -0.2012  0.0149  0.0721
20633W        W36102   6.958  10.248   2.937 -0.0359  0.0411  0.0891
20634W        W36103   9.829  15.245  14.783 -0.0378 -0.0675  0.0476
20635W        W36104   8.019  11.376  12.567  0.1131  0.1763  0.2541
20636W        W36105   3.116  17.370   1.196  0.0399  0.0382 -0.2472
20637W        W36106   7.248   4.669   5.086 -0.2952  0.2169 -0.2981
20638W        W36107   1.931   2.748   5.363  0.2191 -0.0944  0.3051
20639W        W36108   6.608  17.728  11.895 -0.2092 -0.2737 -0.0207
20640W        W36109   8.560   0.338  13.066  0.1645 -0.1158  0.1334
20641W        W36110  12.424  15.335  11.951 -0.2367  0.2153  0.0450
20642W        W36111   3.138  11.088  16.547 -0.0055 -0.1166  0.1059
20643W        W36112   4.431   1.276  11.888  0.2355  0.0614  0.1647
20644W        W36113  13.882   5.232   5.408  0.2659  0.0699 -0.1407
20645W        W36114   8.596  12.007   5.569 -0.0340 -0.3114  0.1715
20646W        W36115  13.820  15.708   2.521  0.1708  0.1785 -0.0488
20647W        W36116   4.887   6.565  16.006  0.1077 -0.0823  0.2920
20648W        W36117   0.052  13.627   3.028 -0.2464 -0.0666 -0.1593
20649W        W36118   2.994   9.101  14.896 -0.0601 -0.0124  0.0833
20650W        W36119  16.477   7.230  10.877 -0.1812  0.0290  0.0363
20651W        W36120  11.948   0.318   3.302 -0.2112  0.2201 -0.3852
20652W        W36121  17.425   1.637   5.320 -0.3008  0.0572  0.0163
20653W        W36122  13.121   1.467   0.231  0.0273 -0.1577  0.1082
20654W        W36123   2.787   2.006   0.186 -0.3059  0.2862  0.0173
20655W        W36124   5.103   2.112   1.782  0.2377  0.0687 -0.0785
20656W        W36125  16.925  13.551   0.396 -0.1572  0.0911  0.0661
20657W        W36126  14.229  17.378  13.694  0.1068  0.5425  0.2458
20658W        W36127   7.945   5.609  14.336 -0.2190 -0.1904 -0.1247
20659W        W36128  12.765  10.387  16.766  0.0960 -0.0030  0.0773
20660W        W36129  13.387  10.181  11.987  0.1793  0.0514  0.0049
20661W        W36130   7.318  14.417   4.831 -0.2274 -0.1694  0.1005
20662W        W36131  11.326   5.290  15.408  0.3104  0.0577  0.0338
20663W        W36132  15.578   8.644  15.455  0.0217 -0.1427  0.1416
20664W        W36133   8.598   8.435  12.024  0.0107 -0.3183  0.0481
20665W        W36134   5.545  17.352   2.108  0.1799 -0.0953  0.0133
20666W        W36135   3.556  16.628  14.954 -0.0422  0.1315  0.4429
20667W        W36136  17.277   1.759   2.995  0.1670 -0.0837  0.1757
20668W        W36137  12.795  16.717   6.591 -0.0350 -0.0587 -0.0076
20669W        W36138  14.208   8.879   2.788 -0.1380 -0.1582  0.1328
20670W        W36139   7.977   5.048   4.105  0.3476  0.0419 -0.0429
20671W        W36140   0.511  16.165  11.845  0.0512 -0.0185 -0.2079
20672W        W36141   3.316  16.270   6.152 -0.1201 -0.2272 -0.2325
20673W        W36142   5.628   6.897  15.400 -0.3329  0.0345  0.0571
20674W        W36143   6.357  16.636  14.112  0.2998  0.0523 -0.1200
20675W        W36144   7.655   5.102  16.240  0.0596  0.1794  0.1568
20676W        W36145   2.884   6.912   5.716  0.0946  0.0045  0.1799
20677W        W36146  16.523  15.934  15.553  0.1420  0.0893  0.0798
20678W        W36147  16.579   6.347   1.930  0.0942  0.1056  0.1159
20679W        W36148   1.127  15.367   3.172 -0.1382 -0.2669 -0.0998
20680W        W36149  16.538   0.799   2.545  0.1882 -0.0150 -0.1795
20681W        W36150  12.256  16.198  16.276  0.1641 -0.0049 -0.0740
20682W        W36151  10.885   9.807   3.383 -0.2821 -0.0822 -0.2299
20683W        W36152  10.570   9.312  12.837  0.0714 -0.0748  0.0885
20684W        W36153  13.158  11.338  11.661 -0.0687  0.1022 -0.0932
20685W        W36154   3.437  13.282   1.766 -0.1113  0.2694 -0.0162
20686W        W36155   6.461  15.268  14.345  0.0717 -0.1918 -0.0836
20687W        W36156   1.241  16.285  12.195 -0.0189  0.2480 -0.1239
20688W        W36157  16.195  15.551   0.878 -0.2336  0.0562  0.0682
20689W        W36158   3.434  12.379   2.520 -0.1494  0.2254 -0.0700
20690W        W36159   5.870   4.286  11.713  0.1560  0.0179  0.0213
20691W        W36160   8.288  13.437   1.168 -0.1555  0.0018 -0.0702
20692W        W36161  10.470   1.934   0.263  0.0277  0.2856  0.0967
20693W        W36162   5.154   6.923  12.513 -0.2041  0.0137  0.0461
20694W        W36163   7.511  13.894  13.578  0.0142  0.2951 -0.0422
20695W        W36164  11.137  16.865  11.493  0.1321  0.2746  0.2989
20696W        W36165  15.935  14.332   2.734 -0.0296 -0.0923 -0.0258
20697W        W36166  15.147  10.703  16.100 -0.0430  0.0192  0.0397
20698W        W36167   8.321   6.788  13.692  0.0114 -0.1688  0.0629
20699W        W36168  15.317  11.371   1.167  0.2269 -0.0045 -0.4438
20700W        W36169  14.395   1.534  12.864 -0.1972  0.0032  0.1549
20701W        W36170  17.355   7.818   0.975 -0.2335 -0.3059  0.0221
20702W        W36171  11.799  10.485  15.117  0.2013  0.1151  0.1447
20703W        W36172  11.736   2.935   5.373 -0.1001 -0.1448  0.0964
20704W        W36173   8.871   6.196  12.035  0.0349  0.5059  0.2926
20705W        W36174  13.220  15.810  15.572 -0.0010 -0.2488  0.0008
20706W        W36175  15.301  13.901  15.891 -0.3015 -0.0819 -0.2198
20707W        W36176  13.543  10.272   1.134  0.0970  0.0933  0.0923
20708W        W36177  14.324   6.835  12.674 -0.0398  0.0412 -0.4953
20709W        W36178   3.977  14.079  15.010 -0.1958  0.4142  0.0013
20710W        W36179   1.409   5.075   0.666 -0.0729 -0.0086  0.1017
20711W        W36180   2.497   5.256   4.881  0.0967  0.0690 -0.1138
20712W        W36181   0.574   3.621   5.727 -0.2640 -0.2982  0.0350
20713W        W36182   7.345   3.713  12.790 -0.2681 -0.0381  0.0111
20714W        W36183   8.878   7.867  12.001 -0.3118  0.1406  0.0618
20715W        W36184   5.625   1.907   5.251  0.0108 -0.4845 -0.1309
20716W        W36185   0.810   4.380   0.167 -0.0157  0.1789  0.0025
20717W        W36186   7.654   2.108  13.821 -0.0446  0.1217 -0.2865
20718W        W36187  16.214   4.547   0.231 -0.0043  0.0304 -0.0201
20719W        W36188   1.196  17.678  15.495 -0.2687  0.0122 -0.0754
20720W        W36189   4.106  14.385   3.111 -0.2082 -0.3370 -0.1275
20721W        W36190   2.681  10.691  13.094  0.0835 -0.0066  0.0858
20722W        W36191  13.018   3.033  14.596  0.3010 -0.3033  0.1331
20723W        W36192   4.203   3.345   1.323  0.2471 -0.0483  0.1271
20724W        W36193   6.782  12.796   5.225 -0.4115 -0.0133 -0.3468
20725W        W36194   1.697  16.075  14.871 -0.2623 -0.0186  0.0209
20726W        W36195   9.321   1.992   2.582 -0.1413  0.0402  0.0590
20727W        W36196   3.746  11.240   3.904  0.0574  0.1492  0.2595
20728W        W36197   1.951  12.174   0.905 -0.0281 -0.0859 -0.0158
20729W        W36198  17.676  12.405  12.293 -0.2148 -0.0905 -0.0719
20730W        W36199   4.298   9.061  10.730 -0.0816 -0.3647 -0.0140
20731W        W36200  15.559  14.101  13.578  0.3528 -0.2837  0.0425
20732W        W36201  14.896   2.055  13.167 -0.2511 -0.2747 -0.2842
20733W        W36202   0.330  14.921  16.499 -0.1623  0.0047 -0.3937
20734W        W36203   5.857   0.456   3.292  0.1788 -0.2437 -0.3622
20735W        W36204   7.203   0.111   1.455 -0.0476 -0.3057 -0.2622
20736W        W36205   6.782   9.470   4.636  0.0020  0.0599  0.0047
20737W        W36206  17.449   6.105   3.830  0.2740  0.2060 -0.0182
20738W        W36207  14.870   0.024   1.023  0.1609 -0.0933  0.1956
20739W        W36208   9.316  17.401   6.122  0.0198  0.2482  0.0771
20740W        W36209   4.203   9.532   3.838 -0.0195 -0.1844 -0.1121
20741W        W36210   6.884   9.221   0.560  0.0230 -0.2240 -0.1107
20742W        W36211   8.897   4.302   6.441  0.1886 -0.0257  0.0329
20743W        W36212  14.781   3.518  14.773 -0.0811 -0.0533 -0.2124
20744W        W36213  15.228   7.216  13.651  0.2456 -0.1293  0.0425
20745W        W36214  12.549   4.289  16.487  0.1588 -0.0799  0.1088
20746W        W36215  12.950   6.682   0.650 -0.2319  0.1506  0.0828
20747W        W36216   7.214   2.902   5.600  0.0205  0.2256  0.0500
20748W        W36217  13.023   7.111  12.377  0.3639  0.0548  0.0908
20749W        W36218  17.148  17.127  13.784  0.0140  0.1879 -0.0462
20750W        W36219   1.190  17.536  14.998 -0.0178 -0.0923 -0.0015
20751W        W36220   1.780   0.631  11.726 -0.1758  0.1582  0.1379
20752W        W36221  17.749   8.473   3.396  0.2103  0.2857 -0.2867
20753W        W36222   9.170  13.317   6.164 -0.0423 -0.1680  0.0279
20754W        W36223   3.022   6.045   3.398  0.1136 -0.3005  0.1617
20755W        W36224  12.845   3.515   2.028  0.0614 -0.1259 -0.0961
20756W        W36225   2.061   0.926  15.152  0.0838  0.0352  0.0771
20757W        W36226   9.699   2.399   2.495 -0.1188  0.2512  0.0148
20758W        W36227  11.583  16.236   1.035 -0.1501 -0.0140 -0.1917
20759W        W36228  15.616   1.069   5.252 -0.3598 -0.0412 -0.0548
20760W        W36229   3.136  16.044  16.179  0.1356  0.0346 -0.0251
20761W        W36230   4.578   6.945   4.453  0.0981 -0.2384  0.1423
20762W        W36231  17.211   5.432  13.194  0.0220 -0.0018 -0.0794
20763W        W36232   3.654  10.925  15.389 -0.0067  0.1739 -0.0230
20764W        W36233  12.571   5.095  15.851  0.0014  0.1874 -0.2139
20765W        W36234   6.486   9.085   4.853 -0.0176 -0.2096 -0.0225
20766W        W36235  10.034  14.158  16.042  0.0176  0.4638  0.0049
20767W        W36236   3.640  17.748  15.115 -0.1724 -0.1044  0.1121
20768W        W36237   1.760   9.173  14.659  0.1528 -0.1313 -0.1570
20769W        W36238   9.415  14.930   5.555 -0.0293  0.1572  0.1432
20770W        W36239   2.409  16.068  12.885 -0.0383  0.1377  0.1162
20771W        W36240   0.789  12.800   0.170  0.0125 -0.0424 -0.1892
20772W        W36241   2.745   7.238  11.616 -0.1729  0.0667 -0.1601
20773W        W36242  10.839   5.828  13.206  0.1324  0.1398  0.1198
20774W        W36243  10.833   0.962   1.724 -0.0479 -0.0534  0.0638
20775W        W36244   4.094   7.551   2.244 -0.0714  0.3112  0.1593
20776W        W36245  11.925  14.974   5.470 -0.0177  0.2262  0.2625
20777W        W36246  16.844  12.444  11.716  0.2547  0.0512 -0.1666
20778W        W36247  10.369  11.555  14.951  0.0054 -0.0157  0.1557
20779W        W36248   5.205  16.192   2.920  0.2779 -0.2841 -0.2082
20780W        W36249   8.831   1.815   2.613  0.1875  0.1148  0.1191
20781W        W36250  12.572  13.868   3.359 -0.0392 -0.2351  0.0896
20782W        W36251   5.570   2.886   3.097  0.0172  0.0197  0.1493
20783W        W36252   0.311   3.936  11.363 -0.0813 -0.1665  0.0456
20784W        W36253   1.636   7.897   1.901  0.0984  0.3226  0.1665
20785W        W36254   2.274   4.169   3.805  0.0722  0.0270 -0.1667
20786W        W36255   0.428   7.480   3.686  0.2037  0.1266  0.1208
20787W        W36256  10.023  14.004   5.984 -0.1482 -0.1212 -0.2517
20788W        W36257  10.752   9.512   2.410 -0.1849 -0.0279 -0.0252
20789W        W36258   9.231  16.056   4.085 -0.2923 -0.2511 -0.0990
20790W        W36259   7.279  16.108   5.059 -0.2570 -0.1170 -0.0988
20791W        W36260  11.607  12.140   4.071  0.1574 -0.3365  0.0980
20792W        W36261   8.590   2.991   1.199 -0.2646 -0.1280 -0.0390
20793W        W36262   0.318  13.960  13.390 -0.0629  0.2247  0.2645
20794W        W36263  11.854   6.355   3.090 -0.0991 -0.0350  0.3013
20795W        W36264   8.495   3.901  14.295 -0.1334 -0.0850 -0.1016
20796W        W36265  10.777   4.801   4.181 -0.1418  0.1763  0.0339
20797W        W36266  16.517   7.135   3.455 -0.1089  0.0438  0.1134
20798W        W36267  13.774  11.902   1.967 -0.0923  0.3734  0.0734
20799W        W36268   1.943  16.727   4.465  0.1331  0.1055 -0.1920
20800W        W36269  16.358  11.971   2.940 -0.1898  0.0511  0.0045
20801W        W36270   5.405  15.117  14.629  0.2813  0.1012  0.2844
20802W        W36271   5.611   6.453  13.340  0.0344  0.1382  0.2829
20803W        W36272   5.002  12.916  16.012  0.3468 -0.2839 -0.1373
20804W        W36273   0.333   1.546  15.208 -0.0717 -0.0337  0.2095
20805W        W36274  11.367   6.050  16.764 -0.0161  0.0456  0.3061
20806W        W36275   4.661   5.591   1.843  0.1018 -0.2776  0.3800
20807W        W36276  15.548  13.639  13.283 -0.0484  0.0209  0.2467
20808W        W36277   8.159  17.357  15.646  0.0636 -0.0617 -0.4073
20809W        W36278   0.350  12.165  16.348  0.1719 -0.1497 -0.2524
20810W        W36279  16.541  17.685  15.066 -0.1221  0.3754  0.1863
20811W        W36280   8.125  12.913   3.771  0.0639 -0.1310  0.4420
20812W        W36281  10.510   1.894   4.229 -0.0042  0.3134  0.0403
20813W        W36282  10.081  17.143   2.393  0.2079 -0.1424  0.0181
20814W        W36283   3.526  14.298  12.124 -0.2913  0.0092 -0.1381
20815W        W36284   4.529   5.434   0.118  0.1470 -0.2723  0.1760
20816W        W36285   4.457   9.929  11.068  0.0309 -0.0728  0.0792
20817W        W36286   2.681  15.211   4.155  0.2523  0.0522 -0.1951
20818W        W36287  11.531  16.114  15.144 -0.0436  0.2123  0.0017
20819W        W36288  13.195  12.131   1.745  0.3297 -0.2074  0.1111
20820W        W36289   1.051   0.570   2.649 -0.1329  0.1633 -0.1226
20821W        W36290   6.232   5.059  16.116 -0.0548 -0.2330  0.0102
20822W        W36291  12.187   0.994  11.142 -0.0091  0.3764 -0.0878
20823W        W36292  17.654  13.854   3.615  0.1662 -0.0112  0.0345
20824W        W36293   2.974  11.265  11.769  0.0277  0.0760 -0.1786
20825W        W36294   0.981   8.665   1.780 -0.2094  0.0006  0.3948
20826W        W36295   1.665  10.331   3.893 -0.1678  0.2418  0.0889
20827W        W36296   3.128   0.162   0.940 -0.1067 -0.0843 -0.0600
20828W        W36297  12.050  16.100  15.156 -0.1014 -0.0822  0.2370
20829W        W36298   8.800   7.132  11.916  0.2613  0.1253 -0.2503
20830W        W36299  11.667  13.104   4.981  0.0403  0.0425  0.0983
20831W        W36300  12.405   9.925  15.709  0.0713 -0.0475  0.0586
20832W        W36301   7.129  11.920  15.558 -0.0493  0.2177  0.0053
20833W        W36302  13.758   0.792   4.368  0.0703 -0.0092  0.1423
20834W        W36303  13.726  12.486  15.600  0.1925  0.3867  0.1565
20835W        W36304   1.625   9.266  15.919  0.2451  0.0310 -0.0487
20836W        W36305   9.319   6.941   5.816  0.3719 -0.3932 -0.0544
20837W        W36306   6.324  15.398  12.466  0.1776 -0.0478 -0.3104
20838W        W36307   0.108   7.586  13.446  0.0104 -0.4637 -0.2999
20839W        W36308  14.096   0.947   3.934  0.0829  0.0633  0.0780
20840W        W36309   9.504  10.084  10.816  0.1466 -0.0653  0.0684
20841W        W36310   2.271   7.091   1.621 -0.0230 -0.3434 -0.1999
20842W        W36311  14.386  16.453   4.479 -0.4640 -0.1229 -0.1640
20843W        W36312  13.696   8.805   3.221 -0.0778 -0.1119 -0.0553
20844W        W36313   8.296   4.922  14.629  0.0925 -0.1918 -0.1617
20845W        W36314  16.682   6.047   3.453 -0.1969 -0.0709 -0.0191
20846W        W36315  14.260  16.100  11.914 -0.1486  0.2303  0.0291
20847W        W36316  17.061  16.128  14.129  0.0008  0.2161  0.1104
20848W        W36317   4.994  11.478  11.922  0.2885  0.0741 -0.3582
20849W        W36318   3.736   6.712  15.103 -0.0675  0.1677 -0.4664
20850W        W36319  13.593  10.039   0.125  0.0392 -0.2143  0.1261
20851W        W36320   0.689   3.329   3.003  0.1231 -0.0111  0.1565
20852W        W36321   3.062   3.856  11.428 -0.0679 -0.0159 -0.1218
20853W        W36322  11.289   8.987   4.161 -0.1140  0.0379  0.0097
20854W        W36323   8.390   1.326  16.322  0.1616 -0.1173  0.2304
20855W        W36324   5.249   0.124  14.445  0.0109 -0.0888  0.0975
20856W        W36325   4.036   1.590   0.734 -0.0540 -0.0139  0.0037
20857W        W36326   9.458   0.241  12.582  0.4855  0.1492  0.1226
20858W        W36327   7.735   4.200  15.912  0.1875 -0.1455 -0.2442
20859W        W36328   2.256   3.219   1.004 -0.0517  0.1011  0.1948
20860W        W36329   5.553  10.841   1.821  0.0116 -0.0577 -0.0891
20861W        W36330  12.710   6.801   5.308 -0.0113 -0.3921 -0.1635
20862W        W36331   5.980   0.074  13.305  0.0587 -0.0244 -0.1180
20863W        W36332   0.332  13.738   3.475 -0.0085  0.0048 -0.1978
20864W        W36333  14.092   5.879  11.356 -0.2445 -0.0054  0.1048
20865W        W36334   5.085   5.708   4.966 -0.4390 -0.3709  0.0012
20866W        W36335   7.769   9.338   2.365  0.2395 -0.0381  0.1383
20867W        W36336  14.443   0.874  11.825 -0.1463  0.2013 -0.4231
20868W        W36337   3.792   3.948  12.049  0.4373  0.0278 -0.4286
20869W        W36338   5.031   9.720  15.239  0.0641 -0.1308 -0.2128
20870W        W36339   8.543  14.977   4.840 -0.1345  0.1356  0.1839
20871W        W36340   6.473   8.485   3.400  0.1676  0.1647 -0.0533
20872W        W36341  12.229   2.755   2.500  0.0518 -0.0582  0.3656
20873W        W36342  13.775   8.429   1.091  0.1233 -0.1866 -0.1632
20874W        W36343  16.932   2.461  11.193 -0.2807  0.1727  0.2683
20875W        W36344   2.813  10.367   1.750 -0.1219 -0.2504  0.1700
20876W        W36345  11.212   4.321  16.012 -0.0569  0.1379  0.0411
20877W        W36346   2.132   7.903   3.795  0.5043 -0.0782 -0.2068
20878W        W36347   8.219   7.877   2.945 -0.1936 -0.0819  0.3429
20879W        W36348   9.950   1.707  14.512 -0.0125  0.3558  0.0041
20880W        W36349   6.051   7.807  11.827  0.0472  0.0524 -0.1203
20881W        W36350  12.097   0.064  12.387  0.0491  0.0568 -0.0284
20882W        W36351   6.779   1.667  14.158 -0.1636  0.2923 -0.2099
20883W        W36352   6.273  10.466  16.514 -0.0938 -0.2173 -0.0229
20884W        W36353   1.266   8.217  10.926 -0.0551 -0.2201 -0.0703
20885W        W36354  14.269   2.591   0.066 -0.0063 -0.1844  0.0083
20886W        W36355  12.890  17.645  11.133  0.2472  0.1894  0.0651
20887W        W36356   6.342  15.249   1.596 -0.1928 -0.0090  0.1521
20888W        W36357  17.140  12.060  11.554 -0.0287  0.0979  0.0952
20889W        W36358   2.020   8.096   4.521  0.0262 -0.0492 -0.0424
20890W        W36359   8.171  10.061   3.707  0.1487 -0.1214  0.1599
20891W        W36360   0.715  15.903  14.300 -0.1407 -0.0417  0.0312
20892W        W36361  15.909  13.040  11.384 -0.0033  0.1667 -0.0590
20893W        W36362   6.843   9.909  13.859 -0.0678  0.3037 -0.0449
20894W        W36363   1.099   9.023   2.126  0.2814 -0.2203 -0.0117
20895W        W36364  15.690  17.145  11.058 -0.1810  0.0984 -0.0535
20896W        W36365  15.770  11.583  11.786  0.0254 -0.0371 -0.4422
20897W        W36366  12.263   6.020  10.777 -0.1221 -0.0182  0.1292
20898W        W36367  16.096  15.738  11.043 -0.1265 -0.2350 -0.2565
20899W        W36368   5.883   5.220  15.627 -0.3019 -0.3749 -0.1342
20900W        W36369  10.367  12.786  13.035  0.1767  0.0249  0.3049
20901W        W36370  10.789   3.576   0.262  0.1344  0.0394 -0.0467
20902W        W36371   1.746   9.914  10.856  0.0836  0.0628  0.1163
20903W        W36372   8.924   5.599   3.388 -0.1661  0.0955 -0.0657
20904W        W36373  11.652  10.176  13.062  0.1317  0.0510  0.1084
20905W        W36374  16.381  16.698  12.981 -0.0281  0.0140  0.2609
20906W        W36375   8.484   6.817   5.498 -0.1210  0.0743  0.0128
20907W        W36376   0.102  11.525   0.781 -0.1050 -0.0775  0.1979
20908W        W36377  11.321  11.384   0.459 -0.0655 -0.2796  0.1114
20909W        W36378   8.758  16.719  14.613 -0.0205  0.0685  0.0336
20910W        W36379  10.181   4.335   5.815 -0.0046 -0.1311 -0.0123
20911W        W36380  17.160   6.174   2.505 -0.1747 -0.0756 -0.1417
20912W        W36381   3.586   2.117  14.906  0.0423 -0.0684 -0.2495
20913W        W36382  10.472   0.215  16.115  0.0253 -0.5049 -0.0349
20914W        W36383   7.345  13.239  16.515  0.2705  0.0443 -0.0896
20915W        W36384   9.742  12.808  15.771  0.1067 -0.2069 -0.0526
20916W        W36385  11.115  12.445  14.131 -0.1793  0.1559 -0.2064
20917W        W36386   2.999   2.429   2.990  0.0528  0.0357 -0.3267
20918W        W36387   3.919   8.423   1.615  0.0688  0.1482 -0.0309
20919W        W36388   9.840   4.891   5.223 -0.1004  0.0917  0.1649
20920W        W36389   0.515   0.292   4.149 -0.3450  0.0604  0.0995
20921W        W36390  11.819   7.218   0.241  0.0537  0.3197  0.1933
20922W        W36391   9.418  14.744  16.730  0.3809 -0.0405  0.0769
20923W        W36392   4.278   2.884   5.223 -0.0404  0.3712 -0.0373
20924W        W36393   3.730   7.315  16.110  0.0113 -0.0869  0.0500
20925W        W36394   8.856  15.164  14.581 -0.0286  0.1644 -0.1798
20926W        W36395   4.853  14.243  11.614 -0.0047  0.0898  0.1697
20927W        W36396   8.112   7.394  14.661  0.0352  0.1368  0.0015
20928W        W36397  16.863   8.560  13.263  0.0869  0.0362 -0.1175
20929W        W36398  16.625   5.636   1.873  0.2813  0.1010  0.2910
20930W        W36399  14.416   8.305  11.650  0.1996  0.1316 -0.1784
20931W        W36400   6.824   6.699  12.508  0.1673 -0.1686  0.1402
20932W        W36401   3.687   4.619   3.943 -0.1086 -0.1867  0.1164
20933W        W36402   8.398  12.033   3.834  0.0834  0.0354  0.1513
20934W        W36403   4.026  17.106   3.596 -0.2339 -0.0185  0.1221
20935W        W36404   8.373  10.660   3.622 -0.0961 -0.2364 -0.0744
20936W        W36405  16.165   8.915   4.588 -0.3461  0.2342 -0.0948
20937W        W36406   8.700   3.857   1.708 -0.0595  0.4494  0.0926
20938W        W36407   5.815   0.549   4.252 -0.0038  0.0028 -0.0698
20939W        W36408  14.966   2.229   3.738  0.2579  0.1760  0.1169
20940W        W36409   3.498   8.245   5.022  0.0993  0.0625  0.5054
20941W        W36410  11.879   3.241  13.119 -0.0580 -0.2968 -0.0234
20942W        W36411   0.237  10.634   3.542  0.2624 -0.0319 -0.0265
20943W        W36412   8.008   3.433  11.178 -0.2083 -0.2168  0.1879
20944W        W36413   3.505   7.387   2.522  0.2266  0.0365 -0.0712
20945W        W36414   8.719  15.394  15.839  0.1218  0.0469 -0.1566
20946W        W36415   8.078   1.209   1.316  0.3690  0.3092 -0.1606
20947W        W36416   4.866   5.944  12.316  0.0186 -0.1638  0.3704
20948W        W36417  16.416   1.983   2.860 -0.2048  0.0699  0.0717
20949W        W36418   7.710   6.766  13.198 -0.2122  0.1962 -0.2120
20950W        W36419  10.681   6.984   2.173  0.2779  0.2402 -0.1944
20951W        W36420  11.016  11.116  15.948 -0.0472  0.1771 -0.3075
20952W        W36421   6.865   6.838  11.887  0.1956 -0.1182  0.0003
20953W        W36422  11.501   9.612   0.420  0.1940 -0.0699 -0.1738
20954W        W36423   5.852   7.135  13.864  0.2892 -0.1486  0.0847
20955W        W36424   0.671   0.061  11.879  0.0913  0.0856  0.2293
20956W        W36425   0.280   6.620  16.584 -0.0917  0.1491 -0.3062
20957W        W36426  11.637   4.266   3.394  0.0378 -0.1167 -0.0032
20958W        W36427   6.029  10.638   2.054  0.1726 -0.1083 -0.1500
20959W        W36428   3.000   2.731  14.824  0.1474 -0.0852  0.1657
20960W        W36429  14.168   9.776   4.161 -0.4789 -0.2559 -0.0059
20961W        W36430   7.342   4.387   4.216 -0.1451  0.4222  0.1609
20962W        W36431  17.298   1.934  15.243  0.1214  0.2992 -0.0066
20963W        W36432  15.044   1.827   5.084 -0.0328  0.2082 -0.0222
20964W        W36433  14.108  14.538  12.217 -0.1781 -0.1574 -0.0094
20965W        W36434   0.698   5.682   5.214 -0.0714  0.1576 -0.1419
20966W        W36435   9.355   9.739  14.761  0.2308  0.0259  0.0927
20967W        W36436   8.364   8.276   3.734  0.0211 -0.1801  0.1612
20968W        W36437  13.170  16.780  15.563 -0.0850 -0.0795 -0.2145
20969W        W36438   0.138   7.584   2.549  0.1630  0.3000 -0.0279
20970W        W36439  10.183  17.281  16.123  0.0457 -0.2284 -0.1337
20971W        W36440   1.075  15.547  16.824 -0.1759  0.0879 -0.2891
20972W        W36441   4.607  16.432  14.886  0.3439 -0.3647 -0.2578
20973W        W36442  13.109   6.271   3.444  0.0079  0.0976 -0.4163
20974W        W36443   7.021  11.550   3.434 -0.0986  0.2325 -0.2794
20975W        W36444  15.930   3.443  16.270 -0.1218 -0.0221  0.1103
20976W        W36445   9.528   9.034   1.611  0.0905  0.0448  0.0311
20977W        W36446   7.332  14.683   2.925  0.1481 -0.2614 -0.0882
20978W        W36447   1.091  12.491   2.502  0.1121  0.1529 -0.0812
20979W        W36448  12.908   8.692  16.237 -0.2536  0.3687 -0.0796
20980W        W36449  12.018   9.721  12.174 -0.0950 -0.0837 -0.1628
20981W        W36450   3.646  15.562  13.183  0.1809  0.1939  0.2527
20982W        W36451   3.726   8.420  15.124  0.0784  0.0102 -0.0091
20983W        W36452   6.531  17.031   3.466  0.0324 -0.1183  0.0807
20984W        W36453   9.957   4.257   0.982  0.3623  0.2094  0.1773
20985W        W36454  16.081   5.564   1.991 -0.0711  0.0651 -0.2563
20986W        W36455   7.731   6.431  16.551  0.2235 -0.0203  0.1929
20987W        W36456  17.502   9.325  13.125 -0.1736 -0.0628  0.0157
20988W        W36457   5.754  12.654  11.832 -0.0484 -0.2126 -0.1687
20989W        W36458  15.100  14.852  12.586 -0.1280  0.1653  0.0691
20990W        W36459  13.605   7.871   2.754 -0.0149  0.3028  0.1070
20991W        W36460   4.325   8.705   1.480  0.1083  0.2192  0.1235
20992W        W36461  13.256  10.327   1.704 -0.0899 -0.3173  0.0009
20993W        W36462   8.043   6.804   2.182 -0.1060 -0.0690  0.1447
20994W        W36463   8.182   5.529   1.252 -0.4388  0.2336  0.0706
20995W        W36464   5.925  14.167  11.626 -0.1219  0.1564 -0.3096
20996W        W36465   5.304  15.669   5.892 -0.0883  0.4137 -0.1368
20997W        W36466   3.495   2.141   2.191 -0.3220 -0.4190 -0.2386
20998W        W36467  11.991   0.377   1.941  0.0251 -0.1960  0.6530
20999W        W36468   3.404  15.737  13.684 -0.1281  0.0129 -0.0602
21000W        W36469  12.115   4.157  12.917 -0.1096  0.1950 -0.0724
21001W        W36470   9.288   4.959   2.668  0.0132  0.2240  0.2135
21002W        W36471  14.345   6.807  16.603  0.0178 -0.1779 -0.2188
21003W        W36472   4.264   2.150  11.618 -0.3019  0.2662  0.1206
21004W        W36473  17.288   3.648  11.696  0.2631 -0.1588 -0.1081
21005W        W36474  15.604  12.300   1.322  0.0663  0.0479 -0.0194
21006W        W36475   2.932  15.848   5.390 -0.1507 -0.0532 -0.0137
21007W        W36476  17.588   8.275   0.923  0.1338  0.0694 -0.3031
21008W        W36477   8.479  13.161   2.778 -0.0918 -0.1702  0.1933
21009W        W36478   1.400  17.274   2.138  0.0412  0.1177 -0.0856
21010W        W36479  11.939   1.550  14.628  0.0460 -0.1274  0.2224
21011W        W36480   5.312   2.510  15.199  0.0720 -0.0414 -0.1441
21012W        W36481  16.694   7.056  12.744  0.0044  0.2682 -0.1433
21013W        W36482   9.502   1.806  12.740  0.0627 -0.1432  0.0010
21014W        W36483   3.423  11.775  14.612  0.2273 -0.1063 -0.1163
21015W        W36484   6.774   8.570   5.011  0.1129 -0.0225  0.1263
21016W        W36485   1.317   3.334  15.901 -0.0239  0.1403 -0.1725
21017W        W36486  15.364  10.320   5.273 -0.5080 -0.0325  0.0400
21018W        W36487  11.224   0.311  13.238 -0.2761  0.1709 -0.0035
21019W        W36488  15.299   7.744   0.887 -0.1561 -0.0793 -0.3737
21020W        W36489   4.324  11.600   4.600  0.2248  0.1104 -0.1649
21021W        W36490   8.295  12.224  16.640  0.2170  0.0840 -0.0328
21022W        W36491  12.417   7.544   3.615 -0.2678  0.3677  0.0659
21023W        W36492  15.696  14.956   4.836  0.0746  0.0789 -0.1030
21024W        W36493  12.070   4.974  16.219  0.1682 -0.0970  0.1049
21025W        W36494   0.975  14.478  16.371  0.2923  0.0885  0.1809
21026W        W36495   0.566   3.263  12.034  0.0038  0.2971  0.2416
21027W        W36496  14.153   5.574  16.062  0.1091  0.0011 -0.0072
21028W        W36497   6.176  10.592  12.943 -0.0356 -0.1571  0.0318
21029W        W36498  13.381   4.314  15.875 -0.0281 -0.2547  0.2640
21030W        W36499  10.990   9.003  12.964  0.0409 -0.1266  0.0589
21031W        W36500   5.985   2.845   1.383  0.1701  0.2727  0.1921
21032W        W36501   2.679   4.465   1.295 -0.1638  0.2114  0.0035
21033W        W36502   1.364   7.888   2.702 -0.0320  0.0637 -0.0225
21034W        W36503   5.384  10.719  16.494 -0.3797  0.1484 -0.3092
21035W        W36504   4.638  11.215   3.491  0.1851 -0.0140  0.0407
21036W        W36505  15.419   7.082  14.856  0.1354 -0.1860  0.0722
21037W        W36506   0.490  17.765  10.015 -0.0449  0.4001 -0.0597
21038W        W36507   6.528  11.522   4.120 -0.1537  0.0392  0.0517
21039W        W36508  12.651  10.205  14.027  0.2100  0.1608 -0.0702
21040W        W36509   0.747  10.853  12.074  0.3095 -0.1031  0.3462
21041W        W36510   0.102   1.045   1.138 -0.2385 -0.0797  0.3539
21042W        W36511   3.051   1.372   1.849 -0.0225  0.2350 -0.0719
21043W        W36512  15.040  11.620  14.744 -0.0185 -0.2283  0.0915
21044W        W36513  17.446   7.490  15.744 -0.0906  0.1574  0.0879
21045W        W36514   8.570   8.546   0.494 -0.4255 -0.1867 -0.0732
21046W        W36515   0.236  15.428  13.352  0.1029  0.1321  0.2381
21047W        W36516  16.422   9.312  11.389  0.0274 -0.0653  0.0985
21048W        W36517   6.824   8.622  11.135 -0.2184  0.0751  0.1628
21049W        W36518  11.039  12.575  12.077  0.3899  0.0388  0.1378
21050W        W36519   5.264   6.099  13.105  0.0881  0.0372  0.0357
21051W        W36520   2.129  17.662   0.377 -0.2506 -0.2828  0.1904
21052W        W36521  17.303   0.496  12.691 -0.0641  0.2456  0.0035
21053W        W36522   1.634  10.165   2.144  0.0069  0.0326 -0.0432
21054W        W36523   1.131  17.688  13.360 -0.0615 -0.2992 -0.0134
21055W        W36524   7.137   0.007  13.478 -0.3079  0.0738 -0.0664
21056W        W36525  10.017  16.789  14.979  0.1233  0.0159 -0.0293
21057W        W36526  14.076  10.601  11.355 -0.3827  0.1121 -0.0513
21058W        W36527   0.772  10.603  11.233 -0.1048  0.0157  0.0362
21059W        W36528  17.456   6.275   2.887  0.0044 -0.0781 -0.0040
21060W        W36529  16.495  15.473  11.875 -0.0137 -0.0509  0.0410
21061W        W36530  11.109   8.393  15.624  0.1581  0.2722 -0.2743
21062W        W36531   0.073   7.155   3.518  0.0039 -0.4855  0.2185
21063W        W36532  15.925  12.430  16.236 -0.2710 -0.0502  0.1679
21064W        W36533  13.574  10.996  11.975 -0.0362  0.1301  0.4368
21065W        W36534  12.542  13.865  14.623  0.2009 -0.0256 -0.3635
21066W        W36535  17.175   4.971  14.255  0.1079 -0.0548  0.0553
21067W        W36536  14.335   6.891   5.710 -0.3247  0.0824  0.0645
21068W        W36537  14.218  13.751   4.933  0.2748  0.0087  0.1237
21069W        W36538  11.776   8.261   4.271  0.2218  0.1295 -0.1270
21070W        W36539   4.156   3.761  13.093  0.1910  0.0182 -0.2609
21071W        W36540  17.272   4.703  13.755  0.1831  0.0532 -0.0744
21072W        W36541   3.345  14.778   1.643 -0.1136  0.0681  0.1419
21073W        W36542   6.601  10.072  11.530  0.0408 -0.1778 -0.0232
21074W        W36543  11.806  14.416  12.161  0.0272  0.1679 -0.1781
21075W        W36544   9.471  13.511  15.237  0.1437 -0.1325 -0.1342
21076W        W36545   7.626   9.888   0.793 -0.0262  0.0788 -0.0162
21077W        W36546   3.741   1.741  11.373  0.1460  0.2470 -0.3194
21078W        W36547   7.213   4.624  12.435 -0.1901  0.0882  0.1754
21079W        W36548   5.926   9.634   3.843 -0.1465  0.0440  0.0565
21080W        W36549  16.055   4.123  13.100  0.3268 -0.0014  0.4583
21081W        W36550   8.711   6.802  13.314 -0.0540 -0.2129 -0.3101
21082W        W36551   2.273  14.347  14.340  0.0104 -0.0287 -0.1753
21083W        W36552   5.857   3.456  14.874 -0.1493  0.1444 -0.2053
21084W        W36553   4.421  16.014  14.612  0.0166 -0.0359  0.2061
21085W        W36554   7.863   2.226   1.396  0.1515  0.3265 -0.1183
21086W        W36555   4.461  15.064  13.070  0.0189 -0.0188 -0.0355
21087W        W36556   1.008   4.633  11.871  0.2317  0.0314  0.2269
21088W        W36557  12.054   9.811   3.696 -0.0264 -0.2483  0.1342
21089W        W36558   5.381   2.526  14.294  0.1764  0.1651  0.0365
21090W        W36559  14.910   9.110  12.821 -0.1312  0.0934 -0.0178
21091W        W36560   7.227   3.792  15.308 -0.0135 -0.2637  0.1750
21092W        W36561   0.271  14.459   2.416 -0.0883 -0.1491  0.0812
21093W        W36562   4.320  16.217  13.396  0.5045 -0.1022  0.0774
21094W        W36563   2.931  14.580   0.291 -0.0778  0.0010 -0.1603
21095W        W36564  14.986  14.304   1.933 -0.2828  0.0558  0.1407
21096W        W36565  16.338   8.729  16.132 -0.1082  0.1418  0.1310
21097W        W36566   8.105  10.626   2.110  0.0643  0.0430 -0.0760
21098W        W36567   4.605   0.884  14.581 -0.2425 -0.0178  0.0479
21099W        W36568   4.659   3.363   0.341 -0.2731 -0.1069  0.0238
21100W        W36569  16.981   7.429  14.350  0.3889 -0.0794 -0.0583
21101W        W36570   8.168   1.450  13.283  0.0953  0.0631  0.1143
21102W        W36571   6.143   4.449   3.724  0.0254 -0.1756  0.0893
21103W        W36572   2.220  13.576  16.495  0.1929 -0.1083 -0.0731
21104W        W36573  16.395   9.395   4.654 -0.0072  0.3619  0.3948
21105W        W36574  16.304   7.696  12.377  0.0579 -0.0470 -0.0669
21106W        W36575   2.822   2.550  15.495  0.1287  0.1514 -0.0366
21107W        W36576  10.095   0.809  13.822  0.1451 -0.0717 -0.0147
21108W        W36577   7.836  17.320   1.617  0.3181 -0.1861 -0.1176
21109W        W36578   1.058  17.278   1.467 -0.3835  0.0801  0.0907
21110W        W36579  16.768   9.145   1.382 -0.2297  0.0018 -0.2946
21111W        W36580  10.376   6.536   4.396  0.0863  0.0591  0.0776
21112W        W36581   0.296  15.412   5.007  0.2727 -0.0420  0.0355
21113W        W36582   4.904   0.991  16.612  0.0981  0.3497 -0.0235
21114W        W36583  12.063   6.699  11.843  0.0520 -0.3967 -0.0134
21115W        W36584  13.954  17.395  15.319  0.0088  0.3216 -0.1081
21116W        W36585   2.019   7.194  10.533  0.1271 -0.2481 -0.1443
21117W        W36586   5.126  11.951   3.480 -0.1813  0.0817  0.0345
21118W        W36587   2.985   4.759  14.532 -0.1082  0.1526  0.0714
21119W        W36588   4.332  14.784   4.990 -0.2310  0.0553  0.1181
21120W        W36589   6.241  11.641   3.736  0.0279  0.1276 -0.2137
21121W        W36590   6.007  12.524   2.149  0.3429 -0.1025  0.5548
21122W        W36591   4.202  17.219  12.024 -0.1315  0.1723  0.1864
21123W        W36592   0.868  10.349   2.356  0.4413  0.0688  0.0068
21124W        W36593  10.449   7.177  15.875 -0.0106 -0.1966  0.0658
21125W        W36594  11.760   2.775   0.047 -0.1907  0.0496  0.3283
21126W        W36595   0.403   8.654   4.138  0.0841 -0.3543  0.2579
21127W        W36596   6.472  15.181  16.164 -0.0434 -0.0588  0.0893
21128W        W36597   2.962  12.216   2.811 -0.1942 -0.2896 -0.2998
21129W        W36598  12.273   4.470  15.585 -0.2069  0.2256  0.0118
21130W        W36599   8.358  16.928  14.704 -0.0283  0.0448  0.1656
21131W        W36600  13.081   2.956   5.054 -0.1713 -0.2956 -0.0742
21132W        W36601  12.138  15.494   0.244  0.2743 -0.0958  0.2058
21133W        W36602   6.404  12.961   5.659 -0.1779 -0.0640  0.1080
21134W        W36603  11.459  11.776  13.741 -0.0599  0.0142 -0.0790
21135W        W36604   1.286  13.178  11.011  0.0830 -0.1008  0.0677
21136W        W36605  17.710   4.975   1.818  0.1037  0.0669 -0.2583
21137W        W36606  10.562   5.945   0.405  0.2463  0.3506 -0.1090
21138W        W36607  11.911  16.334   3.957 -0.3158  0.0361 -0.1632
21139W        W36608   7.859   5.852   3.191 -0.2214  0.1213  0.1605
21140W        W36609   9.759  12.046  15.970 -0.0818  0.0154  0.0796
21141W        W36610  11.980  16.334   5.204 -0.1918  0.0643 -0.1458
21142W        W36611   6.477   4.442   3.310  0.0593  0.0384  0.0518
21143W        W36612  13.767   7.961   3.696 -0.2788  0.2415 -0.0225
21144W        W36613   6.418  11.220   6.180 -0.3147  0.1633  0.0917
21145W        W36614  15.260   6.611  14.358  0.0968 -0.2828 -0.0677
21146W        W36615   9.303  16.060   2.359  0.1311  0.3757 -0.4946
21147W        W36616  14.515   1.971   5.655  0.0319 -0.1513 -0.0126
21148W        W36617   1.936   2.008  12.906 -0.2053  0.1347 -0.0267
21149W        W36618  13.434   5.960  14.063  0.1995  0.1477  0.0247
21150W        W36619   5.510   8.980  15.936 -0.0594 -0.0642  0.0669
21151W        W36620   7.961  16.107  15.620  0.1428 -0.0979 -0.3008
21152W        W36621  11.784   9.816   4.534  0.1192 -0.0020 -0.1895
21153W        W36622  10.259  11.809  13.033 -0.2042 -0.1494 -0.0118
21154W        W36623   2.404  13.927  14.554  0.0473 -0.1022  0.1134
21155W        W36624   6.851  17.581   1.976 -0.2049  0.0367  0.2630
21156W        W36625  17.693  14.035   4.139 -0.1464 -0.0919 -0.2789
21157W        W36626  13.365  11.199   0.125  0.2398  0.2108 -0.0234
21158W        W36627   1.204   8.634  16.752 -0.2342 -0.1212 -0.1592
21159W        W36628  13.229  14.093   3.100 -0.1009  0.1399 -0.1753
21160W        W36629  15.918   6.329  15.000  0.1208 -0.0129 -0.1051
21161W        W36630  13.075  10.272  14.586  0.2752 -0.0920 -0.0025
21162W        W36631   6.644   1.204   2.981 -0.0353 -0.0218 -0.1338
21163W        W36632  13.537   4.926   0.471 -0.4422  0.0806 -0.2404
21164W        W36633   3.551  17.394  16.779 -0.0599 -0.2557  0.3806
21165W        W36634  15.448  13.565   2.608 -0.0181  0.2023  0.0962
21166W        W36635  14.575   8.561  14.406 -0.0378 -0.4001 -0.0676
21167W        W36636   9.115   1.876  16.160 -0.1640  0.0972 -0.0201
21168W        W36637  13.804  10.702  13.667  0.0040  0.0802  0.1971
21169W        W36638  13.935  16.672   2.561 -0.0116 -0.0211 -0.1199
21170W        W36639   2.483   7.103  13.172  0.1405 -0.1295  0.0798
21171W        W36640   7.448  12.639  11.850 -0.0467 -0.1710 -0.0438
21172W        W36641   9.530  16.862   5.982 -0.1964 -0.2620  0.0743
21173W        W36642   4.671  16.157   2.828  0.0409  0.2353 -0.2340
21174W        W36643  15.935  12.489   5.554  0.2405  0.0092 -0.2364
21175W        W36644   1.912   6.978  16.537 -0.3110 -0.1043  0.0920
21176W        W36645   8.547   4.502  12.386  0.2439 -0.0621  0.1845
21177W        W36646  12.775  10.573  12.889  0.1324  0.2077 -0.2898
21178W        W36647  15.491  16.834  15.603  0.0089  0.0491 -0.0456
21179W        W36648   4.846  15.070   1.218  0.2155  0.1935  0.2722
21180W        W36649  10.620  16.595   0.541  0.2466 -0.1187  0.1314
21181W        W36650   3.730   4.618  11.101 -0.0548  0.1431  0.0423
21182W        W36651   4.264  13.827  12.935 -0.3435 -0.0986  0.1362
21183W        W36652   7.321  13.355  13.047  0.0111  0.2110  0.0662
21184W        W36653  11.148  10.795  15.565 -0.2033  0.0126  0.0997
21185W        W36654   7.196  15.128  16.819 -0.0608  0.3026  0.1445
21186W        W36655  12.415  15.305  15.789 -0.2035  0.2226 -0.0672
21187W        W36656   4.040   7.648   3.832 -0.1417 -0.2657  0.1834
21188W        W36657   1.884   2.352  15.969 -0.0624  0.0218  0.1464
21189W        W36658  11.022   1.697   3.715  0.1127  0.1908 -0.2840
21190W        W36659   2.010  14.939  13.542 -0.0820  0.1842 -0.1525
21191W        W36660  17.648  17.479  16.406 -0.0750 -0.0216  0.1912
21192W        W36661   5.439   8.872   4.639 -0.1630  0.1901 -0.0700
21193W        W36662  12.875   7.157  13.297  0.0802 -0.4105  0.0764
21194W        W36663   0.253   8.103  14.979 -0.1346 -0.2811  0.0412
21195W        W36664  11.274  17.461   3.928  0.0139  0.0175  0.0927
21196W        W36665   4.663   2.665  16.354  0.0830  0.1102 -0.1148
21197W        W36666   3.393  12.304   2.008 -0.0291 -0.2236 -0.1122
21198W        W36667   3.216  13.321  11.817 -0.2138  0.3674  0.2315
21199W        W36668   5.048  17.579   0.919 -0.1235 -0.1998 -0.1475
21200W        W36669  17.752   5.610  10.840  0.0802 -0.0222  0.3236
21201W        W36670   7.688   1.685   5.460  0.1602 -0.0811 -0.1006
21202W        W36671   6.067  14.064   3.587  0.2178  0.2020  0.2684
21203W        W36672   9.632   4.960  12.187  0.1439  0.3707 -0.0929
21204W        W36673   5.673  14.568   0.498 -0.2391  0.1800  0.2337
21205W        W36674   3.910   0.998  13.163  0.0021  0.0691 -0.1648
21206W        W36675   9.361  13.647  11.870 -0.0533  0.0616 -0.1676
21207W        W36676   0.109   6.733   1.788 -0.0136  0.0080  0.2444
21208W        W36677  15.681  17.663  16.235 -0.1428 -0.0416 -0.0625
21209W        W36678  12.923   3.472  13.775 -0.0917 -0.2563  0.1421
21210W        W36679   4.774  10.863   0.657 -0.0213 -0.0543 -0.1664
21211W        W36680   6.483   8.953  15.661  0.0253 -0.1530  0.0703
21212W        W36681  17.481  12.530   5.865  0.2540  0.1357  0.1555
21213W        W36682   7.565   9.583  12.326  0.1100 -0.1338  0.0197
21214W        W36683   3.577  14.617   2.471  0.2066  0.3110  0.0716
21215W        W36684  17.295   3.267  13.103  0.2207 -0.1005 -0.4050
21216W        W36685   9.223  10.767   5.330  0.1418 -0.1339  0.0434
21217W        W36686   9.080   6.808   2.795  0.2431  0.4376 -0.2548
21218W        W36687   1.042   2.329  12.566  0.2742  0.0941  0.1440
21219W        W36688  10.444  14.789  14.462  0.2306 -0.0472 -0.1072
21220W        W36689  12.597  13.202  15.809  0.2620  0.1640  0.0884
21221W        W36690  13.815   8.829  16.661 -0.2450  0.4593  0.2473
21222W        W36691   4.779   8.524   4.872 -0.1460  0.1683 -0.1040
21223W        W36692   2.623   5.111   2.834  0.2562  0.1499  0.0522
21224W        W36693  13.269  13.947  15.698 -0.2263  0.2532 -0.0062
21225W        W36694   6.223  10.157  16.153  0.0008 -0.1729  0.2201
21226W        W36695  14.466  16.434  14.005 -0.1146 -0.2077 -0.1303
21227W        W36696   9.642  16.885   1.057 -0.0029  0.1005 -0.1654
21228W        W36697  15.284  13.042   1.697  0.0893 -0.2020  0.1942
21229W        W36698   9.380   3.230   3.710 -0.1609  0.1353  0.2462
21230W        W36699  15.633   3.890  16.481  0.3233 -0.3461  0.2028
21231W        W36700   6.654   2.169   6.109  0.0802 -0.2281 -0.1360
21232W        W36701   3.823  10.103  14.723 -0.1627  0.0086 -0.2472
21233W        W36702   0.179   0.392  13.059  0.0107 -0.0598  0.1764
21234W        W36703  11.367   3.748  16.327 -0.1270  0.1310  0.1726
21235W        W36704   6.930   9.027  16.611  0.0744 -0.2947 -0.0570
21236W        W36705   1.995   1.109   4.732  0.1855 -0.0048 -0.0946
21237W        W36706  17.629   5.541  12.285 -0.2743 -0.1033 -0.0871
21238W        W36707   2.701  15.093  11.808 -0.0676 -0.4056 -0.1813
21239W        W36708   9.910   6.229   1.276  0.5252  0.0419 -0.1250
21240W        W36709   1.399   2.508  15.587 -0.1378 -0.2790  0.1579
21241W        W36710   2.744   9.790   2.995 -0.1262  0.3210 -0.0517
21242W        W36711  12.579   6.871   6.607  0.0582  0.1765 -0.1579
21243W        W36712  15.439  11.805   1.376 -0.1318  0.0510 -0.1294
21244W        W36713  16.154   9.942   2.554  0.1325  0.0222 -0.3759
21245W        W36714  14.244   5.658  13.366  0.2689 -0.0275 -0.2685
21246W        W36715   1.615  13.398   1.746 -0.0532 -0.0947 -0.0039
21247W        W36716   6.084   3.224  13.777 -0.1583 -0.0853  0.1379
21248W        W36717  11.626  10.204   1.197 -0.1066  0.1453 -0.1871
21249W        W36718   0.000   8.881   2.174 -0.2223  0.2331  0.2763
21250W        W36719   1.994   0.906  12.239  0.2205  0.0406  0.3398
21251W        W36720   3.887   1.535   1.807  0.0168  0.3616 -0.3063
21252W        W36721   9.691  13.712   4.624  0.3181 -0.1411  0.3207
21253W        W36722  16.566   7.351   6.236  0.2587 -0.1866  0.0707
21254W        W36723   3.808   3.379  12.889  0.0763 -0.1958  0.0432
21255W        W36724  15.285   3.096  16.786  0.3461  0.0175 -0.0409
21256W        W36725  13.823   1.252   5.177  0.1475 -0.0120  0.1712
21257W        W36726  16.387  12.759  13.433  0.1440  0.1041  0.4368
21258W        W36727  14.034  14.001  15.076  0.1932 -0.4167 -0.3013
21259W        W36728  15.151   4.370  12.818  0.1057 -0.3473 -0.0280
21260W        W36729   9.741   2.889   5.739  0.0039  0.0097 -0.1277
21261W        W36730   1.322   5.990   3.272  0.2265 -0.0059  0.0757
21262W        W36731   8.735   6.884   4.826  0.0741  0.1259  0.0059
21263W        W36732   2.437   6.399   4.690 -0.0482  0.1898  0.2231
21264W        W36733   2.136  10.602  11.730 -0.0417  0.0317 -0.1857
21265W        W36734   5.477  17.564  13.186  0.0782 -0.0583 -0.0201
21266W        W36735  13.703  11.287   5.816  0.3543 -0.3558  0.2104
21267W        W36736  14.395  11.772  11.497 -0.1252  0.0437  0.2577
21268W        W36737  17.156   1.590   0.853  0.0941 -0.1883  0.2130
21269W        W36738   0.168  17.424  11.796 -0.0360 -0.2274 -0.0334
21270W        W36739   2.419  15.834   5.924  0.0632  0.2604  0.0312
21271W        W36740   5.419   3.514  13.270 -0.3188  0.1025  0.0454
21272W        W36741   3.933   8.312  14.693  0.0677  0.2876  0.1878
21273W        W36742  12.212   9.838   2.803 -0.0753 -0.1094 -0.1226
21274W        W36743   9.565   0.915  16.409 -0.1830  0.0800 -0.2590
21275W        W36744   7.736  12.985   6.306  0.0614  0.3923 -0.0289
21276W        W36745   1.620   0.553  15.518 -0.0259  0.1232  0.3208
21277W        W36746   1.532   4.681   2.325 -0.1768  0.0264 -0.3493
21278W        W36747  15.107  11.096  14.742 -0.1568 -0.0738  0.2261
21279W        W36748   7.941   5.138  14.138 -0.0651 -0.0539  0.2297
21280W        W36749  10.506   4.260   5.436  0.0101 -0.1541 -0.2555
21281W        W36750   0.506   7.674   0.449  0.1863  0.1547  0.1543
21282W        W36751   4.040   2.476   5.328 -0.0190 -0.1829  0.1216
21283W        W36752   0.281  11.460   4.205  0.2060 -0.0845  0.0780
21284W        W36753   9.236   3.821  14.733 -0.2233 -0.0206 -0.1046
21285W        W36754   6.482   7.721  14.391 -0.1600 -0.0581  0.1147
21286W        W36755   4.571   0.677   3.346  0.5495  0.1993  0.0175
21287W        W36756   4.236  12.341   4.647  0.0894 -0.2098  0.0119
21288W        W36757   1.498   3.147   5.014 -0.1972 -0.2024  0.2477
21289W        W36758  16.774  16.727  11.672 -0.1871 -0.1168  0.2671
21290W        W36759  13.104  14.698   1.493 -0.2593 -0.1632 -0.0108
21291W        W36760  13.992   6.526   3.679 -0.2252 -0.3336  0.2289
21292W        W36761  17.537   8.948  16.044 -0.0927  0.0485  0.1711
21293W        W36762   4.243   2.563  16.126 -0.0622 -0.0583 -0.1054
21294W        W36763   8.309   0.061  15.746 -0.1129  0.2055  0.0003
21295W        W36764   5.079   2.339  14.727 -0.1696  0.0709  0.0591
21296W        W36765   7.186   5.614   5.404 -0.0385 -0.1284 -0.2063
21297W        W36766  11.935  12.709   5.273  0.0493  0.1003 -0.3058
21298W        W36767  16.596   6.897   2.072 -0.3361  0.1809 -0.0398
21299W        W36768   1.543  14.739   0.137 -0.2896 -0.1369  0.0112
21300W        W36769   3.323   3.526   2.525  0.2680 -0.1454 -0.1382
21301W        W36770   2.883  15.435  15.496  0.3968 -0.3258  0.3128
21302W        W36771  11.385  14.081   0.976 -0.1290  0.0233  0.2503
21303W        W36772   4.144   6.235   3.707 -0.0368 -0.2055 -0.1670
21304W        W36773  17.366  12.149   3.964  0.0630  0.0589 -0.1241
21305W        W36774  14.114  13.242   4.181 -0.1869  0.2953 -0.1147
21306W        W36775   2.795   6.379  14.360  0.0122  0.4275 -0.2586
21307W        W36776   1.388   6.407  13.725 -0.1811  0.0795  0.1668
21308W        W36777   5.865  14.476  14.018  0.2630  0.1896  0.0171
21309W        W36778  15.319  11.960  10.751  0.1046  0.0858  0.0604
21310W        W36779   1.290   7.703  10.848  0.4826 -0.2751  0.1522
21311W        W36780  14.266  13.253   5.108  0.0805  0.2213 -0.1124
21312W        W36781   5.968   1.146  14.083  0.2436  0.5370  0.1191
21313W        W36782  16.218   2.159  13.691 -0.0719 -0.0477  0.2540
21314W        W36783   1.886   9.541   5.061  0.0917  0.1022 -0.2438
21315W        W36784   2.197   5.195  14.430  0.0933 -0.3183 -0.1513
21316W        W36785   9.703   4.845   0.298 -0.1241 -0.0247  0.0913
21317W        W36786  12.923  10.567  15.587  0.0935 -0.1092 -0.0211
21318W        W36787  14.153  14.974  14.856  0.0652  0.0259  0.0222
21319W        W36788   2.966  10.784  10.624  0.1211 -0.0139 -0.2257
21320W        W36789  14.862  13.040  13.739  0.0494  0.0189  0.0509
21321W        W36790  15.644  16.266   1.498  0.2680  0.2056  0.0119
21322W        W36791  15.491  12.077   5.021 -0.1782 -0.0094  0.0965
21323W        W36792  10.999  13.472   3.790 -0.0962 -0.0796 -0.2656
21324W        W36793   6.316   6.445   0.099 -0.1435 -0.2308  0.0421
21325W        W36794   3.730   5.477   0.382 -0.3109 -0.1209  0.2878
21326W        W36795   3.352   5.568   3.441  0.3314  0.0378  0.1859
21327W        W36796  15.156  10.176  12.577  0.1641 -0.0339 -0.0027
21328W        W36797  12.565   2.320   2.472  0.1525  0.4309  0.3452
21329W        W36798   2.098   5.802  14.758  0.1797 -0.0195 -0.3333
21330W        W36799  16.264   6.912   4.299  0.0690  0.0989 -0.0348
21331W        W36800  13.580  14.618   5.413 -0.0786  0.1408 -0.4191
21332W        W36801  11.692  12.258  12.280  0.0082  0.0887 -0.1996
21333W        W36802   3.091   9.785  10.651 -0.1792 -0.1252  0.0650
21334W        W36803   0.235   6.516  15.045  0.4097 -0.0110 -0.1445
21335W        W36804  12.403   1.869   2.623  0.0243 -0.0766  0.1793
21336W        W36805  12.173   2.475  12.655 -0.0925 -0.1876 -0.0862
21337W        W36806  15.945  15.071   1.883 -0.1303 -0.0094  0.0999
21338W        W36807   0.544  13.901  12.462  0.3420  0.2255  0.2038
21339W        W36808  13.763   4.625   5.320 -0.2031 -0.1223 -0.2529
21340W        W36809  16.617  14.152   6.104 -0.1866 -0.0534  0.2189
21341W        W36810  11.113  13.680   1.125  0.1736 -0.1245  0.0085
21342W        W36811  16.350  14.998   3.790 -0.0652  0.0049 -0.1640
21343W        W36812  13.587  16.267   4.512 -0.1160  0.0531  0.0888
21344W        W36813   7.487  16.307   5.632  0.0345  0.0758  0.3205
21345W        W36814   1.886   1.609  15.753 -0.1429 -0.3793  0.1945
21346W        W36815   5.881  12.448  15.100 -0.2297 -0.1347 -0.0538
21347W        W36816  11.512   7.098   1.572 -0.1939 -0.1634  0.1037
21348W        W36817  12.333   2.910   4.029 -0.0837 -0.0007 -0.2321
21349W        W36818   0.642  11.004   2.296  0.1478 -0.1336 -0.1709
21350W        W36819  15.272   3.671  14.189 -0.1194  0.1192 -0.0339
21351W        W36820   0.966  13.915  12.639  0.1525  0.0415 -0.3698
21352W        W36821   0.556  12.320  15.876  0.0595  0.1676 -0.0851
21353W        W36822   8.189  12.364   4.569 -0.1022 -0.2567 -0.0767
21354W        W36823  12.873   1.170   4.039  0.1052 -0.2164  0.3493
21355W        W36824   3.327   3.031   4.915  0.2130 -0.2282 -0.1646
21356W        W36825   5.876  11.710  14.399 -0.1806  0.2824  0.1950
21357W        W36826   4.951  15.752   2.938 -0.1198  0.0272  0.2820
21358W        W36827   6.031  14.203  15.057 -0.0981  0.3853  0.0655
21359W        W36828  13.053  12.719  13.473 -0.2133 -0.1967  0.2818
21360W        W36829  14.466   2.861   5.380 -0.0373  0.0585 -0.2914
21361W        W36830  15.314  17.263   2.207 -0.0204 -0.0154 -0.0327
21362W        W36831   2.942  10.196  15.115 -0.2033  0.0876 -0.1218
21363W        W36832  14.053   4.160   5.516 -0.0271  0.2678  0.1313
21364W        W36833  10.371  14.197  15.680 -0.1194  0.0699 -0.1298
21365W        W36834   4.290   4.843  14.438  0.0319  0.0728 -0.0375
21366W        W36835   6.776   4.649  12.706 -0.1931 -0.2435 -0.0560
21367W        W36836  15.897   1.463   0.456  0.0055 -0.2314 -0.3226
21368W        W36837   4.281   7.400   5.661  0.0700  0.1645  0.0378
21369W        W36838  13.234  14.311  11.974 -0.1320 -0.3437 -0.1263
21370W        W36839   9.867  11.449   1.175  0.0022 -0.2724 -0.2836
21371W        W36840   7.059   4.785  14.283  0.0807  0.0737 -0.0706
21372W        W36841  15.742   1.624   0.933  0.0465  0.0552  0.1014
21373W        W36842  16.037   5.681   4.807 -0.0365  0.0156 -0.0793
21374W        W36843   6.674   8.393   5.512 -0.5762  0.0850 -0.3385
21375W        W36844   8.328  10.672   1.513  0.0091 -0.1251 -0.1268
21376W        W36845   1.430  10.764  12.826 -0.2126  0.0856  0.0805
21377W        W36846   1.265   3.359   1.031  0.1000 -0.1290  0.0744
21378W        W36847   8.782  13.951  12.902 -0.0971 -0.1685  0.0551
21379W        W36848  16.341   0.813   4.661 -0.0525  0.4301 -0.2215
21380W        W36849   7.396  12.355  16.331 -0.0497 -0.2696  0.3161
21381W        W36850   9.267   2.555   6.564 -0.2490  0.3383 -0.0788
21382W        W36851   9.078   4.821  15.172 -0.0633  0.1424  0.1914
21383W        W36852   5.600   9.264  14.934 -0.0385  0.2218  0.0763
21384W        W36853   8.215   4.704  16.781 -0.1387 -0.1649 -0.1087
21385W        W36854   2.363   5.651   3.535  0.1540  0.1431 -0.0444
21386W        W36855   8.302   9.177   1.112  0.0765  0.1842 -0.0985
21387W        W36856   7.794   1.992  11.850 -0.1480  0.0555  0.1086
21388W        W36857   8.262   8.877   3.891 -0.0784 -0.0142  0.3024
21389W        W36858  10.953  12.820   3.153  0.1010  0.3211  0.1238
21390W        W36859   6.110   5.608  12.074 -0.1359 -0.2423 -0.2000
21391W        W36860   4.400  15.881  16.635 -0.2456  0.1542 -0.0207
21392W        W36861   0.850   2.156  14.008 -0.0282 -0.0846 -0.1126
21393W        W36862   1.427   0.035   0.369  0.0177 -0.1052  0.2244
21394W        W36863   3.933   4.446  15.964 -0.1071 -0.3981 -0.3545
21395W        W36864   0.942   3.247  16.422  0.3599 -0.0991 -0.0594
21396W        W36865   0.888   9.247  10.270  0.0118  0.0279 -0.2086
21397W        W36866   8.564   6.085   0.017 -0.0697  0.0241  0.0720
21398W        W36867   5.607  10.443  11.589  0.1723 -0.3066 -0.0730
21399W        W36868   3.831   9.481  10.094 -0.3146  0.1818 -0.3524
21400W        W36869  13.390   1.839  11.295 -0.0043 -0.2277  0.1779
21401W        W36870   5.839   1.900   0.992 -0.2171 -0.0481  0.2868
21402W        W36871  16.859   3.339   4.222 -0.0660  0.1569 -0.1913
21403W        W36872   4.173   7.340  11.507  0.0820  0.0054  0.1258
21404W        W36873  14.954  17.480   2.508 -0.0907 -0.4381 -0.2181
21405W        W36874   5.130   4.635  11.323 -0.1674 -0.4871 -0.0024
21406W        W36875   4.819  17.105   5.564 -0.2094 -0.1946 -0.0624
21407W        W36876   5.451  11.668   5.140 -0.2405  0.1257 -0.1448
21408W        W36877   4.423  10.484  15.466 -0.0765  0.2370 -0.3452
21409W        W36878  13.550  16.316  16.732 -0.2635 -0.3073 -0.1526
21410W        W36879   8.825  12.430  12.241 -0.0194  0.2061 -0.0335
21411W        W36880   7.035   8.768  13.218 -0.0004  0.2498 -0.2435
21412W        W36881  16.519   0.292  16.667  0.2471  0.0982  0.1198
21413W        W36882  11.902  11.995  13.554 -0.3211  0.1854 -0.1744
21414W        W36883  14.198   9.146  16.354  0.2403 -0.1488  0.1286
21415W        W36884   9.094   3.723  11.931 -0.1508 -0.0422 -0.3991
21416W        W36885  14.768   5.014   2.508  0.0978 -0.0851  0.2852
21417W        W36886   0.628   4.626   2.607 -0.0651 -0.0132 -0.1090
21418W        W36887   3.766  13.450   5.012 -0.0614  0.0783  0.0236
21419W        W36888  14.295   9.974  12.933 -0.2379  0.0029  0.0696
21420W        W36889   2.638   2.120   3.733  0.0340  0.5972 -0.0569
21421W        W36890   1.590   9.694  15.160  0.0149 -0.1755  0.0059
21422W        W36891  10.178  11.670  13.492  0.3758  0.1864  0.0971
21423W        W36892  14.888  14.250  12.913  0.1067 -0.5193  0.1134
21424W        W36893  13.103   5.772   5.618  0.1643 -0.4046 -0.0589
21425W        W36894   2.825   5.528  16.123  0.2888 -0.0757 -0.1759
21426W        W36895  12.777   4.990  14.358 -0.1097 -0.2685 -0.1383
21427W        W36896  12.193  12.275  15.164  0.2232 -0.1873  0.0464
21428W        W36897  16.893   3.630   1.760  0.0464 -0.0046  0.1146
21429W        W36898   9.651  14.833   1.636 -0.1130  0.2047 -0.1796
21430W        W36899   0.351  10.992  14.927  0.0117 -0.0040  0.1665
21431W        W36900   2.427  10.198  15.304 -0.3371 -0.0336  0.2723
21432W        W36901   6.952   2.465  11.577  0.2910 -0.1346  0.1402
21433W        W36902   4.551   3.825  16.691  0.0727  0.1856 -0.0479
21434W        W36903   5.223  15.519   2.589 -0.0678  0.3495  0.2138
21435W        W36904   8.478   0.212  12.578 -0.0908  0.0382 -0.2002
21436W        W36905  15.485  12.554   0.387  0.1164 -0.1159 -0.1670
21437W        W36906  15.285   7.846  14.602  0.0403 -0.0366 -0.0157
21438W        W36907   5.921  15.821  15.112 -0.0349  0.4086  0.2380
21439W        W36908  11.508   8.570   2.980 -0.1898 -0.1950 -0.0331
21440W        W36909  16.159   0.541  16.352 -0.0784  0.1985 -0.1399
21441W        W36910   8.618  16.491   2.936 -0.1380 -0.0788  0.0306
21442W        W36911   2.079  13.654   3.052  0.1489  0.2533 -0.1414
21443W        W36912   5.386   6.624   5.502 -0.0828 -0.0048 -0.1708
21444W        W36913   5.933   5.481  13.073  0.1539  0.0080 -0.2015
21445W        W36914  12.257   6.798   1.402 -0.2517  0.1832 -0.0863
21446W        W36915  16.997  11.574   2.144  0.2950 -0.0280 -0.0558
21447W        W36916  14.337  16.832  11.990  0.1546  0.0342  0.1596
21448W        W36917   4.873  11.628   4.425 -0.0037 -0.1572 -0.0332
21449W        W36918   7.339   5.961  15.913  0.2833 -0.0915 -0.0283
21450W        W36919   5.854   0.269   3.731 -0.0510  0.0803 -0.2327
21451W        W36920  14.758  13.889  12.230  0.1959 -0.0561 -0.0507
21452W        W36921   6.346   9.115  16.455 -0.0646  0.1393  0.0181
21453W        W36922   9.531   3.366   5.525  0.2185  0.0824  0.0291
21454W        W36923   7.880   9.309  12.948  0.1323 -0.1829  0.2437
21455W        W36924   2.079  17.327   4.242  0.2116  0.2134  0.0813
21456W        W36925   8.570   3.370   1.499 -0.2472 -0.3278  0.3032
21457W        W36926   5.247   3.999   1.034 -0.1712 -0.2950 -0.2718
21458W        W36927  12.530   8.119   1.641 -0.2198 -0.3117 -0.1511
21459W        W36928   3.433   9.705  13.992 -0.0638  0.0765  0.0068
21460W        W36929  10.229  10.905  12.795  0.1733 -0.0784 -0.1085
21461W        W36930  16.223   8.641  15.338  0.1735  0.0499  0.3394
21462W        W36931  14.085   6.782   2.122  0.1567  0.3682 -0.1864
21463W        W36932   2.928  13.686  11.055 -0.4812 -0.0431  0.3866
21464W        W36933   4.254   6.493  14.585  0.3599 -0.1190 -0.0087
21465W        W36934   3.240   9.246   2.876 -0.2096  0.2491 -0.2236
21466W        W36935   8.982   8.144  12.396  0.1198 -0.2176  0.0069
21467W        W36936   5.513   0.747   3.597 -0.0678 -0.0167 -0.0479
21468W        W36937  16.460   1.360  12.217 -0.0144  0.1198  0.0302
21469W        W36938   3.657  17.666   2.701 -0.2540  0.0202 -0.0419
21470W        W36939  17.744  16.957  13.811 -0.0405  0.1041  0.1050
21471W        W36940   9.184   3.572  14.161 -0.0470 -0.1316  0.2395
21472W        W36941   9.273  15.876   3.140  0.1356 -0.0529 -0.1466
21473W        W36942   9.487   8.608   2.795 -0.2940  0.2197 -0.0087
21474W        W36943  10.119   1.365  13.884 -0.0085 -0.0994 -0.1653
21475W        W36944   3.040  10.831  13.463  0.1366  0.1079  0.3082
21476W        W36945   0.719   2.943  16.792 -0.0672  0.3630  0.2010
21477W        W36946  17.084   4.750  11.070  0.0931 -0.3348 -0.0345
21478W        W36947  13.328   8.719  12.236  0.3368 -0.3911 -0.2325
21479W        W36948  12.134   5.853  12.529 -0.0044  0.4372  0.0562
21480W        W36949  10.061   3.054   5.311  0.1471 -0.0113 -0.1581
21481W        W36950  10.664  13.349   1.184 -0.0969  0.0566  0.0511
21482W        W36951   2.421   7.559   1.392 -0.0399  0.0530 -0.0380
21483W        W36952  15.394  16.957   4.600 -0.2013  0.2622  0.1243
21484W        W36953  15.950  10.500  13.941  0.1320  0.2831  0.2804
21485W        W36954  12.562   3.041  11.715  0.0313 -0.0197 -0.0228
21486W        W36955  15.169  13.175  14.102 -0.1561  0.0968  0.1753
21487W        W36956  10.037  11.776   6.407 -0.0759 -0.0571  0.4846
21488W        W36957   6.985  15.434  13.927 -0.1183  0.0683 -0.0927
21489W        W36958   3.773  13.321  14.547 -0.2635 -0.1747  0.1374
21490W        W36959   5.534   9.315   4.920 -0.1259  0.1052 -0.1339
21491W        W36960   4.507  12.590   3.536 -0.0832  0.0385  0.3978
21492W        W36961   0.428   4.027  15.197 -0.0485  0.3473  0.0328
21493W        W36962  12.890   1.638  15.823 -0.4292  0.3083  0.0168
21494W        W36963   5.668   4.660  11.373 -0.0733 -0.2521 -0.0020
21495W        W36964   1.127  14.100   2.374  0.1242  0.2219  0.1699
21496W        W36965  17.213  13.504  14.729  0.2884 -0.1444 -0.0907
21497W        W36966  12.861   5.691   6.034  0.3726  0.1920 -0.1557
21498W        W36967   5.146   7.375   2.363  0.0775  0.0147  0.1878
21499W        W36968   0.007   6.537   6.167 -0.0789 -0.0651  0.3370
21500W        W36969   1.589   2.152   3.485 -0.4220 -0.0244  0.0880
21501W        W36970   8.422   1.078  13.095 -0.0729  0.2930  0.1230
21502W        W36971   1.005   6.356   0.350 -0.1923 -0.0569 -0.0707
21503W        W36972   9.933  12.831   2.803 -0.0023  0.2734 -0.1430
21504W        W36973   4.635   7.583   4.521  0.4741  0.1389  0.1546
21505W        W36974   1.750   4.401   3.084 -0.1574 -0.1369 -0.1140
21506W        W36975  13.024   3.075   0.898  0.0134  0.1053  0.0808
21507W        W36976   9.373   9.535  12.689 -0.0834 -0.1364  0.1803
21508W        W36977   6.543  12.965  14.169  0.1557  0.2656 -0.3051
21509W        W36978  10.557  14.273  16.531  0.0750 -0.0852  0.2152
21510W        W36979   6.240   5.514  16.439 -0.2937 -0.0277  0.0720
21511W        W36980  12.805   7.813   4.373 -0.1493  0.1115  0.0812
21512W        W36981  11.483   0.863   2.779  0.2310 -0.0725 -0.2151
21513W        W36982  16.333   8.211   1.573  0.0419  0.1422  0.2681
21514W        W36983  17.254   1.397  14.322 -0.3310 -0.0444 -0.0128
21515W        W36984   3.892  12.938   3.400 -0.1708 -0.0814  0.0300
21516W        W36985   6.781   2.799  16.489  0.3138  0.0036 -0.0484
21517W        W36986   3.637   2.870   3.923  0.1033 -0.0033 -0.0376
21518W        W36987  17.732  10.001   3.428  0.0425  0.0848  0.1026
21519W        W36988   4.827  13.133  14.495 -0.1246  0.7107 -0.2187
21520W        W36989   2.149   8.773   3.986  0.1072  0.2175 -0.2744
21521W        W36990   1.914  11.405  12.626  0.2541 -0.0450 -0.0667
21522W        W36991   5.051   1.753   0.081 -0.1543  0.0371  0.1374
21523W        W36992   8.365  13.884   2.898  0.1497 -0.0613  0.1308
21524W        W36993  15.574   8.114  10.424 -0.1060  0.0671 -0.0851
21525W        W36994   2.753  14.881  14.729  0.1552 -0.0717 -0.0613
21526W        W36995  10.525  17.612   1.723  0.1158  0.2498  0.2294
21527W        W36996   8.471   9.510  14.348  0.2061  0.0215 -0.3183
21528W        W36997  14.839  10.044  14.879  0.3297 -0.1199  0.4141
21529W        W36998  17.252  15.065   3.861 -0.1696 -0.0819 -0.1278
21530W        W36999  13.201  11.947   5.192 -0.0537 -0.0952  0.2887
21531W        W37000   6.649  12.535   5.630  0.0557 -0.3162  0.0464
21532W        W37001   8.674   9.503   1.932 -0.2519 -0.1826  0.2504
21533W        W37002   2.221   4.191   3.073 -0.4273 -0.3608  0.1380
21534W        W37003   5.426  16.055  16.470  0.1231  0.0597 -0.0271
21535W        W37004  10.317   2.765   0.375 -0.0285  0.1597 -0.1553
21536W        W37005  11.214  16.916   3.525 -0.1162  0.0447  0.0175
21537W        W37006   9.918  10.516  11.673  0.0654  0.0923  0.2488
21538W        W37007   6.971  14.860  12.108  0.0279  0.1370  0.1126
21539W        W37008  15.821   7.692  12.557 -0.1822  0.0376 -0.2200
21540W        W37009   0.018   6.893   0.081  0.3206 -0.1128  0.2674
21541W        W37010   5.540   2.046  11.738  0.4711 -0.0182  0.0955
21542W        W37011   9.305  10.643   2.464  0.3354 -0.0035 -0.0153
21543W        W37012   8.860  15.685   0.196  0.1423  0.6755 -0.0338
21544W        W37013  14.831   4.473  11.694 -0.0390  0.2158  0.0609
21545W        W37014   0.550   8.799   5.777  0.1686  0.0275 -0.0657
21546W        W37015   8.829   8.582   2.999 -0.0446  0.2223  0.2148
21547W        W37016   2.770  14.319   2.530  0.3191  0.0887  0.1149
21548W        W37017  15.409   3.835  11.671 -0.1871  0.1670  0.3458
21549W        W37018   9.662  13.435  14.755  0.0061  0.0003 -0.0882
21550W        W37019   0.857  10.882  14.728 -0.1136  0.1355  0.0060
21551W        W37020   8.872   6.839   4.319  0.0733 -0.1718 -0.1277
21552W        W37021   1.993   0.110  11.573 -0.0712 -0.1091  0.0154
21553W        W37022   5.881  10.876   2.539  0.1338  0.0147 -0.1584
21554W        W37023   1.862   7.030   3.942  0.2154  0.2072 -0.1815
21555W        W37024   8.045  14.635   0.044  0.1027 -0.0008  0.0607
21556W        W37025  15.438   0.950  12.724  0.3805  0.0867 -0.0245
21557W        W37026  10.424   6.114  16.767 -0.0986 -0.1977  0.2627
21558W        W37027  12.144  16.976   1.493 -0.0544  0.2519 -0.0635
21559W        W37028   4.596   4.296   1.381  0.1593  0.0419 -0.0010
21560W        W37029   6.458   7.539  11.489 -0.1525 -0.0346  0.4029
21561W        W37030   0.521   5.723  11.683 -0.0376  0.0912 -0.1898
21562W        W37031  16.817  17.714   3.267 -0.0474  0.2917 -0.0261
21563W        W37032   4.161   1.842  16.682 -0.1042  0.0205  0.0049
21564W        W37033   2.530   3.276  11.893  0.1627  0.2592 -0.0421
21565W        W37034  12.610  10.090   3.258 -0.0740  0.1007  0.0375
21566W        W37035  13.730   3.629   2.905  0.2023  0.2107  0.0165
21567W        W37036  16.218   8.916  11.078 -0.0310 -0.1275 -0.1671
21568W        W37037  12.856  13.973   4.189 -0.0789  0.1058 -0.0730
21569W        W37038  10.733   3.936  13.428  0.2388  0.1171 -0.1173
21570W        W37039   8.803   6.720   3.250  0.0711  0.0150  0.0378
21571W        W37040  13.279   3.146   3.402  0.0334 -0.1090  0.0131
21572W        W37041   6.308  10.032   3.551  0.3205  0.0060  0.1474
21573W        W37042  17.239  13.982   3.946  0.2100 -0.1742  0.0426
21574W        W37043  11.336  12.711   1.053  0.1197  0.0887 -0.0894
21575W        W37044   3.730   3.826   3.370 -0.0889  0.0332  0.2201
21576W        W37045   0.297  14.127  13.886  0.2335 -0.1267 -0.0016
21577W        W37046  12.500  10.303   2.806  0.1454  0.2893  0.1056
21578W        W37047   7.752   5.966  14.658  0.0017  0.0490  0.1539
21579W        W37048  13.761   1.411   3.741 -0.1570 -0.0073  0.0293
21580W        W37049   6.939  17.345   0.682 -0.0652 -0.0274 -0.1933
21581W        W37050   7.518   3.415  14.542  0.1203 -0.2042 -0.1458
21582W        W37051  17.341   0.529   2.989  0.2125 -0.1042  0.0215
21583W        W37052  12.150   2.211   1.496  0.0375 -0.1883 -0.2318
21584W        W37053   0.501   5.312  15.700  0.0730 -0.2308 -0.1350
21585W        W37054   7.328  11.360   4.512 -0.3217  0.1636 -0.3927
21586W        W37055   1.047  10.049   0.981  0.2257  0.1844 -0.0604
21587W        W37056   6.399  11.953  12.245  0.1569 -0.0861  0.0041
21588W        W37057  16.956   7.654  16.823  0.1678  0.1408  0.0618
21589W        W37058  15.594  15.057   1.318 -0.0688 -0.1442 -0.0256
21590W        W37059   2.681   5.214   0.790 -0.1544  0.1821  0.2781
21591W        W37060   1.332  10.865   1.123 -0.2062  0.1149 -0.2640
21592W        W37061   1.478   0.654  13.127 -0.3939  0.0549 -0.0398
21593W        W37062   0.469   6.363   3.857  0.2238  0.2782 -0.0466
21594W        W37063  14.697   9.693  13.845  0.0349  0.4374  0.0675
21595W        W37064  17.735  13.569   4.527 -0.2874  0.0352  0.0732
21596W        W37065  14.264   0.306  13.800 -0.0644 -0.3184 -0.2513
21597W        W37066  12.626   0.856   1.538 -0.1985 -0.0336 -0.3401
21598W        W37067   1.819   8.264  15.036 -0.0293 -0.1395 -0.0421
21599W        W37068   8.733   7.409  13.619 -0.1040 -0.2114  0.1233
21600W        W37069   5.358  14.434   1.732 -0.1590  0.0318 -0.1254
21601W        W37070  12.930  14.537   5.241  0.0616 -0.1448 -0.0251
21602W        W37071   5.513  15.335   0.750  0.3139  0.2171  0.1752
21603W        W37072  13.904  17.639   4.365 -0.0525  0.1600 -0.1583
21604W        W37073   1.818   4.810   4.231 -0.0899  0.0461  0.0878
21605W        W37074   6.640  17.668  15.770 -0.2342 -0.1492 -0.0712
21606W        W37075   8.688   5.119  13.789  0.0620 -0.0300 -0.1530
21607W        W37076   2.188   8.605  14.095  0.2559  0.1733 -0.1764
21608W        W37077   1.872   1.181   4.235  0.0995  0.2649  0.1068
21609W        W37078   7.546  12.205   1.448  0.1781  0.1614  0.2497
21610W        W37079   9.237  15.783   1.898  0.1065 -0.0535 -0.3706
21611W        W37080   9.866  16.990   5.044  0.0259 -0.1934 -0.1881
21612W        W37081   2.312  16.633  15.774  0.1487 -0.1600 -0.4134
21613W        W37082   7.773  15.973   4.272 -0.2368  0.0391  0.1273
21614W        W37083   4.222   9.115   1.196 -0.0284 -0.1972  0.0342
21615W        W37084   4.833   1.942   4.436 -0.0302  0.0452  0.1170
21616W        W37085  13.537   5.367  11.902 -0.1775  0.2326  0.2145
21617W        W37086  11.024  14.178   4.076  0.0067  0.2776  0.2256
21618W        W37087   4.396  10.728  14.177  0.1346  0.0374  0.0265
21619W        W37088   7.438   2.717   4.317 -0.1206  0.2029  0.1223
21620W        W37089   0.293  10.373  11.410 -0.1281  0.1916  0.1001
21621W        W37090  16.386  11.900  13.367 -0.0166 -0.0878 -0.3282
21622W        W37091   6.606  13.701   0.881  0.0440 -0.0099 -0.0214
21623W        W37092   4.370   1.096   4.204 -0.0024  0.0125 -0.2089
21624W        W37093  14.417   0.973   1.933 -0.3649  0.0037 -0.1645
21625W        W37094  12.230  17.596   1.705  0.1216 -0.1362 -0.0996
21626W        W37095  17.517   1.243   1.673  0.1581 -0.0057  0.1561
21627W        W37096  17.680   4.002  13.095 -0.3476 -0.1593  0.0543
21628W        W37097   1.800  12.243  14.874  0.0863  0.2184 -0.0062
21629W        W37098   2.751   1.830  10.977 -0.0762 -0.0051  0.0067
21630W        W37099  16.868   6.928   1.129  0.0812 -0.0991  0.4469
21631W        W37100  13.044  13.024  13.061  0.0300  0.0600 -0.0514
21632W        W37101   2.234   6.850   3.193  0.1204  0.0217 -0.2589
21633W        W37102   1.119   0.747  14.146 -0.0491 -0.1281  0.2043
21634W        W37103   5.753   2.808  12.973 -0.0910 -0.0697 -0.1575
21635W        W37104   9.757   8.860  13.841  0.0729 -0.1520  0.0921
21636W        W37105   0.435   0.023   3.019 -0.0092  0.0545 -0.3115
21637W        W37106  14.651  16.684   1.351 -0.0355  0.0874 -0.1653
21638W        W37107  16.089   8.979   1.863 -0.1870  0.0281  0.1356
21639W        W37108   6.043  12.624  15.575  0.2831 -0.2395  0.0309
21640W        W37109  10.248   7.829   2.593 -0.1961  0.0101 -0.2519
21641W        W37110   6.002   1.069   6.223 -0.0209  0.1426 -0.0190
21642W        W37111   4.210  11.990   3.567 -0.3492 -0.0234  0.0314
21643W        W37112  16.466   0.555   3.221  0.0445  0.0347 -0.0942
21644W        W37113  15.797   5.106  16.807  0.1592  0.1445  0.0477
21645W        W37114   4.723  10.161  11.786  0.0067 -0.0935  0.0441
21646W        W37115  17.616  11.040  11.150 -0.1470 -0.1915 -0.2242
21647W        W37116  14.908   7.570  12.567 -0.1840 -0.1212  0.0640
21648W        W37117   5.699   4.318  14.412  0.1938 -0.0023  0.0326
21649W        W37118   9.272  11.399   3.077 -0.2716  0.0831 -0.2829
21650W        W37119   9.444   2.900   5.278 -0.3095 -0.0399 -0.0825
21651W        W37120  13.192   2.350   5.887 -0.0300  0.1618 -0.0693
21652W        W37121   8.290   6.118   4.239  0.2220 -0.0875  0.0325
21653W        W37122   0.342  12.314  13.027  0.0522 -0.4304 -0.0538
21654W        W37123   4.980   1.313  11.736 -0.0203  0.0709  0.0522
21655W        W37124   0.345  12.370  10.563 -0.0889 -0.1006 -0.2958
21656W        W37125   4.634   9.416  10.561  0.1490  0.1699  0.3399
21657W        W37126   2.192   8.681   2.435  0.2135  0.0473  0.1514
21658W        W37127  15.894   8.317   0.582  0.0765  0.1448  0.0457
21659W        W37128  14.360   2.957  13.409  0.0255  0.0898  0.0309
21660W        W37129  16.066   0.237  12.994  0.0484 -0.4443  0.0973
21661W        W37130  15.014  12.739   2.026  0.0483 -0.0518 -0.0347
21662W        W37131  11.808  14.385  15.353  0.2176 -0.2631 -0.1867
21663W        W37132   7.578   5.065  15.062 -0.3572  0.2162  0.0010
21664W        W37133   3.258  12.078  16.694  0.1661 -0.3245  0.0005
21665W        W37134  15.443  12.642  15.039 -0.1347  0.1373 -0.1823
21666W        W37135   5.405  11.249  12.131 -0.2131  0.1049  0.0444
21667W        W37136   7.731  16.792   5.521 -0.2364 -0.0041  0.3041
21668W        W37137   1.510   9.121  11.939 -0.1031  0.2698  0.0755
21669W        W37138  15.438   0.707  15.717 -0.0077 -0.0566  0.0164
21670W        W37139   9.579   9.579  11.872  0.0561 -0.3217  0.0256
21671W        W37140  13.950  10.978  14.723 -0.0237  0.2302 -0.2472
21672W        W37141   3.171   9.916   0.030  0.0209  0.1713  0.0804
21673W        W37142  12.280   9.844   4.637 -0.1487  0.2481  0.1197
21674W        W37143  10.492   5.642   5.934  0.2632 -0.1219 -0.0474
21675W        W37144  11.559  15.638   0.969  0.1601 -0.0511  0.1742
21676W        W37145   8.415  17.030  15.934 -0.1050  0.3012  0.2050
21677W        W37146   8.014  14.664   2.955 -0.0589  0.1475  0.0518
21678W        W37147   3.411   5.266   2.082 -0.0764 -0.0302  0.1268
21679W        W37148  16.849   9.550   4.784  0.2058 -0.0073 -0.1971
21680W        W37149  17.208  16.996  14.260 -0.0135 -0.2365  0.2623
21681W        W37150  13.963   5.001   3.592 -0.1743 -0.0706  0.0527
21682W        W37151   1.272   4.443  13.236  0.0189  0.0159  0.0679
21683W        W37152  11.731   2.838   3.509  0.0668 -0.3820  0.0174
21684W        W37153   4.581   6.755  14.359  0.2669  0.0838  0.0182
21685W        W37154   6.143   8.929   0.061  0.1380 -0.1118 -0.6923
21686W        W37155   1.205   3.480   1.957 -0.0831 -0.1470 -0.1207
21687W        W37156  14.965   3.612  12.576  0.3430 -0.1326 -0.0868
21688W        W37157  17.749   1.853  15.465 -0.3369 -0.0499  0.0672
21689W        W37158   1.268  13.715   3.805  0.0117 -0.1448 -0.0820
21690W        W37159  10.190  10.459   4.953  0.1456  0.0906  0.0568
21691W        W37160  13.492  10.843  16.304 -0.1537  0.3996  0.0674
21692W        W37161   2.743   4.183   3.655  0.3561 -0.0098  0.3376
21693W        W37162  17.316   8.828  13.095  0.1143  0.0315 -0.0937
21694W        W37163   5.431  16.209   4.506 -0.2431 -0.1258 -0.1574
21695W        W37164  16.086  10.283   3.721  0.0006  0.0665 -0.1810
21696W        W37165  15.844   0.226   0.992  0.1180  0.0476  0.1479
21697W        W37166  15.160  15.726  13.622  0.1913 -0.1167 -0.2559
21698W        W37167   0.661  14.638   1.335 -0.1032  0.0073 -0.0031
21699W        W37168   9.419  10.701   3.593  0.1013  0.3337 -0.2634
21700W        W37169   6.308   0.956   1.401  0.1311  0.2039 -0.2750
21701W        W37170  12.147  13.093  15.685 -0.0837 -0.1156  0.0296
21702W        W37171  11.886  12.671  14.772  0.0733  0.1153 -0.0571
21703W        W37172   6.119  14.506  11.964 -0.0037  0.1494  0.1980
21704W        W37173  12.426   1.544   4.783  0.2322  0.3161  0.0105
21705W        W37174  15.195   9.666  11.687  0.2395 -0.0009  0.2047
21706W        W37175   4.973   6.111   4.165  0.2179  0.3011 -0.2552
21707W        W37176   6.266   7.584  16.450 -0.1391  0.1144 -0.0840
21708W        W37177  12.576  13.829   0.117 -0.2435 -0.2046 -0.0219
21709W        W37178   0.183  10.972  15.998 -0.1331  0.0879  0.0414
21710W        W37179  15.982   7.170  15.406  0.0778 -0.1762  0.3097
21711W        W37180  14.806  12.454   4.747 -0.0183  0.0416  0.0945
21712W        W37181   8.602   6.886  12.828 -0.1098 -0.0559 -0.2857
21713W        W37182  11.579   9.253   4.558  0.1620  0.2388  0.1465
21714W        W37183  10.096   4.122  15.105  0.3253 -0.2024  0.1260
21715W        W37184   9.773  11.586  13.096  0.0088  0.0913 -0.0430
21716W        W37185  12.704   6.100   0.571 -0.3471 -0.0064  0.1185
21717W        W37186   4.160   3.621  13.563  0.0503  0.0755  0.1786
21718W        W37187  10.602   0.520   4.298 -0.3220 -0.1531  0.0927
21719W        W37188   3.007  10.484  14.345  0.3389  0.1870 -0.4585
21720W        W37189   2.182  10.527   2.704 -0.3204 -0.1373  0.0967
21721W        W37190  14.755   6.457  14.276  0.1407 -0.4557 -0.3793
21722W        W37191   8.114   9.139   4.513  0.3090 -0.1221  0.2510
21723W        W37192   4.626   5.356  13.866 -0.0250  0.2369 -0.1317
21724W        W37193   9.197   0.007  16.070  0.3367 -0.1941 -0.2883
21725W        W37194  17.075  12.950   2.365  0.1211 -0.1493  0.1137
21726W        W37195   9.378  15.511   4.213 -0.0550  0.0186 -0.1439
21727W        W37196   6.775   3.352  16.795  0.0710 -0.2413 -0.0405
21728W        W37197   7.676   4.488   5.883  0.2038  0.0505 -0.1060
21729W        W37198  13.365  15.086  15.716 -0.0925  0.1111 -0.0304
21730W        W37199   1.262   6.229  14.226  0.0540  0.0444 -0.0590
21731W        W37200  13.755   5.319   2.073  0.2313  0.0042 -0.0235
21732W        W37201  11.118  13.686   2.442 -0.0199 -0.0105  0.1496
21733W        W37202  10.742  17.779  15.797 -0.2465  0.1540 -0.0082
21734W        W37203   8.974   2.365   0.819  0.0943 -0.2108  0.0153
21735W        W37204   5.401   0.788   0.902 -0.2015 -0.4137  0.3404
21736W        W37205  15.558  15.458  15.683 -0.1257 -0.1285 -0.2501
21737W        W37206   4.258  15.666  13.783  0.0791 -0.0697 -0.1363
21738W        W37207   6.488   3.471   0.706  0.1819  0.2579 -0.0944
21739W        W37208  15.325   6.180   2.305 -0.0826 -0.0075 -0.0828
21740W        W37209  10.951   5.317  14.893 -0.2197  0.0131 -0.3485
21741W        W37210  12.287   5.123  13.859 -0.0410  0.1354 -0.1353
21742W        W37211   8.940  12.989   4.162 -0.0189  0.0550 -0.1326
21743W        W37212  17.078   1.373  16.253 -0.3036 -0.3074  0.1146
21744W        W37213   9.591  10.323   6.266  0.0450  0.0340  0.2935
21745W        W37214   6.305  10.992  15.868 -0.0056 -0.2378 -0.1949
21746W        W37215  15.081  16.645  15.311 -0.1329  0.1632 -0.1790
21747W        W37216   2.439  12.135   1.087 -0.3682  0.3568 -0.0345
21748W        W37217  15.089   7.936   0.400 -0.2982  0.0682  0.3749
21749W        W37218   7.459   0.495  12.210  0.0914  0.1109 -0.1223
21750W        W37219   0.131   4.734   1.428 -0.1013  0.2881 -0.1144
21751W        W37220   9.599   9.489   4.937 -0.0271 -0.4262  0.2076
21752W        W37221   7.963   5.462  11.954  0.1774  0.0940  0.0614
21753W        W37222  10.430  17.082   5.458  0.1980 -0.0185  0.2092
21754W        W37223  15.528  16.871   3.639 -0.1772  0.1901  0.1285
21755W        W37224  10.272  10.265  11.986  0.1201 -0.3556 -0.1297
21756W        W37225  17.547  13.109  13.320  0.0120  0.0459 -0.0477
21757W        W37226  11.164  12.485   4.924 -0.0167 -0.0587  0.0966
21758W        W37227  14.844   2.684  13.456  0.1400  0.1061 -0.0804
21759W        W37228   7.831  14.059   5.589 -0.0275 -0.2879  0.2573
21760W        W37229   1.941   3.110  10.986  0.5617  0.1376  0.0008
21761W        W37230   4.953   3.412  12.940  0.0053  0.0159 -0.2547
21762W        W37231   4.829  15.091  13.378  0.2377 -0.4108 -0.4273
21763W        W37232   4.994   9.632   3.469  0.1486 -0.1161  0.0888
21764W        W37233  16.363   5.669   0.414 -0.0998  0.1708  0.2248
21765W        W37234   5.766  16.455   1.541 -0.0197 -0.1597 -0.0367
21766W        W37235   5.652   4.621   3.590 -0.0858 -0.0404  0.2691
21767W        W37236   5.799  10.941   3.108 -0.2914  0.0180  0.0877
21768W        W37237   4.378  11.168   5.622 -0.1363  0.0467 -0.0835
21769W        W37238   1.363  10.865   2.683  0.1097  0.0664  0.0594
21770W        W37239  16.191  17.184  11.878 -0.0176  0.0990 -0.3263
21771W        W37240   9.057   6.201   2.284 -0.3579 -0.0261  0.0764
21772W        W37241   7.279  14.258  14.850 -0.1768  0.0283  0.0227
21773W        W37242   3.588  17.263   2.038 -0.0219  0.1481 -0.1120
21774W        W37243   1.066  11.166  14.311  0.4531 -0.1655 -0.2004
21775W        W37244  13.851  11.877  14.760  0.1205 -0.0887  0.0591
21776W        W37245  15.849   6.853  14.108 -0.0466 -0.0281  0.4977
21777W        W37246  15.650   3.104   4.591 -0.0578 -0.1620  0.1362
21778W        W37247   0.611   9.676  11.535  0.2218 -0.1742 -0.1282
21779W        W37248  15.638   5.233   3.959  0.0017  0.1298 -0.0117
21780W        W37249  15.093   2.489  13.060  0.0340 -0.1436 -0.0409
21781W        W37250  14.164  12.930   2.891 -0.2976  0.2737 -0.0629
21782W        W37251   5.167   4.884   1.824  0.0362  0.2376  0.0232
21783W        W37252   0.545   8.308  11.776 -0.0363 -0.1071  0.0412
21784W        W37253  10.344  17.232   5.961 -0.0333 -0.0417 -0.1686
21785W        W37254   5.842  10.527  16.169 -0.0808 -0.0555  0.0684
21786W        W37255  13.904   9.220   2.943 -0.0363 -0.2265 -0.2079
21787W        W37256  15.238   9.859   4.375  0.4440  0.2043 -0.2483
21788W        W37257   9.939  12.480   2.459 -0.1232  0.1920  0.0259
21789W        W37258   0.948  17.450   3.559  0.2018  0.2442  0.2056
21790W        W37259  14.796  10.466  15.828  0.2569  0.2576  0.0611
21791W        W37260   5.156  12.818   5.033 -0.2793 -0.1583  0.2764
21792W        W37261   3.546  17.576   0.831 -0.0293  0.4710 -0.0572
21793W        W37262   2.813   9.445  12.752  0.1334  0.1366 -0.0476
21794W        W37263  12.246   6.270   3.563 -0.1110 -0.2467 -0.0095
21795W        W37264   6.844   9.767  13.342 -0.0138 -0.1728 -0.0155
21796W        W37265   7.530  12.133  13.758 -0.0358 -0.2234  0.2418
21797W        W37266   8.072   0.564   5.668  0.0910  0.1174  0.1514
21798W        W37267  14.701   9.625   2.989 -0.0300  0.1256 -0.1280
21799W        W37268  14.666   4.931  14.762 -0.0455 -0.2126 -0.2129
21800W        W37269  16.122   4.842  16.072 -0.1169  0.0256 -0.2444
21801W        W37270   6.408  10.185   2.160 -0.1811  0.0785  0.0457
21802W        W37271   0.367   1.176  13.513  0.2297  0.1089  0.0633
21803W        W37272   5.661  10.003  15.960 -0.2499 -0.1291 -0.3578
21804W        W37273  10.961   8.507   6.593 -0.2173  0.1950 -0.0597
21805W        W37274   9.519  17.474   5.571  0.1165  0.1267  0.1527
21806W        W37275   9.043   5.984   3.741  0.0725  0.0202 -0.1562
21807W        W37276  11.763   4.959   4.126  0.1603  0.3345  0.0012
21808W        W37277   3.352  12.608  12.071  0.4651 -0.1268  0.1785
21809W        W37278   7.305  14.315   0.324 -0.1047  0.0618  0.0817
21810W        W37279   2.364  16.272   2.329 -0.1107  0.0433  0.1316
21811W        W37280  14.695   7.460  14.888  0.2211  0.0400  0.2702
21812W        W37281   5.408  10.735   5.240 -0.2393  0.0774  0.3120
21813W        W37282   8.860   4.906   0.949  0.0375 -0.0373  0.3375
21814W        W37283  14.012   2.851   2.237  0.0754 -0.2579 -0.2064
21815W        W37284  15.268   5.812   3.076  0.4130  0.3148 -0.1147
21816W        W37285   2.804  13.020   5.041  0.0892 -0.1100  0.0114
21817W        W37286   5.046  13.398  16.782 -0.1029 -0.1472  0.1574
21818W        W37287   0.241   4.332   5.639 -0.1624 -0.1702  0.4156
21819W        W37288   2.968   0.965  12.593 -0.2879  0.1830  0.1006
21820W        W37289  15.107  14.685   0.470  0.5024  0.0436 -0.0622
21821W        W37290  14.770   0.894  11.374 -0.1286  0.0641 -0.1147
21822W        W37291  13.834  16.010  14.806 -0.1961 -0.1702  0.1360
21823W        W37292  16.474  11.870   4.918  0.1832  0.0799 -0.1612
21824W        W37293   6.813   7.830   0.417 -0.0969 -0.1033  0.4512
21825W        W37294   0.233   1.472   5.310 -0.1522  0.0914  0.0019
21826W        W37295  16.932  16.389   0.731 -0.0929  0.1206  0.0294
21827W        W37296   9.370  16.481  14.543  0.2056 -0.1510  0.1852
21828W        W37297  15.688   8.327   5.525 -0.0748 -0.3341  0.1858
21829W        W37298   0.126   4.953  13.783 -0.2231  0.3512 -0.0229
21830W        W37299  11.063   8.713   5.208  0.1499  0.1374  0.3787
21831W        W37300   4.870   5.648  13.242  0.0028  0.0600 -0.1606
21832W        W37301   8.048  13.769  16.158 -0.2245 -0.2245 -0.1566
21833W        W37302   8.771  10.321  12.288 -0.1036 -0.0584  0.1326
21834W        W37303   2.723   3.700   4.754  0.0262  0.1114 -0.5015
21835W        W37304   1.800   8.772  11.689 -0.1270 -0.0309 -0.2256
21836W        W37305   8.252   1.070   6.476  0.1071 -0.2064 -0.1815
21837W        W37306   0.508   7.048  16.709  0.1089 -0.2069 -0.0286
21838W        W37307   0.475  11.906   1.942 -0.0944 -0.0068  0.1452
21839W        W37308  14.201   9.791   2.832  0.2256 -0.0085 -0.2345
21840W        W37309  10.870   0.054   4.066 -0.0122 -0.0044 -0.1431
21841W        W37310   6.112   2.194  14.908 -0.4281 -0.0560 -0.0243
21842W        W37311  12.573   9.739   0.597  0.2255  0.0292  0.0502
21843W        W37312   1.927   8.304   2.059 -0.0669  0.1102 -0.0042
21844W        W37313   6.698  10.828  12.708 -0.0212  0.1142 -0.1305
21845W        W37314   1.036   4.297  12.803  0.1937 -0.0886  0.0185
21846W        W37315   3.736   3.929  12.847 -0.2038 -0.3248 -0.0796
21847W        W37316  14.502  14.512   1.632 -0.1280 -0.1310 -0.0714
21848W        W37317  15.784  11.479  15.931  0.0191 -0.1242  0.3475
21849W        W37318   4.973  13.569  12.342  0.1188  0.1952  0.1480
21850W        W37319   2.454   7.510   3.942 -0.0694 -0.1608  0.0948
21851W        W37320  14.640   2.801  16.005 -0.2391  0.0646 -0.0999
21852W        W37321   6.427  12.355   0.478  0.0954 -0.0578 -0.1414
21853W        W37322   8.705  11.510  16.563  0.2092  0.1497 -0.1920
21854W        W37323   3.701   9.360   2.564  0.1172  0.2158 -0.0425
21855W        W37324   0.324   4.651  16.336 -0.1909  0.2061  0.0678
21856W        W37325  13.535   2.125  14.731 -0.1719 -0.1978 -0.3581
21857W        W37326   1.116  16.964   2.654  0.0626 -0.1235  0.1310
21858W        W37327   0.280  11.146   3.739 -0.0675 -0.0154 -0.3066
21859W        W37328  14.476   9.193   3.090  0.3976 -0.2036 -0.0450
21860W        W37329  13.814  16.969   5.161 -0.1285  0.1945  0.1992
21861W        W37330  12.928  17.336   4.835 -0.1618 -0.1167 -0.1745
21862W        W37331   7.706   6.298   3.813 -0.1100 -0.1572 -0.0279
21863W        W37332  10.095   6.537  16.072  0.1586 -0.4080  0.1917
21864W        W37333   1.151   2.643   1.360  0.1638  0.1174  0.2023
21865W        W37334  14.363  17.603   5.408  0.0774  0.1263  0.0975
21866W        W37335   3.775  11.705  16.653  0.2205 -0.1592  0.1339
21867W        W37336   7.961  15.008  12.059  0.0264  0.2967 -0.2253
21868W        W37337  12.488   9.959  13.593 -0.0312  0.1015  0.1295
21869W        W37338   6.070   8.142   2.564 -0.3160 -0.2503 -0.1117
21870W        W37339  12.417  16.718   4.353 -0.0878  0.1896  0.1565
21871W        W37340  15.835  15.779   0.596  0.3493  0.0795 -0.0513
21872W        W37341   7.994   2.403  11.539  0.0152 -0.2860 -0.0709
21873W        W37342  15.965  16.804   4.507 -0.0349  0.1835 -0.2270
21874W        W37343   9.803  14.204   3.445 -0.1457 -0.1686 -0.0587
21875W        W37344   5.821  11.154   2.104  0.1569 -0.1613 -0.1847
21876W        W37345  17.409   0.868   1.407  0.0410 -0.1843  0.2733
21877W        W37346  16.395  11.719   0.376 -0.3022  0.0227  0.1069
21878W        W37347   3.453  17.570   5.013 -0.0166 -0.2688  0.0844
21879W        W37348   9.355  12.089   1.748 -0.1600  0.3686  0.1475
21880W        W37349  15.569  17.126   4.107 -0.0228  0.1601 -0.3018
21881W        W37350  12.155  15.475  12.966  0.1582  0.1525 -0.0262
21882W        W37351   1.331  13.645   0.002  0.1045 -0.1373 -0.0090
21883W        W37352   8.440  13.460   5.426 -0.0629 -0.1255 -0.2612
21884W        W37353  10.302   9.579  12.463  0.3092 -0.1466  0.1534
21885W        W37354   3.853   0.307  16.120  0.3148 -0.0885  0.0679
21886W        W37355   1.988  17.700   2.868 -0.0038 -0.2989 -0.0576
21887W        W37356  11.791  12.728   3.249  0.0260 -0.2786  0.0985
21888W        W37357  16.066  15.085  14.239  0.1227 -0.1052  0.1379
21889W        W37358   6.981  13.260   6.210 -0.1312  0.1597 -0.0616
21890W        W37359  12.957  14.118  16.520 -0.0821 -0.2561  0.2628
21891W        W37360   8.478   1.636  12.687 -0.0494 -0.0277 -0.1858
21892W        W37361  13.378   7.063  14.151 -0.1777  0.1782  0.2090
21893W        W37362  10.477   3.382  13.977  0.0222 -0.0215 -0.1541
21894W        W37363   7.615  11.931  15.336  0.2844 -0.0694  0.1022
21895W        W37364   6.389  15.810   5.024 -0.0646 -0.1927 -0.2920
21896W        W37365   4.888   7.133   0.623  0.1006 -0.2734 -0.1664
21897W        W37366  15.586  11.688  14.772  0.1542  0.0189 -0.0522
21898W        W37367  11.154   9.332  15.782  0.2212 -0.1406  0.0143
21899W        W37368  15.051   2.268  14.890 -0.0193 -0.1581  0.1227
21900W        W37369  16.023   3.176  14.492  0.0210 -0.1224  0.1910
21901W        W37370  16.397  14.260   0.076  0.2370  0.0852  0.1098
21902W        W37371   3.002  11.850  14.253 -0.0007  0.0396  0.1207
21903W        W37372  11.648   6.266  13.014 -0.1364 -0.1198  0.0773
21904W        W37373   1.703  11.062   3.646  0.2895 -0.2311 -0.3430
21905W        W37374   7.866   0.713  16.408  0.0172 -0.0785 -0.0780
21906W        W37375  10.036  14.341   3.858  0.2035 -0.3925 -0.1099
21907W        W37376  11.229  11.515  12.354  0.1845 -0.0663 -0.0333
21908W        W37377   3.696   2.727  15.542 -0.3029  0.0536 -0.0420
21909W        W37378  11.170  12.232   1.045 -0.0039 -0.2122  0.3115
21910W        W37379  10.688  12.215   4.799  0.2569  0.0916  0.1714
21911W        W37380   1.260  15.402  12.339 -0.0906  0.0355 -0.2862
21912W        W37381  15.500   2.674   5.440  0.1366  0.4639 -0.0930
21913W        W37382  12.927  14.766  16.337 -0.1866  0.3626  0.1750
21914W        W37383   4.341   1.598  14.640  0.1110 -0.1402  0.1866
21915W        W37384  15.258   6.029  12.436 -0.3138  0.0999 -0.0521
21916W        W37385   9.280   8.736  13.925  0.1597 -0.0914  0.3678
21917W        W37386   1.174   0.340   0.638  0.3638  0.1353  0.0481
21918W        W37387  10.774   6.539   1.946 -0.2084 -0.0996 -0.1452
21919W        W37388   8.290   5.491   4.222 -0.0422 -0.1414 -0.0782
21920W        W37389   0.405   5.256   5.463  0.1707 -0.1776 -0.0492
21921W        W37390   8.846   2.458  12.515  0.4509 -0.0177 -0.2426
21922W        W37391  15.686  13.116   4.866  0.1937  0.0192  0.1206
21923W        W37392   3.713   1.884  15.400  0.0733  0.0254 -0.0877
21924W        W37393   8.632  17.746   4.124  0.4841  0.0970  0.2768
21925W        W37394   3.801  12.599  12.872  0.1274  0.2735  0.0214
21926W        W37395   8.522  12.710  12.550 -0.0633  0.0334  0.1441
21927W        W37396   8.325  11.471   3.948 -0.0322 -0.1628  0.0896
21928W        W37397   2.435   9.716  11.268 -0.0276 -0.0045 -0.4156
21929W        W37398  17.510   2.145   1.402 -0.4622 -0.0079 -0.0704
21930W        W37399   8.419  12.540   3.612 -0.1835 -0.0715 -0.0765
21931W        W37400  15.951   4.165  16.772  0.1863  0.0063  0.0903
21932W        W37401  14.766   1.885   3.443 -0.1140 -0.1518  0.0132
21933W        W37402  15.025  10.475   1.066 -0.0435 -0.0841  0.0368
21934W        W37403   8.621  17.625   5.000  0.2488 -0.1250 -0.0993
21935W        W37404   5.568   4.996   4.705  0.1351 -0.1210  0.2683
21936W        W37405  11.904  13.936  13.584  0.1498  0.1255 -0.0423
21937W        W37406   7.077  14.447  14.428 -0.3303  0.0338  0.1229
21938W        W37407   3.087   0.734   0.733 -0.0491  0.0229 -0.3492
21939W        W37408   5.690  16.973  12.822 -0.0695  0.1867 -0.1414
21940W        W37409   5.647  11.671  13.415  0.2797  0.0038 -0.1411
21941W        W37410   5.267   8.556   4.941  0.0995 -0.0901 -0.1847
21942W        W37411   3.545   9.933  13.428  0.1217  0.2582 -0.0963
21943W        W37412   4.051   6.458   5.091 -0.0315  0.0771  0.0353
21944W        W37413   6.035   0.863  14.477 -0.0735 -0.1100  0.1653
21945W        W37414   6.076   8.070  12.273  0.0525 -0.3695  0.1666
21946W        W37415   6.831   7.328   0.052 -0.1444 -0.0795  0.0151
21947W        W37416   9.968   3.134   1.779  0.0585  0.0717 -0.0693
21948W        W37417  10.180  10.048  14.326 -0.0766  0.1868 -0.0605
21949W        W37418   5.333   8.735   3.537  0.0974 -0.0109 -0.0653
21950W        W37419  16.542   2.661  12.613 -0.1725 -0.1213  0.2228
21951W        W37420   7.627  10.481   5.620  0.1511  0.2224 -0.1279
21952W        W37421   0.956   6.320   3.091  0.1488 -0.0166 -0.0917
21953W        W37422   9.278  10.111   3.645 -0.0697 -0.0979  0.1935
21954W        W37423  10.709   5.910   3.202  0.1267 -0.0842 -0.1410
21955W        W37424   1.156  10.875   3.464  0.0736  0.4281  0.1657
21956W        W37425  11.358  13.743   3.354 -0.0086 -0.1927 -0.0920
21957W        W37426  16.982  10.469  12.030  0.0805 -0.2572 -0.0453
21958W        W37427  11.746   9.284  14.347  0.1154 -0.1464  0.1685
21959W        W37428   2.098  12.687  16.295 -0.2345  0.1050  0.0703
21960W        W37429  12.020   3.753   4.162  0.0575  0.0483 -0.3685
21961W        W37430   2.711  11.874  11.763  0.0037  0.2431 -0.0385
21962W        W37431   3.143  16.835   6.120 -0.0266 -0.0389 -0.1547
21963W        W37432  11.494  13.950   4.533 -0.1769 -0.0308 -0.1616
21964W        W37433   4.900   7.960   4.188 -0.1309 -0.1048  0.2954
21965W        W37434  11.867   0.286  14.867  0.1375  0.0766  0.1500
21966W        W37435   6.123   0.774  11.750 -0.0967  0.0740  0.1532
21967W        W37436   7.326  14.598  12.453  0.1374 -0.0981 -0.4336
21968W        W37437   2.832  17.736  12.387 -0.1493 -0.0644 -0.0835
21969W        W37438   8.528  12.760  12.045 -0.0571 -0.0596 -0.0063
21970W        W37439  14.545   3.667  15.223 -0.0532 -0.2342 -0.1372
21971W        W37440  13.039  12.029   5.837  0.2111 -0.0378  0.0542
21972W        W37441   9.146   4.139  11.677 -0.0504  0.0437 -0.0639
21973W        W37442  10.131   1.001  15.611 -0.1366 -0.1042  0.1808
21974W        W37443   5.421  15.883   2.061 -0.0478  0.1019  0.1091
21975W        W37444  15.173   5.494   1.865 -0.1612 -0.1564 -0.2013
21976W        W37445  15.383   4.575   4.835  0.0241  0.0676 -0.1944
21977W        W37446  10.200   3.603  15.119 -0.0123 -0.0631  0.1429
21978W        W37447   5.965  11.485   2.446  0.0957 -0.1530 -0.1912
21979W        W37448   7.604  14.856   5.038  0.1259 -0.0400 -0.0486
21980W        W37449   8.602  12.530  13.015  0.0060 -0.0873 -0.2172
21981W        W37450   9.023   8.071  16.061  0.0396  0.2794 -0.1367
21982W        W37451   2.970  16.977  15.492 -0.3818  0.1998 -0.0827
21983W        W37452  14.321   8.185  15.642 -0.2879 -0.1940 -0.0413
21984W        W37453   8.121   7.168   1.667 -0.2620 -0.0426  0.4585
21985W        W37454   9.681   1.734  15.011 -0.1945 -0.2394  0.1095
21986W        W37455   9.941  16.388  12.041  0.0224  0.1699 -0.1576
21987W        W37456  10.058   3.522  13.703  0.4180 -0.0533  0.0092
21988W        W37457  12.546  14.126   5.360  0.3806  0.0724 -0.1162
21989W        W37458  11.600   1.182   0.986 -0.0503  0.0137 -0.2115
21990W        W37459   3.172   2.230  13.088  0.0264 -0.2749 -0.0541
21991W        W37460   0.051  12.586  11.214 -0.0131 -0.2801 -0.1666
21992W        W37461   0.227   3.738  15.588 -0.0480  0.2944  0.0407
21993W        W37462   1.200   6.368  12.938 -0.0994 -0.4474 -0.4169
21994W        W37463   7.230   0.083   2.202 -0.1489  0.0298 -0.1467
21995W        W37464   0.740   1.500   0.654  0.3062 -0.0813  0.1471
21996W        W37465  11.918  12.608   1.711 -0.1286  0.0759  0.1590
21997W        W37466  17.034   7.229   5.854  0.0719  0.0569  0.1918
21998W        W37467  13.532   7.732  13.387  0.0529 -0.2085  0.3491
21999W        W37468  11.449   4.772  16.192  0.3870  0.0380  0.0403
22000W        W37469  12.327   6.013   2.443 -0.0714 -0.1116 -0.0315
22001W        W37470   2.435  13.104  15.641 -0.1507 -0.1374  0.1003
22002W        W37471   1.640   0.220   3.517  0.2917  0.1255 -0.1269
22003W        W37472   4.136   6.943   5.438 -0.2350 -0.0095 -0.2030
22004W        W37473  16.308   4.459   4.924  0.1998 -0.1759 -0.3327
22005W        W37474   0.731   7.206  10.578 -0.3882  0.1397 -0.1435
22006W        W37475  13.728  13.530  16.260  0.0691  0.2211  0.3253
22007W        W37476   2.073   2.243   1.525  0.0507 -0.0345 -0.2537
22008W        W37477  10.564   1.414  14.631 -0.1286  0.0635 -0.0491
22009W        W37478   5.937   3.476  15.391 -0.3607  0.0719 -0.0986
22010W        W37479   1.859  11.391   5.034  0.1372  0.0125  0.0190
22011W        W37480   6.147  10.967   3.867  0.1220  0.2317 -0.1366
22012W        W37481   6.952   7.936   5.860 -0.2909 -0.1435  0.1020
22013W        W37482   8.646  14.041   0.167 -0.0727  0.1845 -0.1094
22014W        W37483  15.444   2.437  14.554  0.1214 -0.0959 -0.0275
22015W        W37484  14.246   6.382   4.222  0.3606  0.2961  0.0513
22016W        W37485   7.873  17.255  16.287 -0.2972 -0.1325 -0.0984
22017W        W37486  17.003   7.695  13.890  0.4108 -0.1957 -0.1010
22018W        W37487  11.053   8.906   0.506  0.0737 -0.3064  0.0196
22019W        W37488   8.053  13.357   4.056 -0.1539 -0.0119  0.1609
22020W        W37489  12.083  12.113  16.046  0.1371 -0.2869  0.1827
22021W        W37490   1.826   8.339  13.823 -0.1764  0.2093 -0.2060
22022W        W37491   3.333   2.541   4.695  0.1065 -0.1282  0.0630
22023W        W37492  12.421   3.078   1.138 -0.4668 -0.3512  0.4030
22024W        W37493   8.736  12.836  11.593 -0.0521 -0.0135 -0.1711
22025W        W37494   2.240  10.127  11.898  0.0945 -0.1279 -0.2485
22026W        W37495   6.292   9.730  12.535  0.1930 -0.0851  0.0850
22027W        W37496  12.433  15.704  14.954 -0.2331 -0.1311  0.1005
22028W        W37497   5.495  14.788   3.077  0.2091 -0.2401 -0.0207
22029W        W37498  14.002   5.374  15.547  0.1213 -0.2207  0.3012
22030W        W37499   6.847   7.695  11.745  0.1270 -0.2414 -0.0919
22031W        W37500   8.830  10.530  15.982 -0.0859  0.0640  0.3986
22032W        W37501   6.712   8.645  11.911  0.0909 -0.2610  0.2098
22033W        W37502   3.253   5.757  16.343  0.0082 -0.0130 -0.3448
22034W        W37503   1.516   7.864  16.446 -0.0395  0.2362  0.0080
22035W        W37504  14.845  14.614   4.679 -0.3882  0.0117 -0.0913
22036W        W37505   7.033   7.300  12.006  0.1037  0.0665 -0.0146
22037W        W37506  12.491   4.534   4.582 -0.0612 -0.1826 -0.2086
22038W        W37507  10.279   1.730   4.698 -0.1017 -0.0207 -0.0054
22039W        W37508   5.137   2.051   5.126 -0.2814  0.0063  0.0618
22040W        W37509  14.368   7.501  13.430  0.0236  0.0302  0.1811
22041W        W37510   8.807  14.873   4.418 -0.0657  0.4225  0.0687
22042W        W37511   1.188   3.247  12.190  0.4655  0.0686 -0.2838
22043W        W37512   9.124  12.873  15.713  0.0115  0.0756 -0.0494
22044W        W37513  16.353   5.278  12.514 -0.2647  0.1235 -0.1261
22045W        W37514   9.131   8.535   4.356 -0.0300  0.2032  0.2186
22046W        W37515   6.474   2.826  15.406 -0.0891  0.0316  0.2132
22047W        W37516  15.790   3.376   4.156 -0.0044  0.3389 -0.1607
22048W        W37517   0.262  16.494   2.343  0.0233 -0.0985 -0.2600
22049W        W37518  14.857  14.632  16.527  0.0359 -0.0375 -0.0528
22050W        W37519  16.386  10.527  11.151 -0.0695 -0.2013  0.3318
22051W        W37520   5.884  11.906   1.485 -0.0255  0.2424 -0.1038
22052W        W37521   3.099   9.884  11.533  0.1377 -0.1041 -0.0729
22053W        W37522   7.178   3.653  16.768  0.0967  0.2692 -0.0997
22054W        W37523  15.378  15.843   5.109 -0.0121  0.0117  0.2743
22055W        W37524   7.881   8.981  13.382 -0.2343  0.0065  0.0990
22056W        W37525   2.102  14.608  11.314 -0.0084  0.2947 -0.1488
22057W        W37526   7.637  15.784   7.024  0.3633 -0.0009  0.0812
22058W        W37527   3.338   6.280  16.183 -0.0228 -0.3493  0.0477
22059W        W37528  14.074   3.518   2.557 -0.3791  0.0753 -0.3317
22060W        W37529  17.408  12.330  16.026 -0.0795 -0.2171  0.1472
22061W        W37530   6.393   7.569   1.789  0.0551 -0.1276  0.1550
22062W        W37531  17.419   5.727   2.746  0.2643  0.0449  0.0378
22063W        W37532   6.751   8.947   3.349 -0.2896  0.0306  0.2359
22064W        W37533   9.479   7.018  14.827  0.0954 -0.1489 -0.0379
22065W        W37534   8.507  14.425   5.607 -0.1287  0.0584  0.2508
22066W        W37535   9.288   5.300   4.345  0.0732 -0.1210  0.2976
22067W        W37536   2.258   7.041  15.127 -0.0501  0.0553  0.0168
22068W        W37537   0.661  17.756   2.524 -0.2966 -0.1027 -0.0429
22069W        W37538  11.912   9.413   0.144  0.0130 -0.1210 -0.1074
22070W        W37539  15.232  13.108   1.182  0.1496 -0.0320  0.1885
22071W        W37540   4.278   0.924   2.685  0.3751  0.1687  0.0662
22072W        W37541  10.520   6.770  13.636  0.2315  0.0455  0.1272
22073W        W37542   5.160  13.625   1.226 -0.0459 -0.0949  0.2958
22074W        W37543   1.112   1.665   2.777 -0.1609 -0.4032  0.3075
22075W        W37544   7.020  12.082  13.458 -0.0598 -0.0421  0.2383
22076W        W37545   8.059  15.213   5.676 -0.4694 -0.3013 -0.0076
22077W        W37546  16.970   7.543   2.605  0.1077 -0.1756 -0.0292
22078W        W37547  13.302   2.478   1.898 -0.3439  0.1251 -0.3243
22079W        W37548   8.817   8.346   2.128  0.3583 -0.1367 -0.0410
22080W        W37549  16.967  16.305  10.051  0.0197 -0.0600 -0.4273
22081W        W37550   7.604  14.472  16.770 -0.0558  0.0667  0.3149
22082W        W37551   7.217  10.593  16.095  0.0053 -0.0107  0.3958
22083W        W37552  13.535  12.178   2.785  0.2969 -0.0405  0.0560
22084W        W37553   1.994  14.305   3.642  0.0043  0.0904 -0.0837
22085W        W37554   0.474   1.408  16.763 -0.2292 -0.3785 -0.3041
22086W        W37555   3.657   1.279  13.904  0.0327  0.1597 -0.1170
22087W        W37556   0.786  10.871  15.674  0.0581  0.0992  0.2708
22088W        W37557  11.632  10.881   1.913  0.2130 -0.0830 -0.1697
22089W        W37558   1.838  16.126  16.831  0.1067 -0.4673  0.3532
22090W        W37559   3.774   9.866   0.612 -0.3700 -0.0112  0.0226
22091W        W37560   7.646  12.859  12.328 -0.0101  0.2084 -0.0323
22092W        W37561   4.135  11.427  15.232 -0.2190  0.3868  0.1890
22093W        W37562   7.194  14.888   1.648 -0.0855 -0.1620 -0.3321
22094W        W37563   4.644   3.364   4.613 -0.0290 -0.1593 -0.3108
22095W        W37564   4.095  17.564  12.316  0.3122  0.0250 -0.3499
22096W        W37565   0.272   7.592   3.225  0.1443  0.0932 -0.2252
22097W        W37566   5.876  16.681  16.164  0.1903 -0.1799 -0.1495
22098W        W37567   5.783  17.752   4.245 -0.1363 -0.4933  0.2293
22099W        W37568   5.254   3.350   0.289  0.0413  0.1760  0.0348
22100W        W37569  12.367   9.010   1.741  0.0366 -0.3080 -0.1105
22101W        W37570  15.916   6.367  12.935 -0.0651  0.0165 -0.0437
22102W        W37571   7.420   0.537  14.216  0.1984 -0.1551  0.0377
22103W        W37572   4.535   5.835   1.408 -0.0729  0.1198 -0.0251
22104W        W37573   3.794   3.331   5.698  0.0140  0.0155 -0.1310
22105W        W37574  16.764   8.328  10.414 -0.1864  0.2190 -0.1935
22106W        W37575  17.272  14.810  12.345  0.1936 -0.1870  0.0614
22107W        W37576   9.018   9.885  10.497 -0.1347  0.2145 -0.1231
22108W        W37577   0.754   3.717  13.540 -0.1436  0.0876 -0.0509
22109W        W37578   6.942   5.349  13.132 -0.0073  0.0994  0.1801
22110W        W37579   7.975  16.612  16.275 -0.2327  0.0899 -0.0414
22111W        W37580   7.985   3.032   4.913  0.0274 -0.2062  0.3150
22112W        W37581  16.762  12.331   5.212  0.1178  0.4541 -0.0136
22113W        W37582   8.955   0.473   4.222  0.2038  0.0270 -0.3339
22114W        W37583  15.849   2.311  14.086  0.2419 -0.2186  0.0984
22115W        W37584  14.621   3.302  16.128 -0.0575 -0.0538  0.1443
22116W        W37585  13.423  17.198  15.859 -0.3188 -0.1821 -0.0335
22117W        W37586  16.913   1.104   0.882  0.0293  0.1429  0.1220
22118W        W37587   2.105   3.752  16.790 -0.3101 -0.2593  0.0167
22119W        W37588   5.023   4.416   2.304 -0.0173 -0.1371 -0.1506
22120W        W37589   8.096  17.034  14.239  0.0310  0.2261 -0.0028
22121W        W37590  12.397   8.990   5.682  0.1412 -0.1461  0.0689
22122W        W37591   3.776  12.812  15.074 -0.0806 -0.1681  0.2613
22123W        W37592   0.223   0.660   3.119 -0.2211 -0.0137  0.1134
22124W        W37593   1.148   0.293  13.809  0.2684  0.0266  0.0809
22125W        W37594   6.727   2.397  15.356 -0.0820  0.0196  0.0066
22126W        W37595   5.920   6.838  13.500  0.0528  0.2565  0.2296
22127W        W37596  14.173   2.578  16.071 -0.0858 -0.2080 -0.0374
22128W        W37597  13.224  16.119   3.404 -0.1784 -0.0699 -0.1273
22129W        W37598   2.891   7.800  10.299  0.2522 -0.0946  0.0984
22130W        W37599   1.138  16.899  16.243  0.1615 -0.1566  0.1863
22131W        W37600  17.635  15.848   3.677  0.0096 -0.2686 -0.2202
22132W        W37601   1.656  14.230   1.113 -0.1684  0.0993  0.1729
22133W        W37602   8.054   5.043   1.510  0.0271  0.1949  0.2620
22134W        W37603   4.834   2.616  11.219 -0.0726 -0.0449 -0.1233
22135W        W37604   9.359  11.159   2.306  0.4984  0.1097  0.1883
22136W        W37605  15.412   4.016   3.903  0.1927  0.0488  0.0171
22137W        W37606  10.220   6.807  14.229 -0.0703  0.3083  0.1792
22138W        W37607   6.711   9.443   5.118 -0.2649  0.1398  0.0694
22139W        W37608   0.818   7.376  14.937  0.1941  0.1284  0.1529
22140W        W37609  15.300  11.812   2.210 -0.2057 -0.0692  0.0188
22141W        W37610   6.502  11.008  11.836  0.1060  0.0431  0.0660
22142W        W37611   7.446  15.222  13.833  0.0031 -0.1688 -0.0585
22143W        W37612   9.674   9.462   0.874 -0.2922  0.0550  0.1315
22144W        W37613  11.075   3.839  15.291 -0.0448  0.0307 -0.2115
22145W        W37614  12.759  16.148   4.849  0.0200 -0.2005  0.0369
22146W        W37615  17.399   7.853  11.706  0.2871  0.0396 -0.0230
22147W        W37616  16.140   1.150   0.199  0.0108 -0.2491 -0.0491
22148W        W37617   9.910  14.743   1.217 -0.0072  0.1139 -0.2092
22149W        W37618   3.747  10.467  15.139  0.3536  0.0160  0.0425
22150W        W37619   9.725   4.768   2.608 -0.0975 -0.0472 -0.0364
22151W        W37620  17.065  15.182   1.078  0.0288 -0.0039  0.0221
22152W        W37621   2.917   0.422  12.115 -0.0932 -0.0438  0.1955
22153W        W37622   5.903   1.631  14.239 -0.2832  0.0748  0.0516
22154W        W37623  15.600  13.119  13.270  0.1915  0.1146 -0.1086
22155W        W37624   6.746   4.092  14.890 -0.1022  0.3855  0.2754
22156W        W37625  13.087   4.346   4.702 -0.0596  0.5368 -0.2480
22157W        W37626  16.392   6.034  16.182 -0.1543 -0.3023 -0.2592
22158W        W37627   4.982   4.714   1.323 -0.0048  0.0578 -0.1335
22159W        W37628   5.454  12.680   1.866  0.1263  0.0146  0.1752
22160W        W37629   8.804   2.530  13.149  0.1050  0.1448 -0.0343
22161W        W37630   4.547  17.614   4.666 -0.0485  0.1539  0.2564
22162W        W37631   2.931   0.134  11.324  0.2194 -0.1474 -0.2796
22163W        W37632  15.766   6.802  15.063  0.0055  0.2049  0.0398
22164W        W37633  13.348  16.704  14.534  0.0822  0.1643 -0.2057
22165W        W37634  12.113  13.535  14.950 -0.0324 -0.1920  0.1758
22166W        W37635  17.045   8.616   5.006  0.3462  0.2919  0.0999
22167W        W37636  11.412  15.511  14.339 -0.1743 -0.1043  0.4420
22168W        W37637   4.682   3.251  11.182 -0.2011 -0.0269  0.2765
22169W        W37638  13.050   8.081   2.708  0.0833 -0.0223 -0.1770
22170W        W37639   5.046   3.791  13.944  0.3404  0.0843  0.3844
22171W        W37640   1.358   5.906   2.811  0.2564 -0.0337 -0.0422
22172W        W37641  12.329   2.479  15.626  0.1455  0.2863  0.3927
22173W        W37642  12.926   6.815   2.778 -0.1277 -0.0394  0.2134
22174W        W37643  11.931   3.749  15.362  0.0460  0.1480  0.0785
22175W        W37644  11.944   1.549  12.019  0.0465 -0.0147 -0.1027
22176W        W37645   5.693   3.037  12.554  0.0942  0.1839  0.1885
22177W        W37646  11.583   8.047   5.325 -0.1895 -0.3529 -0.0067
22178W        W37647  15.515  12.728  11.384 -0.2173  0.0542 -0.1232
22179W        W37648   6.225   9.762  11.591 -0.3468  0.1607  0.1282
22180W        W37649   9.687  13.361  12.278 -0.2230  0.1307  0.1085
22181W        W37650   5.695   6.146   2.587 -0.2832 -0.2204  0.2735
22182W        W37651  15.582  12.983  16.108 -0.0576 -0.0548 -0.2576
22183W        W37652  17.462   8.622   1.827  0.0387 -0.1422 -0.0715
22184W        W37653   8.402  12.743   2.120 -0.2571 -0.0533 -0.0300
22185W        W37654  13.225  14.945   5.331 -0.2826  0.1136  0.1275
22186W        W37655  11.388  12.767   5.275 -0.1242 -0.1415  0.2809
22187W        W37656   9.812  15.968   0.778 -0.3674 -0.0702  0.1974
22188W        W37657  14.700   5.366   1.462  0.2169  0.1630  0.0910
22189W        W37658  16.715   4.868  14.374  0.0165 -0.1015 -0.0324
22190W        W37659   7.248   4.263  14.614 -0.3302 -0.2049  0.0708
22191W        W37660  10.017  12.878   4.860 -0.1534  0.1546  0.0365
22192W        W37661   2.349   0.338   0.238  0.2284  0.1026  0.0073
22193W        W37662   7.480   5.042  14.286  0.0302 -0.1059  0.1774
22194W        W37663  12.520  13.799  16.426  0.0628 -0.2865 -0.0213
22195W        W37664   5.480   8.585  13.513  0.2349 -0.0749  0.1289
22196W        W37665   0.833   5.499   2.440 -0.1539  0.1992  0.0261
22197W        W37666  15.044  14.325  13.388 -0.2647  0.0947 -0.0440
22198W        W37667  12.642   1.224   0.101 -0.1118  0.0055  0.0601
22199W        W37668  17.035  13.039  16.477 -0.1415 -0.1970  0.0925
22200W        W37669  12.854   5.266   2.537  0.1140 -0.1294  0.2015
22201W        W37670  11.102  15.365   3.758 -0.0688 -0.1669  0.0658
22202W        W37671  10.858   1.042   0.228 -0.1987  0.0760 -0.1185
22203W        W37672  14.033   6.975   0.148 -0.0943  0.3640  0.1941
22204W        W37673   6.283   6.682  11.275  0.0149 -0.2997 -0.1254
22205W        W37674  13.426  12.904   2.051 -0.3235  0.0219 -0.1679
22206W        W37675  10.159  11.999  16.230  0.0152 -0.2792 -0.0072
22207W        W37676  14.650  13.338   1.141 -0.2301 -0.1285  0.0167
22208W        W37677  13.335   7.381  11.682 -0.0229 -0.0901 -0.1769
22209W        W37678  16.598   4.849   2.358  0.0026 -0.0201  0.1167
22210W        W37679  16.836   3.531  11.946 -0.1309  0.0247 -0.0298
22211W        W37680   0.208   2.795   1.817  0.2249 -0.2881  0.2027
22212W        W37681   9.067   9.477   5.905  0.0116  0.1118 -0.1488
22213W        W37682  15.289   0.739   0.377  0.1100  0.0181 -0.1271
22214W        W37683  14.248  14.072  12.390  0.0641 -0.4027  0.3385
22215W        W37684   8.019  17.575  11.735  0.0414 -0.0421 -0.0783
22216W        W37685   1.780  11.836  12.324 -0.0563  0.0721  0.1051
22217W        W37686   5.853  15.206  14.479 -0.0849 -0.1445 -0.1972
22218W        W37687  13.376   8.003   3.217  0.0694 -0.0775 -0.0433
22219W        W37688   0.147  12.902  12.442  0.1466  0.1824 -0.0165
22220W        W37689   4.904   5.368  16.660  0.1734  0.0812 -0.1191
22221W        W37690   3.748  11.791   0.738 -0.0353  0.0348  0.3052
22222W        W37691   2.493  15.270  14.548 -0.0045 -0.2916 -0.0172
22223W        W37692   8.776   1.118  16.114  0.1944 -0.0527  0.2755
22224W        W37693  11.056   0.013   6.151  0.2394 -0.0842 -0.1872
22225W        W37694   5.965  10.952  16.591  0.1598  0.0198 -0.0186
22226W        W37695   8.816   3.578  16.275  0.1255  0.4326  0.0549
22227W        W37696  11.743   3.208  16.586  0.0002 -0.2101 -0.6072
22228W        W37697   0.726   0.038  11.265 -0.1739  0.0159  0.1568
22229W        W37698   6.694  14.641   2.397  0.0658 -0.1152 -0.1510
22230W        W37699   3.643   6.085   3.527  0.1654  0.0135 -0.2010
22231W        W37700   5.781   8.623  12.903 -0.0677  0.4171  0.0587
22232W        W37701  11.980   3.571   0.114 -0.1913  0.1111  0.5691
22233W        W37702  16.838  12.580  13.761 -0.0689 -0.0006  0.0910
22234W        W37703  13.132   9.665  16.162 -0.1413  0.1298  0.1356
22235W        W37704  11.446  12.112   5.095  0.2691  0.2006 -0.4097
22236W        W37705   6.034   5.389   1.888  0.1263 -0.1565  0.1215
22237W        W37706   9.983   9.170   5.136  0.0320 -0.2381 -0.2044
22238W        W37707  13.521   1.154  13.389  0.0099  0.0672 -0.0672
22239W        W37708  13.711   2.180   3.231  0.0106  0.4103  0.0406
22240W        W37709  17.085   7.919   4.129  0.1797  0.0788  0.1417
22241W        W37710   3.721  10.848   4.290  0.1753  0.0402 -0.2000
22242W        W37711   0.400   6.865   3.766 -0.1374 -0.0558  0.1410
22243W        W37712   6.133   2.321   5.977 -0.1399 -0.3092  0.1320
22244W        W37713   0.939  14.857  13.353 -0.1785 -0.1643  0.4570
22245W        W37714   5.110   2.878   4.093 -0.1117  0.0652 -0.1076
22246W        W37715   9.898   2.390  16.442 -0.0156 -0.0311 -0.1955
22247W        W37716   3.453   4.960  13.691 -0.2365  0.0671  0.0844
22248W        W37717   2.535   5.299  12.515  0.2139  0.0555 -0.2682
22249W        W37718   2.407  14.719  11.730  0.0076  0.0506  0.0371
22250W        W37719   1.726  16.756  14.250  0.1293 -0.1051  0.2196
22251W        W37720   2.735  12.609  14.790  0.1367 -0.0938 -0.0531
22252W        W37721   9.394   2.255  16.574  0.1104  0.0406 -0.1866
22253W        W37722   1.716   1.149  16.487  0.0570 -0.1929 -0.2457
22254W        W37723  11.013  12.499   2.772 -0.0015  0.2354  0.0763
22255W        W37724   4.959   2.397   4.230 -0.1528 -0.0055 -0.3579
22256W        W37725  17.539   0.335   2.149  0.2225 -0.1352  0.2027
22257W        W37726   2.014   1.183  16.004 -0.1292  0.0106  0.0809
22258W        W37727  10.684  10.691  15.837  0.2816 -0.2314  0.1745
22259W        W37728   9.074   2.642  15.366  0.4906  0.0209  0.1318
22260W        W37729   2.640  14.374   0.612 -0.2142 -0.2163 -0.2277
22261W        W37730  15.598   7.239   2.608 -0.3099 -0.1688  0.0291
22262W        W37731   6.479  16.065   2.946 -0.1300 -0.0494 -0.2516
22263W        W37732   9.634  15.147  13.886 -0.0396 -0.0534  0.0437
22264W        W37733   4.027   9.632   1.479  0.3194 -0.1467 -0.0038
22265W        W37734  15.911   2.610   4.642 -0.0594  0.3218 -0.1578
22266W        W37735   5.357  10.026  14.383 -0.2829  0.0129 -0.1871
22267W        W37736   7.305   5.262   6.205 -0.1186 -0.1380 -0.0698
22268W        W37737  16.210   0.058   4.000 -0.2427  0.0192 -0.1725
22269W        W37738  14.390   4.633  12.858 -0.1061  0.2300 -0.0872
22270W        W37739   1.898   2.179   0.836 -0.2554 -0.1895  0.0719
22271W        W37740   2.303   9.372  14.700  0.0393  0.1922  0.3485
22272W        W37741   5.822   4.195  13.294  0.1875  0.1566  0.1273
22273W        W37742   7.961  13.576   5.641  0.1286 -0.1881 -0.2570
22274W        W37743  12.045   3.222   2.496 -0.3974 -0.3315  0.3275
22275W        W37744   7.159   8.495  16.783 -0.0673 -0.1063 -0.0505
22276W        W37745  16.124  15.796  14.560  0.0776  0.0002 -0.0560
22277W        W37746   7.264   7.721   1.103 -0.1305  0.3086  0.1963
22278W        W37747   2.886  11.247   2.841 -0.1661  0.0009  0.3134
22279W        W37748   1.135  16.095  16.530  0.0292  0.0708 -0.1041
22280W        W37749   4.743   6.660   3.188 -0.0610 -0.0731  0.6413
22281W        W37750   6.941  12.120  12.141 -0.1789 -0.2532  0.1813
22282W        W37751  16.986  13.312   3.315  0.1233 -0.0031 -0.1553
22283W        W37752  11.833   6.298   5.636 -0.2103 -0.1173 -0.0218
22284W        W37753   6.726   1.096   4.811 -0.0190  0.2141 -0.1512
22285W        W37754   5.611  16.883   3.079 -0.0284 -0.1398 -0.0322
22286W        W37755   4.892   1.295   1.506 -0.0541 -0.2274  0.1979
22287W        W37756   8.099  12.858  16.355 -0.2629 -0.2274 -0.1518
22288W        W37757   4.902   5.910  11.803 -0.2992  0.3130 -0.1258
22289W        W37758  15.727   8.720   0.812 -0.0097 -0.2176  0.1184
22290W        W37759   5.038   5.924   1.826 -0.1986 -0.0346  0.0318
22291W        W37760   1.367   3.306   1.511 -0.0581  0.0044 -0.0075
22292W        W37761  12.956   8.094  14.917  0.1305 -0.1725 -0.2944
22293W        W37762  13.536   9.245   4.358 -0.4001  0.0313  0.0259
22294W        W37763  10.339  12.919   4.367  0.1472  0.1703 -0.0113
22295W        W37764   8.489  16.285   4.763  0.0060 -0.2041 -0.0891
22296W        W37765   6.422   3.148   5.452  0.0855  0.0029 -0.2922
22297W        W37766   0.527   0.748  14.656  0.0561 -0.0649  0.1125
22298W        W37767  14.380  15.690   1.319  0.0041  0.1043  0.0749
22299W        W37768   8.850  11.520   5.850  0.0212  0.0162  0.2308
22300W        W37769  15.903  15.432   3.396 -0.3040  0.1466 -0.0101
22301W        W37770  10.862   6.076   1.827 -0.0775  0.0424 -0.0103
22302W        W37771  15.638  10.885  10.956  0.1784 -0.1178 -0.2637
22303W        W37772  12.186  14.005   2.449  0.2463 -0.4092 -0.1847
22304W        W37773  16.510  14.847   3.029  0.1707  0.2730  0.1068
22305W        W37774  15.821   3.132  15.338  0.2041 -0.2371  0.0333
22306W        W37775  12.763  16.940  15.873 -0.5663  0.4799 -0.0646
22307W        W37776   0.462  17.551  16.132 -0.2612  0.1274  0.0478
22308W        W37777   2.147  16.496   5.374 -0.0581 -0.0169 -0.1496
22309W        W37778  14.166   1.542   4.547 -0.0819  0.2967 -0.1521
22310W        W37779   6.123   0.419  15.271 -0.0368 -0.0150 -0.1487
22311W        W37780  13.417  14.550   2.942 -0.1508  0.1077 -0.0168
22312W        W37781  13.223  15.124  16.187  0.0369  0.1094 -0.0305
22313W        W37782  17.226  12.249  12.086  0.1668 -0.0254  0.0018
22314W        W37783  16.193  12.499   2.897 -0.0839 -0.0980  0.3181
22315W        W37784  13.670   7.127   3.530 -0.2581  0.0555  0.0375
22316W        W37785  11.022   5.574  16.391  0.3394  0.1384  0.1113
22317W        W37786   1.968   0.375   3.167 -0.0538  0.2538  0.0448
22318W        W37787  17.385  10.619   2.381 -0.1093  0.1187 -0.1310
22319W        W37788  13.869  17.752  11.643  0.3092 -0.0824  0.0604
22320W        W37789   5.241   8.210  15.737 -0.0602 -0.1724 -0.0104
22321W        W37790  14.597   8.310  16.514  0.1613 -0.0974 -0.1722
22322W        W37791   2.722  13.464  13.832 -0.3678  0.1181  0.0027
22323W        W37792   5.714  13.735   0.753  0.1760 -0.0539  0.2927
22324W        W37793   0.238   9.052   1.050  0.3254  0.0168 -0.2235
22325W        W37794   2.331   5.628  13.644 -0.0403  0.3042 -0.1626
22326W        W37795  16.090   7.090   6.210 -0.0800  0.0682  0.2734
22327W        W37796  13.060  17.543  13.080 -0.0516 -0.0254  0.3756
22328W        W37797   3.764  11.386   0.221  0.0835  0.0889 -0.1576
22329W        W37798   7.001   1.876   2.176  0.1197  0.1430  0.0092
22330W        W37799   9.820   6.871   4.449  0.0319 -0.1268 -0.0019
22331W        W37800  10.235  16.338   2.147 -0.0910  0.2969  0.0438
22332W        W37801  13.117  10.741   5.155  0.1492 -0.1440  0.0661
22333W        W37802  12.678   4.319  12.074  0.0135 -0.1823  0.1676
22334W        W37803   7.547  11.963  12.287  0.0477 -0.0306  0.1018
22335W        W37804  13.906   9.343  12.943  0.2056 -0.0569  0.0348
22336W        W37805  13.601   5.882  11.741  0.0375  0.1194  0.0692
22337W        W37806  16.120  16.018   0.948  0.1433 -0.0256  0.0201
22338W        W37807  16.063  15.050  12.747  0.1997  0.2735  0.1104
22339W        W37808   8.997   7.945  14.990  0.1957 -0.1175 -0.3215
22340W        W37809   2.453  16.188  15.687 -0.2089  0.2137  0.0572
22341W        W37810  16.403  16.284   1.264  0.1567  0.3260  0.0532
22342W        W37811   4.558   6.528  15.637  0.2663  0.0543 -0.0324
22343W        W37812   9.419   1.290  14.972  0.0993 -0.0699  0.1462
22344W        W37813   5.914  10.767  15.766 -0.0697  0.2175 -0.1765
22345W        W37814   0.030   7.826   1.157  0.0700 -0.0194 -0.1210
22346W        W37815   8.456  11.259   5.248  0.2151  0.5356 -0.3058
22347W        W37816   7.930   4.358   4.416 -0.2164 -0.1447 -0.0673
22348W        W37817   9.593  13.687   0.935 -0.1414  0.1114 -0.1449
22349W        W37818  14.308   6.825  14.215  0.0199  0.2185 -0.1223
22350W        W37819   9.840  12.735   5.354 -0.0291 -0.0362 -0.3277
22351W        W37820   8.125   3.145   5.398 -0.0665 -0.1264  0.1497
22352W        W37821  15.857  13.397  11.025 -0.2415 -0.1244 -0.0463
22353W        W37822   6.012   6.188  14.193  0.0207 -0.2209  0.1715
22354W        W37823   6.880  14.088   3.144  0.0699  0.1454 -0.2578
22355W        W37824  15.548   2.361   1.852  0.1243  0.2208 -0.1826
22356W        W37825  17.285   2.488   1.100 -0.1262 -0.1802 -0.1110
22357W        W37826  12.248  17.669  14.785 -0.1772 -0.1975  0.1765
22358W        W37827   5.860   0.100   0.191 -0.1814  0.1113 -0.3099
22359W        W37828  10.555  16.959  16.575  0.0632  0.0044 -0.0750
22360W        W37829   4.167   6.020   5.275 -0.1565 -0.1709 -0.1055
22361W        W37830   6.253   7.137   4.035  0.0684 -0.0990 -0.1556
22362W        W37831   7.173   8.662  12.060 -0.0836  0.0769 -0.4731
22363W        W37832  17.736   7.003   0.999  0.0299  0.1502  0.0881
22364W        W37833  11.846   6.765   5.017 -0.0270 -0.1355 -0.0046
22365W        W37834   4.867  14.112  14.466 -0.0055 -0.0963  0.1054
22366W        W37835   1.195  14.393  13.362  0.0386 -0.4754 -0.0870
22367W        W37836  16.768   3.647   4.861  0.4791  0.0895  0.1254
22368W        W37837   9.538  11.039  16.697 -0.4193  0.1385 -0.0719
22369W        W37838   0.537  10.520  14.841  0.0866  0.1705  0.1124
22370W        W37839  15.242  11.286  12.642  0.1811 -0.2902 -0.2532
22371W        W37840   4.226   0.102  10.813 -0.0508  0.0039 -0.0617
22372W        W37841  11.586  11.900  14.522  0.0879  0.1647 -0.0842
22373W        W37842  12.489   4.008   0.847  0.0136 -0.0248 -0.0511
22374W        W37843   4.598   4.635  11.341  0.0006  0.1006 -0.3345
22375W        W37844   3.836   4.028  13.470  0.3031  0.0627  0.0129
22376W        W37845   5.298   3.720   5.217 -0.2005  0.1595  0.0271
22377W        W37846   8.480   0.244   2.376 -0.3343  0.0915 -0.2213
22378W        W37847  12.088  12.092   4.801 -0.3009  0.0432 -0.2653
22379W        W37848   1.044   1.336   4.953 -0.0396 -0.2450  0.0832
22380W        W37849   6.075   3.648   5.077  0.0847 -0.0598  0.1337
22381W        W37850  16.444   3.943   0.185  0.0727  0.2151  0.0551
22382W        W37851   4.722   7.958   3.661 -0.1508  0.1796 -0.0681
22383W        W37852   8.444   2.978   5.081 -0.1995 -0.1477 -0.1706
22384W        W37853   8.919   9.346   0.457  0.1921  0.2631 -0.0135
22385W        W37854  13.690   7.494   3.103 -0.1368 -0.1353 -0.1295
22386W        W37855  17.739   9.169  15.086  0.0583  0.2641  0.0793
22387W        W37856  16.472  15.115   0.508 -0.0400  0.2359  0.0988
22388W        W37857  11.197  15.737  12.111  0.3589 -0.0735  0.0482
22389W        W37858  11.649  16.911  14.158 -0.0813 -0.2095  0.0382
22390W        W37859   7.682   2.449  16.208 -0.4327  0.0419  0.2596
22391W        W37860  10.632   1.563   5.906 -0.2336  0.1868 -0.0614
22392W        W37861   4.963   0.326   3.197 -0.0310  0.0564 -0.1987
22393W        W37862   9.051  10.278   5.237  0.1640 -0.1152 -0.3283
22394W        W37863   8.665   9.501   0.888  0.0297 -0.1805 -0.1182
22395W        W37864   9.236  12.618  13.915  0.2219  0.0692  0.0476
22396W        W37865  11.966  11.654  15.711  0.0525  0.0604  0.1925
22397W        W37866  14.717   9.337   1.726  0.0889 -0.1443 -0.0634
22398W        W37867  12.596  13.328  13.216 -0.0513  0.0001 -0.0706
22399W        W37868  10.547  13.362  14.520  0.1998 -0.0610 -0.0658
22400W        W37869   5.345   5.892  16.189 -0.0054  0.1069  0.1596
22401W        W37870   4.406  14.854   0.857  0.1916 -0.0343 -0.0469
22402W        W37871   7.951  13.853   1.894 -0.1024 -0.1334 -0.0303
22403W        W37872   3.212   7.084   2.884  0.1401 -0.0806 -0.2175
22404W        W37873  11.472  11.352   5.532 -0.1849 -0.1875 -0.0552
22405W        W37874   0.215   6.204   3.456 -0.2020  0.1310  0.1570
22406W        W37875  16.467   4.833   3.787 -0.2880 -0.0069  0.1812
22407W        W37876   2.865   7.728   4.482  0.0457  0.0567 -0.4177
22408W        W37877  13.428   0.894   1.045 -0.0131 -0.1291  0.1098
22409W        W37878  13.514   0.009  15.797  0.1284  0.3359  0.1226
22410W        W37879   6.798   6.044   4.004  0.1718  0.0537  0.0333
22411W        W37880   8.826  17.460   5.997  0.0673 -0.0356  0.3930
22412W        W37881   9.424   4.068  15.180 -0.0373  0.0537  0.1793
22413W        W37882   0.883   0.384   1.264 -0.1224 -0.2048 -0.1888
22414W        W37883   0.316   0.676  11.779 -0.0161 -0.3820 -0.1056
22415W        W37884   2.617   0.383   1.644 -0.2872 -0.0616 -0.5797
22416W        W37885  14.361   0.981  14.898  0.4236  0.2810 -0.0847
22417W        W37886   8.801   3.001  12.632 -0.3126 -0.1071  0.0519
22418W        W37887  10.683   7.675  15.400  0.2944 -0.2446  0.1593
22419W        W37888   3.715   3.337   4.632 -0.0967 -0.2202 -0.1509
22420W        W37889   0.803  15.975  15.438  0.1677  0.0081  0.0373
22421W        W37890   7.520  16.494   4.301  0.3270 -0.1722 -0.0159
22422W        W37891   3.516  10.797   2.669 -0.1200 -0.0438 -0.0014
22423W        W37892   5.263   5.398   0.606  0.0071 -0.0024 -0.2519
22424W        W37893   4.429   1.950   0.894 -0.0783  0.2136  0.1025
22425W        W37894   7.066   3.359   3.565 -0.0429 -0.0196 -0.1426
22426W        W37895  17.675   0.599  10.340 -0.0056 -0.1172 -0.1126
22427W        W37896  13.092   2.567   2.322  0.1650  0.0809 -0.0534
22428W        W37897   3.933  17.379   2.996  0.3286  0.0877  0.0216
22429W        W37898   1.130   8.549   2.269  0.3168 -0.0592  0.2119
22430W        W37899  13.011  16.678   2.603 -0.1459 -0.0626 -0.0703
22431W        W37900  12.693  13.567   4.860 -0.1437  0.2352 -0.0003
22432W        W37901   9.153   8.008   1.859 -0.1177  0.2779  0.0005
22433W        W37902   4.949   8.811   4.419  0.0108 -0.1290 -0.1795
22434W        W37903  10.034   8.647   4.472 -0.0364 -0.1718 -0.0065
22435W        W37904  10.346   6.165  15.361  0.0461 -0.1184  0.1292
22436W        W37905  13.797  15.483  12.018 -0.0483 -0.0881  0.0186
22437W        W37906   2.285  13.722   1.290 -0.2028  0.0128 -0.1281
22438W        W37907  13.336   5.397   3.017 -0.2248 -0.3672  0.0805
22439W        W37908   8.538   0.684   0.369 -0.0405  0.1365 -0.0827
22440W        W37909  12.473  10.074  16.558 -0.0430  0.0512 -0.2606
22441W        W37910  14.806   9.990  15.969 -0.0164  0.2333 -0.2872
22442W        W37911  11.231  15.497   0.606  0.1544 -0.1142  0.1985
22443W        W37912   9.227   9.695   0.079 -0.3011 -0.1136  0.1470
22444W        W37913   6.490  12.861  13.679 -0.0952 -0.0241 -0.1077
22445W        W37914   8.559  15.759   0.992 -0.3486 -0.1832 -0.0519
22446W        W37915   9.985   2.099   4.868 -0.0886 -0.2495 -0.1154
22447W        W37916   0.069  11.057  12.790 -0.0784 -0.2808 -0.2174
22448W        W37917  12.255   8.479   4.277  0.2883 -0.3558  0.1201
22449W        W37918  16.576  17.247   1.177  0.1398  0.1240  0.1962
22450W        W37919   9.315  14.020   5.504  0.1444  0.1503  0.0127
22451W        W37920  12.779   8.767  12.932  0.2835  0.1139 -0.0808
22452W        W37921  14.741  14.723  12.894  0.1247 -0.2805  0.0004
22453W        W37922   0.468  13.553  11.026  0.3392 -0.3073 -0.1673
22454W        W37923   2.948   0.938   5.380 -0.1135 -0.3037 -0.0630
22455W        W37924  15.276   4.677   1.023 -0.0763 -0.3246 -0.0085
22456W        W37925   3.655   6.627   5.315  0.0851  0.1104  0.0294
22457W        W37926   0.554   8.874   1.348 -0.0801 -0.0696  0.0223
22458W        W37927   4.107  11.006  16.684 -0.2702  0.4075  0.1013
22459W        W37928   9.009  12.824  14.334 -0.3442  0.3529 -0.0385
22460W        W37929   4.564   7.767   1.381  0.2178  0.0557 -0.0626
22461W        W37930  11.706   9.861   3.183  0.0229  0.3798  0.0863
22462W        W37931   3.655  15.691   0.660 -0.1348 -0.1654  0.0447
22463W        W37932  13.177  11.409  13.704 -0.0011  0.4171  0.1063
22464W        W37933   7.220   7.661   3.166 -0.0176  0.2025 -0.1348
22465W        W37934   1.234  17.229   3.978  0.1198 -0.0390 -0.1588
22466W        W37935   5.292   0.674  15.221  0.0852  0.0998  0.0107
22467W        W37936  12.643   3.702   4.444 -0.3208 -0.3563  0.1794
22468W        W37937   5.339   2.447   1.349  0.2466  0.0517 -0.0590
22469W        W37938  11.299   6.321   5.427  0.0872  0.1034  0.0971
22470W        W37939   2.378   5.657  13.159  0.1103  0.1391  0.0385
22471W        W37940   3.730   2.868   2.913 -0.1685  0.1788  0.2268
22472W        W37941  10.616  17.021  13.853  0.1982 -0.3189 -0.0754
22473W        W37942  10.112  13.503   3.178  0.1227  0.0516 -0.2811
22474W        W37943   3.136  13.166   0.374  0.1541 -0.0900  0.0285
22475W        W37944  11.611   5.856   5.452  0.0949 -0.0946 -0.1514
22476W        W37945   3.542   5.800  14.839 -0.2175 -0.2365  0.1021
22477W        W37946  17.394  13.886   2.130  0.0211 -0.2149  0.2556
22478W        W37947   6.646   3.433   4.504  0.1720 -0.0474  0.0860
22479W        W37948   0.960  13.600   3.053  0.3648 -0.1297  0.1528
22480W        W37949  12.677   7.968  13.371  0.1275 -0.4388 -0.0092
22481W        W37950  13.515   6.614  14.946  0.3947  0.2158  0.2525
22482W        W37951   9.865   0.200   3.909  0.1631 -0.0706  0.1717
22483W        W37952   6.929   8.207   0.904 -0.2948  0.0380 -0.0975
22484W        W37953  17.067   5.276   3.036  0.3065  0.0464  0.5057
22485W        W37954   1.806   2.454  13.033 -0.0508 -0.0669  0.0087
22486W        W37955  16.349   0.595   4.030 -0.0916  0.1972  0.1068
22487W        W37956  15.948  17.606  14.988  0.0604 -0.0630  0.2440
22488W        W37957  11.110  17.150   1.264  0.0237  0.3318 -0.3922
22489W        W37958  11.748   6.078   1.027 -0.0521 -0.2234  0.0885
22490W        W37959  16.361   3.359   0.207  0.2600  0.2656 -0.1372
22491W        W37960  16.428   9.460   3.773 -0.1289 -0.0680 -0.0993
22492W        W37961   8.933   8.715  11.562  0.1616 -0.1447 -0.1479
22493W        W37962   4.341  16.066  11.513 -0.1697  0.1705 -0.0880
22494W        W37963   4.757   1.097   4.521 -0.3253  0.4239 -0.2585
22495W        W37964  14.238   2.325  11.558  0.1892 -0.2891  0.3356
22496W        W37965  10.159   3.908   5.415  0.2917 -0.0969 -0.3761
22497W        W37966  11.281   8.291  11.528  0.2131 -0.2740  0.0417
22498W        W37967   6.039   7.917  13.605 -0.2151 -0.0843  0.1954
22499W        W37968   7.578  14.488   5.961 -0.2607  0.0381 -0.0809
22500W        W37969  15.253  16.504   6.053  0.4018  0.0927  0.1609
22501W        W37970   3.055  16.986   4.538 -0.0763  0.2474 -0.2285
22502W        W37971   5.820   4.810  11.826  0.2534 -0.0376  0.1461
22503W        W37972   9.873   6.941   5.220  0.2134 -0.0461 -0.1518
22504W        W37973   7.368  11.565  13.945 -0.1374 -0.1965 -0.2717
22505W        W37974  14.361  12.538   3.593  0.1459  0.2688  0.0043
22506W        W37975  14.815  15.714  13.225  0.3060 -0.2342  0.2871
22507W        W37976   2.558   6.408  16.425  0.1662 -0.0100  0.0029
22508W        W37977  16.846   5.684   4.208 -0.1546  0.3323  0.2412
22509W        W37978   9.638   9.447  13.221 -0.0764  0.1719  0.1785
22510W        W37979   7.311   9.533   4.666  0.0568 -0.1859  0.1085
22511W        W37980  17.058  10.186  13.750 -0.0152  0.0164 -0.0621
22512W        W37981  12.002  10.617  15.944  0.2993  0.2902 -0.4673
22513W        W37982   5.082   7.639   0.459 -0.1817 -0.3383  0.2604
22514W        W37983  13.402  15.432  16.501 -0.1391  0.2564 -0.1427
22515W        W37984  12.195  16.338   3.514  0.3028  0.2311  0.2227
22516W        W37985   1.135  12.798   1.120  0.1350 -0.5473 -0.0067
22517W        W37986   3.841   4.598   1.602  0.2622 -0.5320  0.0472
22518W        W37987   9.291   9.552  16.065 -0.0681 -0.0476 -0.1611
22519W        W37988  11.787   3.997  12.465 -0.2608 -0.0063  0.0502
22520W        W37989   5.384   6.474   1.166  0.1586 -0.4599  0.1482
22521W        W37990  14.310  16.506   2.897 -0.1280 -0.0142  0.0297
22522W        W37991   2.167  15.839  10.831  0.1276  0.1295 -0.0345
22523W        W37992   7.877  16.952  15.423 -0.2501 -0.4362  0.1131
22524W        W37993   7.093  11.177   5.579  0.2713  0.0083 -0.0430
22525W        W37994  10.992  11.061  13.537  0.1657 -0.2449  0.0108
22526W        W37995  11.125   1.139  11.992 -0.2056  0.2609 -0.0662
22527W        W37996  10.053  16.619   1.361  0.0180  0.3627  0.1123
22528W        W37997   4.085  10.931  11.674 -0.0386 -0.0489  0.0610
22529W        W37998  14.305   9.597  15.600  0.1113 -0.2224  0.2411
22530W        W37999   6.852   2.863   1.818  0.4792 -0.1360  0.0576
22531W        W38000  11.195  14.937   1.108  0.0281  0.0534  0.0677
22532W        W38001  12.637   2.094  13.682 -0.0838 -0.3783 -0.3606
22533W        W38002   8.257  16.965   6.382 -0.0535  0.4632 -0.0808
22534W        W38003   4.795   8.802  13.833  0.0382 -0.3324  0.1115
22535W        W38004  15.725   2.294  12.568  0.0243 -0.0065 -0.0072
22536W        W38005  13.528  13.876  11.851 -0.1546 -0.4375  0.0906
22537W        W38006  14.717  10.720   2.006  0.0580 -0.2262 -0.2533
22538W        W38007  14.678  11.718   2.938 -0.2781  0.1978  0.0248
22539W        W38008  17.477  12.777   3.022 -0.3834  0.0831 -0.0234
22540W        W38009   4.749  11.246  13.885  0.0807  0.2280  0.0863
22541W        W38010  15.819  16.849  16.412 -0.0712 -0.2636 -0.2152
22542W        W38011   9.449   4.196   3.338  0.0051 -0.0004  0.0626
22543W        W38012   5.371   5.961   0.288  0.0646 -0.0487 -0.2943
22544W        W38013  15.301  17.462   4.386  0.1237  0.2371 -0.0575
22545W        W38014   2.006   2.939   5.819  0.1257  0.1910 -0.1038
22546W        W38015   5.214   0.201  13.705 -0.0785  0.0766 -0.0044
22547W        W38016  16.293  13.265  12.225  0.0983  0.0247  0.1732
22548W        W38017   9.582   1.661   2.896  0.1165  0.1914 -0.0638
22549W        W38018  14.679  13.488   5.797 -0.0016  0.0504 -0.1178
22550W        W38019   0.657   3.786  14.802 -0.2446 -0.0190  0.1894
22551W        W38020  13.126   1.556  12.732 -0.1677 -0.1717  0.0623
22552W        W38021   4.686  13.012  14.997  0.1029 -0.1918  0.0593
22553W        W38022   3.017   3.321   0.990  0.3064  0.0311  0.1485
22554W        W38023   6.784   1.759   0.632  0.0726 -0.0646  0.4713
22555W        W38024  11.638   5.179   6.159  0.0261  0.1905  0.1114
22556W        W38025   1.345  10.716  14.687  0.0655 -0.0119  0.4440
22557W        W38026   9.499  12.936  12.179  0.6008  0.1392 -0.0477
22558W        W38027   8.101   6.995   0.706  0.0868  0.0794  0.1362
22559W        W38028   0.236   6.090  13.060 -0.1999 -0.1270  0.1344
22560W        W38029  13.822  17.660  11.148  0.0213 -0.0967 -0.2685
22561W        W38030   0.822   3.387  15.883  0.1955 -0.3165 -0.0893
22562W        W38031  12.026  15.503   1.303 -0.1209  0.0392 -0.0400
22563W        W38032   0.631  14.956   0.543 -0.0226 -0.1513 -0.2181
22564W        W38033  10.497   8.866  15.075 -0.0555 -0.1467  0.0301
22565W        W38034   6.714  13.702   0.315  0.0155 -0.1495 -0.2032
22566W        W38035  12.101   5.811  15.676  0.2056 -0.1667  0.1130
22567W        W38036   2.648  14.698  12.164  0.1019 -0.3538  0.1728
22568W        W38037   7.829   2.119   0.477 -0.0408 -0.1908 -0.1040
22569W        W38038   8.299   3.818  16.445 -0.2548  0.0923  0.0507
22570W        W38039   8.149   4.523   2.819 -0.3472  0.0590  0.1538
22571W        W38040  16.716  11.830   2.599 -0.3182 -0.3998  0.2707
22572W        W38041   6.485   2.015  15.150 -0.0897  0.0743  0.0714
22573W        W38042   3.623   5.974   4.438 -0.0304 -0.0691  0.2586
22574W        W38043  16.554   8.236   0.784  0.0523 -0.1401 -0.3124
22575W        W38044  11.608  10.641   4.310  0.0744 -0.4698 -0.0661
22576W        W38045   1.626   3.904  16.802 -0.1685  0.3452  0.0153
22577W        W38046  10.956   3.458  12.585  0.0991  0.2976 -0.0463
22578W        W38047   2.648   4.863  14.185 -0.3445  0.1265  0.0109
22579W        W38048   6.401  12.458   5.179  0.2335  0.2756  0.0318
22580W        W38049   2.482   9.841   2.477 -0.1896 -0.1154  0.1703
22581W        W38050  12.808   9.734   2.814  0.2187 -0.1872  0.3128
22582W        W38051   3.802  10.665  15.804  0.0147  0.0101  0.0238
22583W        W38052  15.848  11.253  11.236 -0.0097  0.2482  0.3856
22584W        W38053  10.015   8.994  16.546 -0.0131 -0.3261  0.4589
22585W        W38054   5.474   2.074  12.609  0.1407 -0.1396  0.4990
22586W        W38055   6.821   2.203   1.340  0.0123 -0.1635  0.0746
22587W        W38056  14.827  11.722   4.426  0.2085  0.2046  0.0379
22588W        W38057  10.965  14.453  16.260 -0.2419 -0.0784  0.1791
22589W        W38058   2.787   4.200  15.929 -0.0366 -0.0677 -0.0356
22590W        W38059   7.466  17.308   3.548 -0.1883  0.1805  0.1119
22591W        W38060   7.351   4.577   2.671 -0.0577  0.1226  0.0059
22592W        W38061  14.396   0.789  15.708  0.1039  0.0316 -0.1516
22593W        W38062   3.104   5.443   1.020  0.0798 -0.0713  0.0503
22594W        W38063   0.985  15.044   1.053  0.0979  0.2547  0.2092
22595W        W38064  10.082   7.763   4.359  0.0881 -0.0840 -0.0700
22596W        W38065   2.886  11.973   3.497 -0.2795  0.1228  0.1277
22597W        W38066   8.966   4.158   3.858  0.3326  0.0463 -0.1500
22598W        W38067   7.419  16.072  15.611  0.0569  0.0490 -0.2468
22599W        W38068  11.905   3.304   1.044  0.0429 -0.2344 -0.0137
22600W        W38069  13.132  15.616   3.136 -0.1112  0.1134  0.3195
22601W        W38070   6.798  11.238  15.498 -0.0732  0.0386 -0.1262
22602W        W38071   9.190   7.036  16.657  0.1093  0.1312  0.2121
22603W        W38072  16.084   2.161   1.137  0.1368 -0.0247  0.1215
22604W        W38073   8.333   1.980   4.149  0.1507 -0.0152  0.1903
22605W        W38074   8.408  13.735  14.854  0.1332  0.0062  0.0200
22606W        W38075  15.533  12.443  13.915 -0.3687 -0.1898 -0.1869
22607W        W38076   9.407   3.365  14.916 -0.1813  0.0026 -0.1601
22608W        W38077  17.138  12.514  15.526  0.0251 -0.1731  0.0114
22609W        W38078  11.101   2.087  15.074  0.0596 -0.0687 -0.0341
22610W        W38079  11.689   0.710   6.246 -0.2004  0.4089  0.1072
22611W        W38080  12.383  16.584   3.871  0.1640 -0.0454  0.0503
22612W        W38081  16.471   1.540  11.759 -0.1620  0.0113  0.0322
22613W        W38082  12.938  10.155   6.882  0.2137 -0.0779 -0.4286
22614W        W38083   7.828   3.792  16.187 -0.0342 -0.0390 -0.1533
22615W        W38084   5.910   8.841  12.451  0.0058 -0.1346 -0.1704
22616W        W38085   3.019   2.230  10.957 -0.0555 -0.0649 -0.2877
22617W        W38086   9.836  13.448   0.570  0.1047  0.2022 -0.1203
22618W        W38087   8.062   4.046  12.411  0.1727 -0.1452  0.1471
22619W        W38088  15.246  16.797  12.380  0.0758  0.0093 -0.2007
22620W        W38089   3.030  10.487   3.775 -0.1684 -0.5291 -0.0135
22621W        W38090   2.897   7.925   2.973 -0.0920 -0.2691 -0.2649
22622W        W38091  16.242   6.053  15.272  0.0294 -0.2380 -0.1851
22623W        W38092   0.074   6.646   0.619  0.1956  0.2802  0.0838
22624W        W38093   8.061  16.310   3.025 -0.1424  0.0959 -0.2144
22625W        W38094  17.593   0.727  11.864  0.0738  0.0858  0.2008
22626W        W38095  10.405  13.612  11.910 -0.0278 -0.0484 -0.1348
22627W        W38096   3.007   7.033  14.447 -0.0002  0.1261 -0.0610
22628W        W38097   0.754   9.663  14.638 -0.0099 -0.1950  0.1301
22629W        W38098  14.811   4.549  15.158  0.2577 -0.1930  0.1747
22630W        W38099   8.067  14.891   5.279  0.1182 -0.1530 -0.1247
22631W        W38100  13.156   7.728   5.720 -0.0183 -0.2038 -0.3749
22632W        W38101  10.566   5.027  12.307  0.0520 -0.1110  0.2173
22633W        W38102   8.217   2.406  13.119  0.0286 -0.0730  0.1586
22634W        W38103   0.113   8.746   0.624 -0.1297  0.0058 -0.0638
22635W        W38104   3.893   6.691   1.922  0.0479 -0.0171 -0.0041
22636W        W38105   1.166  13.915  13.102  0.0409 -0.0567 -0.0056
22637W        W38106  17.757  12.733  10.694  0.1347  0.1033 -0.2875
22638W        W38107  16.228   8.114   5.175  0.1293 -0.2740  0.0846
22639W        W38108   4.788  14.459  15.511  0.1685 -0.2188 -0.0629
22640W        W38109   5.260   9.414   5.389  0.1820  0.2291 -0.1354
22641W        W38110   5.636   9.218   2.323 -0.1617 -0.2112 -0.3065
22642W        W38111  17.038  13.099  12.123 -0.0591 -0.1343  0.1477
22643W        W38112  11.678   9.488   2.268  0.3537  0.0149  0.2965
22644W        W38113  17.448   1.320  11.759  0.0642 -0.0709  0.0707
22645W        W38114   0.782   1.493   3.505 -0.0611 -0.1194  0.1423
22646W        W38115   3.923  17.020   1.493 -0.0658  0.1038 -0.0586
22647W        W38116  14.010   9.848   2.362  0.0464  0.2803 -0.0217
22648W        W38117   8.595  10.712  13.041 -0.0706 -0.1168 -0.0911
22649W        W38118  14.771   6.032  12.300  0.2358  0.0846 -0.0895
22650W        W38119  13.346  11.719   0.232 -0.1940 -0.2115 -0.0628
22651W        W38120   2.860   7.272   4.218  0.2113  0.1537  0.1402
22652W        W38121  17.722  10.547  16.154  0.1023 -0.0310 -0.1704
22653W        W38122   0.637   9.657  15.531 -0.0291  0.5476  0.0170
22654W        W38123   1.278   9.719   3.755  0.0525  0.1122  0.2530
22655W        W38124   0.667   8.257  12.463  0.1266  0.1645 -0.1423
22656W        W38125  17.153  16.768  14.789  0.0750 -0.0772  0.1311
22657W        W38126   1.743   5.549   2.835 -0.0904  0.0608 -0.0279
22658W        W38127   5.852  15.256   0.113  0.1252  0.0166  0.1917
22659W        W38128   9.967  15.079   0.869  0.1670  0.3408  0.2280
22660W        W38129  10.197   2.267   0.062 -0.1629  0.1755 -0.2513
22661W        W38130  14.484   8.014   4.764 -0.1707  0.0490  0.1944
22662W        W38131   6.009   1.265  12.694 -0.2292  0.4515  0.5945
22663W        W38132   2.663   0.737  15.382  0.0638  0.0366 -0.1724
22664W        W38133  11.728   8.425  12.079  0.3901 -0.0254 -0.3617
22665W        W38134   4.621  11.344   0.393 -0.2238 -0.0562  0.0683
22666W        W38135   9.603  13.285   4.955  0.2479 -0.3674 -0.1172
22667W        W38136   9.321   5.567  15.760  0.0587  0.2928 -0.0540
22668W        W38137   5.054   0.971  13.831  0.0152 -0.1007  0.1498
22669W        W38138   5.889   1.792  14.695  0.2329  0.3823  0.0654
22670W        W38139   7.453  11.083  13.451  0.1028  0.0398  0.1186
22671W        W38140   0.338   8.301  16.607 -0.0775  0.0220  0.2799
22672W        W38141   8.095  10.458  14.525 -0.0799 -0.3150 -0.1571
22673W        W38142   9.066  13.679  16.758  0.0764  0.2929 -0.2533
22674W        W38143   5.479   8.538   0.736 -0.1729 -0.0898  0.0031
22675W        W38144   9.092   1.241  16.823  0.2020 -0.0063  0.1182
22676W        W38145   7.732   8.967   4.163 -0.2542 -0.0198 -0.1083
22677W        W38146  14.364   2.940  16.425  0.3464  0.0676 -0.1549
22678W        W38147   4.739   8.461  15.504  0.0199  0.3147  0.0384
22679W        W38148   3.828   3.621   2.319 -0.2652  0.0710  0.2838
22680W        W38149  12.189   7.154   3.287 -0.0241 -0.2845  0.2047
22681W        W38150   7.428  10.709   3.959 -0.3679 -0.3222 -0.4785
22682W        W38151  11.654  10.204   5.021 -0.2038 -0.2050 -0.1723
22683W        W38152  17.675   4.521  14.646  0.0030 -0.3813 -0.0077
22684W        W38153   5.104  10.824   1.515  0.2458 -0.1426 -0.3238
22685W        W38154  16.687   7.351  15.252  0.1345 -0.1684 -0.0752
22686W        W38155   1.855   9.583   3.525  0.1485  0.0124 -0.1816
22687W        W38156  13.414   7.495  12.415  0.0187 -0.1757 -0.1378
22688W        W38157   5.787   3.523   0.352 -0.0135 -0.1059 -0.1026
22689W        W38158   9.365  10.327  13.652 -0.2533 -0.5752 -0.0179
22690W        W38159   4.790   0.788   1.295  0.0960 -0.0643  0.4737
22691W        W38160  12.555   0.568   0.545  0.1865 -0.0898 -0.1390
22692W        W38161   8.660   3.758   1.190  0.1256 -0.0359  0.1198
22693W        W38162   4.334  15.232  12.610  0.0808  0.3066  0.1535
22694W        W38163  10.840   0.676  12.186 -0.2029  0.1519  0.0987
22695W        W38164   9.344   2.487  13.897 -0.1971 -0.2070  0.0806
22696W        W38165  11.507  12.742  16.592 -0.0824  0.1325 -0.0340
22697W        W38166   7.143   0.839   2.683 -0.0031  0.0400 -0.1701
22698W        W38167   0.583   9.025  16.296 -0.1021 -0.2650 -0.0471
22699W        W38168   7.911  10.845  14.271 -0.0446 -0.0151 -0.1469
22700W        W38169   8.773  16.810  13.641  0.1199  0.1654 -0.0064
22701W        W38170  14.552  11.584  11.988 -0.0702  0.2578 -0.4304
22702W        W38171  10.839  17.444   3.517  0.3154  0.0707 -0.1620
22703W        W38172   9.975   5.858   1.587 -0.0096  0.2109 -0.0261
22704W        W38173  11.034  12.329   5.339 -0.1615  0.0220 -0.0869
22705W        W38174   6.769   7.046   1.077  0.1393 -0.1682 -0.2887
22706W        W38175  13.306   9.092  14.853  0.2212  0.0893  0.1198
22707W        W38176   5.925  17.538  14.188 -0.1349 -0.0101 -0.0796
22708W        W38177   5.889   8.553   4.658  0.1280  0.1017  0.1291
22709W        W38178   3.927   2.947  13.271  0.3102  0.1679  0.2562
22710W        W38179  10.324  16.399   2.649  0.1332 -0.2446  0.0227
22711W        W38180   2.461   5.730   4.950  0.0882  0.0454  0.2045
22712W        W38181  12.961   7.206   1.883  0.1299 -0.0270  0.1702
22713W        W38182   1.230   2.444   4.855 -0.1202  0.1556 -0.0087
22714W        W38183   1.507   0.373   5.191 -0.2971 -0.2797  0.0881
22715W        W38184   7.599  17.291  11.804  0.3563  0.1018  0.0961
22716W        W38185   6.979   9.101   3.767  0.0935  0.1579  0.0080
22717W        W38186   4.501  15.974   4.110  0.0569 -0.1201 -0.1337
22718W        W38187   9.554   0.791   0.300  0.2810 -0.1794  0.0644
22719W        W38188   3.106   4.561  13.466 -0.1474 -0.1443 -0.0109
22720W        W38189   0.429  11.288   1.042 -0.1377  0.2331  0.0183
22721W        W38190  10.754   1.242   3.798  0.3224  0.2461  0.1361
22722W        W38191  15.529  12.845   4.125 -0.0831 -0.0184  0.0095
22723W        W38192   6.365   0.770  15.534 -0.3112  0.0034  0.1633
22724W        W38193   0.691   3.479  12.450  0.0457  0.2780 -0.2686
22725W        W38194   0.681   8.935  10.991 -0.1557 -0.1392 -0.1267
22726W        W38195   8.834   0.512   2.952  0.0598 -0.3979  0.1816
22727W        W38196   6.773  16.073  16.636 -0.2434  0.1586 -0.1956
22728W        W38197  15.973   5.933  13.645 -0.0966  0.0605  0.0264
22729W        W38198  16.385   5.743   2.834  0.1173  0.1738  0.1314
22730W        W38199  17.732   2.601   2.729  0.4175  0.0136  0.2920
22731W        W38200   0.891   4.846   0.854 -0.1678 -0.1762  0.1950
22732W        W38201   4.697   3.552   3.389  0.1942  0.0649 -0.1338
22733W        W38202  14.590   5.649   2.488  0.1432 -0.0053  0.0432
22734W        W38203   2.836  16.468  14.301  0.2375 -0.2737  0.2015
22735W        W38204   0.230   3.002   2.304 -0.2982  0.1317 -0.2144
22736W        W38205  17.352  13.436  16.392  0.3641  0.1917  0.1846
22737W        W38206   2.810   5.226  14.512 -0.0046 -0.0045 -0.0727
22738W        W38207  13.268  15.743  11.084 -0.0745  0.0988  0.1130
22739W        W38208   0.047  14.692   3.317 -0.0858 -0.1126 -0.1058
22740W        W38209  16.160   3.643  14.293  0.0674 -0.1706  0.0588
22741W        W38210  13.781   6.709  11.862  0.0033  0.0816 -0.3759
22742W        W38211  12.703  15.981  16.400  0.0693  0.1146 -0.2617
22743W        W38212   6.363   7.517   5.179  0.0379 -0.0873 -0.0303
22744W        W38213   4.358   2.477  14.513  0.0196 -0.0743 -0.0209
22745W        W38214   6.384  12.048   4.018  0.1599  0.0582  0.2549
22746W        W38215   5.755  15.953   0.007 -0.0404  0.0704 -0.1779
22747W        W38216   9.105  12.173  13.630  0.3780  0.0083  0.0566
22748W        W38217   5.704   5.290  11.753 -0.0670 -0.1605 -0.2488
22749W        W38218  11.152  13.528  14.277  0.2149 -0.0932 -0.0070
22750W        W38219   2.523   1.211  11.708  0.3081 -0.2486 -0.0854
22751W        W38220  14.348   2.454   0.599  0.1833  0.0586 -0.0244
22752W        W38221   7.214   0.369  15.318 -0.4116 -0.1883 -0.0428
22753W        W38222  11.168   1.400  11.483  0.1270 -0.4236  0.1386
22754W        W38223   1.691  10.406   5.292  0.0223 -0.0283  0.0551
22755W        W38224  11.070   3.798  16.765  0.4484  0.0787 -0.0921
22756W        W38225   4.619   4.361   0.316 -0.0695  0.1467  0.2632
22757W        W38226  12.736  14.985  13.273  0.1260 -0.3241  0.3990
22758W        W38227  15.065  15.170   0.246  0.0381 -0.1821 -0.0118
22759W        W38228  12.325  11.782  12.502 -0.1701 -0.1108 -0.2304
22760W        W38229  10.463  12.605  15.221 -0.2751 -0.0577 -0.1046
22761W        W38230   6.716   5.083  15.041 -0.3222  0.2678 -0.1216
22762W        W38231  11.599  11.195   6.452  0.2232 -0.1671  0.0888
22763W        W38232   3.831   7.621  13.617  0.1717 -0.0895 -0.2476
22764W        W38233  13.085   8.334  16.676 -0.3185 -0.0858  0.2417
22765W        W38234  15.377   1.724  15.284 -0.1785  0.3883 -0.1735
22766W        W38235  10.626  14.013  12.652  0.0239 -0.0226  0.1557
22767W        W38236  12.970  15.892   1.047  0.1271 -0.1000  0.1104
22768W        W38237  11.604   4.900   0.462  0.0686 -0.1091 -0.0775
22769W        W38238   0.712  10.956   3.660  0.0359 -0.0315  0.1764
22770W        W38239  16.331   3.689  12.905  0.1948  0.0262 -0.0540
22771W        W38240  15.512   8.639   3.840 -0.0659 -0.1352 -0.0293
22772W        W38241  17.561   6.807   2.945  0.0419  0.0589 -0.1821
22773W        W38242  16.122   6.083  12.446 -0.0521 -0.1293 -0.1345
22774W        W38243  11.643   9.101  15.691  0.1367  0.1996 -0.0323
22775W        W38244   1.124   1.737  13.817 -0.1406 -0.0244  0.3673
22776W        W38245   5.790   1.960   4.727  0.2611  0.0084 -0.1928
22777W        W38246   6.700  16.252   5.874  0.3730  0.0533  0.1876
22778W        W38247  12.976   3.915  15.868 -0.0712  0.1497  0.1073
22779W        W38248  13.102   0.324   4.411 -0.0131  0.0952  0.0823
22780W        W38249  16.230  16.389   6.224 -0.1521 -0.0755 -0.0702
22781W        W38250  11.987   2.426   3.343 -0.1215 -0.1727 -0.0906
22782W        W38251  12.419  14.138   1.302 -0.2693 -0.2198  0.0430
22783W        W38252   9.685   7.028  15.820  0.0501  0.2306 -0.0913
22784W        W38253  10.153  15.039   2.751  0.1789 -0.3953  0.0783
22785W        W38254   6.546  15.657   5.824  0.0317  0.1018  0.0880
22786W        W38255  16.062  15.299   2.952 -0.0096 -0.1059  0.2137
22787W        W38256  13.544   3.139   5.104 -0.1477  0.0110 -0.2236
22788W        W38257   9.338  11.033  14.496 -0.0653 -0.0957 -0.1952
22789W        W38258   5.496  15.007   5.201  0.2239  0.0934 -0.1485
22790W        W38259  17.221   5.379  12.102  0.0505  0.4829  0.1872
22791W        W38260  15.528   8.193   2.602  0.0440 -0.1273  0.0215
22792W        W38261  17.252  15.891   3.249 -0.1202 -0.2736 -0.1635
22793W        W38262   8.500   1.890   0.288  0.1201 -0.2650  0.0579
22794W        W38263  14.002  14.237   1.204 -0.1514 -0.1759  0.0660
22795W        W38264  10.790   9.935   0.389  0.1069  0.1399  0.0001
22796W        W38265   8.706  14.698  14.471 -0.1795 -0.1577  0.1940
22797W        W38266   6.546  15.458   3.021  0.1008  0.1952  0.0534
22798W        W38267   2.917   4.431  12.605  0.3773  0.2416  0.2523
22799W        W38268  13.593   0.164  13.233 -0.1178 -0.0207  0.1974
22800W        W38269  10.268   2.627  13.974 -0.1595 -0.0676 -0.1721
22801W        W38270   1.949   1.002   2.379 -0.1328  0.2384  0.1566
22802W        W38271  12.152  10.904  14.481  0.1351  0.1357  0.2248
22803W        W38272  15.754   6.282  14.304 -0.0095 -0.1042  0.0365
22804W        W38273  14.521   5.590  11.558 -0.3484  0.0641 -0.2566
22805W        W38274   5.191  15.874   0.219 -0.2244 -0.0385 -0.0197
22806W        W38275  15.308   5.706  15.092 -0.0574  0.0293  0.1447
22807W        W38276  12.417   3.195  14.515 -0.1131  0.1566 -0.2617
22808W        W38277  15.922  10.553   5.179  0.1153  0.3780  0.0408
22809W        W38278   2.445  13.602   3.902  0.1913  0.2732  0.0175
22810W        W38279  10.489   2.794   5.420  0.0121  0.3740 -0.0039
22811W        W38280   0.321  10.576  14.348 -0.0145 -0.0163  0.0673
22812W        W38281  10.286   9.257  16.824 -0.4078 -0.0627 -0.0548
22813W        W38282   2.374  11.097   4.422  0.0760 -0.2571 -0.1194
22814W        W38283   9.599   6.210  13.992 -0.0404 -0.0855 -0.1748
22815W        W38284   9.627   5.262   1.036  0.1525  0.0907 -0.1599
22816W        W38285  14.543   8.349   5.777 -0.2551 -0.0689  0.1154
22817W        W38286   6.995  13.295  13.979 -0.0434 -0.0592  0.1602
22818W        W38287  16.916   1.843  11.664 -0.0125  0.0609 -0.0126
22819W        W38288  14.199   4.802   5.669 -0.3867 -0.1858 -0.0535
22820W        W38289  14.807  15.019  16.178  0.0491  0.0027  0.0682
22821W        W38290  10.899   8.683   4.055  0.0339 -0.2045 -0.0159
22822W        W38291  10.925   1.422  16.132  0.1252  0.1004 -0.0076
22823W        W38292  16.614  16.701   6.090 -0.0152  0.0065  0.0292
22824W        W38293  12.507   2.316   5.195 -0.0886 -0.1381 -0.0508
22825W        W38294   4.795  14.794   0.504  0.0327  0.0922  0.2179
22826W        W38295  14.511   7.417  11.723  0.1986  0.0519 -0.3872
22827W        W38296   6.422  14.617  12.397 -0.0505  0.0652 -0.3006
22828W        W38297  11.669   6.639  16.118  0.0031  0.0386 -0.3154
22829W        W38298   5.049   6.108   2.756 -0.0381 -0.1733  0.2607
22830W        W38299   6.228  15.735  13.361 -0.2129 -0.0218  0.1517
22831W        W38300  11.241   0.642   1.641  0.1737  0.2418 -0.0142
22832W        W38301   8.652   0.293  10.673 -0.2570  0.1167  0.1448
22833W        W38302   2.938   2.026   5.381 -0.0795  0.0431 -0.0426
22834W        W38303   2.901   3.462  13.747  0.0409  0.0796 -0.0098
22835W        W38304  12.880  15.669   4.838 -0.6995  0.0741 -0.2089
22836W        W38305  13.388   9.855  13.830 -0.1626  0.3664 -0.0335
22837W        W38306   6.326  15.883  13.867 -0.0769 -0.1627  0.1309
22838W        W38307   9.875  14.214  12.284  0.2486  0.2993  0.0615
22839W        W38308  17.524   2.998   1.938 -0.1239 -0.1668  0.0404
22840W        W38309  13.167   1.503   1.511 -0.1637  0.1036  0.2281
22841W        W38310   4.387   8.110  14.643 -0.1880  0.5274  0.0670
22842W        W38311   7.198  10.252   3.871 -0.2085 -0.0592 -0.0770
22843W        W38312  15.690   4.535  11.896 -0.0313 -0.1881 -0.0910
22844W        W38313  11.158   3.707  13.544 -0.2722 -0.0240 -0.0428
22845W        W38314  11.583  13.795  16.638  0.0972  0.1650  0.0775
22846W        W38315  11.190   5.799  14.916 -0.1348  0.0528  0.0582
22847W        W38316  17.564  17.330   4.612  0.0354 -0.0384  0.1958
22848W        W38317   2.263   8.418   1.575 -0.0871 -0.1448 -0.0906
22849W        W38318   1.167   0.648  15.582  0.1341 -0.0946  0.3356
22850W        W38319   5.597  14.904  14.129 -0.1342 -0.0795 -0.0477
22851W        W38320   4.734  10.286  13.169 -0.2871 -0.0662 -0.0811
22852W        W38321  11.375   1.087   0.010 -0.0950  0.0043 -0.2011
22853W        W38322   3.447   0.532  16.422  0.1893 -0.1289 -0.0902
22854W        W38323  17.372  16.808   4.927  0.3926  0.2480 -0.2711
22855W        W38324  10.490   4.018   4.893  0.3961  0.4697 -0.0664
22856W        W38325   6.392  10.828  10.813 -0.1073 -0.0773 -0.2255
22857W        W38326  16.632   3.033   1.246  0.1706  0.0138 -0.3568
22858W        W38327   7.406  17.279   3.009  0.0173 -0.3825 -0.0297
22859W        W38328   1.563   3.113   0.685  0.0366  0.1822 -0.1003
22860W        W38329  11.635  17.079  11.958  0.1666  0.3336 -0.3221
22861W        W38330   4.590  12.308  14.943  0.0539 -0.1606  0.0567
22862W        W38331   6.516  12.334   1.208 -0.0638  0.1195 -0.1288
22863W        W38332  13.625   6.982  15.733  0.2582  0.1601  0.2312
22864W        W38333   0.639   0.174  13.288  0.1053  0.1717 -0.1001
22865W        W38334   2.687  16.670   5.324 -0.4316  0.3976  0.3889
22866W        W38335  10.590  16.441  15.738  0.2316  0.1943 -0.0591
22867W        W38336  15.307   3.043   2.213 -0.2274  0.1339 -0.2781
22868W        W38337  15.328   3.350  11.796 -0.1434  0.1997  0.1895
22869W        W38338   7.857   6.304  13.565  0.1526  0.1738 -0.2219
22870W        W38339   7.750   9.890   4.585 -0.2091  0.1194 -0.1526
22871W        W38340   0.474   3.929   4.056 -0.1779 -0.1183  0.0072
22872W        W38341  16.612   3.870  13.350  0.1799  0.3375 -0.0912
22873W        W38342   1.488   8.658   1.902  0.0727  0.1241 -0.0441
22874W        W38343   2.739  17.398  15.405 -0.0426  0.0156  0.0890
22875W        W38344  16.802   3.926   4.459  0.5730  0.0076  0.2615
22876W        W38345  15.381   7.090   0.722  0.0460  0.0123  0.1459
22877W        W38346   1.007   6.427   1.733 -0.0260 -0.0438 -0.0437
22878W        W38347  11.366  11.101   4.501  0.1164  0.2188 -0.0373
22879W        W38348   3.321   4.087  13.255 -0.1047  0.1340  0.1317
22880W        W38349  12.207  15.925  13.187  0.2975  0.2333 -0.0351
22881W        W38350  12.309  13.739   4.429 -0.0410  0.1806 -0.0037
22882W        W38351  11.704  13.060  15.579  0.0491  0.0163 -0.0586
22883W        W38352   0.780  12.156   3.722  0.1734  0.0883 -0.4797
22884W        W38353   0.538  11.012  12.863  0.1532 -0.2130  0.1566
22885W        W38354  13.963  14.592   0.763  0.1056  0.1334 -0.0345
22886W        W38355   1.197  13.919  15.433 -0.0595  0.0562 -0.0404
22887W        W38356  13.460  15.196  11.773  0.1580 -0.1000  0.0784
22888W        W38357  14.641  17.733  11.619  0.1019 -0.1700 -0.2445
22889W        W38358  11.593  12.685   0.226 -0.0177  0.1256  0.1174
22890W        W38359  15.438  15.019   3.919  0.1051  0.2952  0.1909
22891W        W38360   3.514   1.157   1.962  0.0309  0.0345  0.0004
22892W        W38361  10.403  15.937   5.128  0.1201 -0.1028 -0.0226
22893W        W38362   6.869  14.093   5.531  0.1020 -0.0549 -0.2067
22894W        W38363   7.305   9.653  16.453 -0.0035  0.0044 -0.2881
22895W        W38364  14.948   4.302  15.874 -0.2053  0.0319 -0.3541
22896W        W38365   9.094   3.113   5.591 -0.3650  0.3387  0.0477
22897W        W38366   3.163  13.667  13.969 -0.1387  0.2455  0.0927
22898W        W38367   0.641   5.003  16.083 -0.4187 -0.2856  0.0285
22899W        W38368   3.012   1.196  14.683 -0.1152  0.0656 -0.2034
22900W        W38369   8.006   1.116  11.634  0.2001 -0.0566  0.1304
22901W        W38370   8.895   3.971   0.480  0.1711  0.2099 -0.0975
22902W        W38371   2.155   4.762   5.389 -0.1924 -0.1736  0.2225
22903W        W38372  17.163   4.389  10.700 -0.0258  0.1566  0.0352
22904W        W38373   3.220  11.468  15.325  0.1090 -0.0127 -0.1704
22905W        W38374   5.994   0.293   2.423  0.1547  0.1315 -0.1285
22906W        W38375  10.237  17.613   2.150 -0.1376 -0.2695 -0.1402
22907W        W38376   1.946   7.607  11.549 -0.0461  0.0893 -0.0788
22908W        W38377   4.189   2.956   3.095 -0.0788  0.0182 -0.2705
22909W        W38378   3.862   8.817  16.625 -0.2250  0.5768  0.3023
22910W        W38379   9.204   4.618  14.262  0.0250  0.1234  0.0908
22911W        W38380   4.250   6.422  15.993 -0.1806  0.1576 -0.0174
22912W        W38381   4.666  11.086   5.236 -0.0001 -0.0483 -0.0202
22913W        W38382  12.869   6.853  11.945 -0.0783 -0.0350 -0.0220
22914W        W38383  14.395  11.721   4.177  0.0215  0.2727 -0.0893
22915W        W38384   8.314  16.739  15.275  0.1792  0.2423 -0.3417
22916W        W38385  15.909  14.535   5.064  0.0244 -0.2143  0.0091
22917W        W38386   6.944   5.592  13.902  0.0075 -0.0052 -0.0437
22918W        W38387   8.218   8.660   1.364  0.2593  0.0207 -0.2803
22919W        W38388   5.803  15.580   5.068 -0.0576 -0.0678  0.0797
22920W        W38389  11.331  10.730  13.250 -0.0759  0.1631  0.2470
22921W        W38390  10.859  16.002  13.640  0.0468  0.0995  0.0258
22922W        W38391  15.952  11.614   3.475  0.1702  0.0814  0.2559
22923W        W38392   4.355  11.298  13.285  0.0533 -0.2050  0.0078
22924W        W38393   5.434  15.682  11.789  0.1989 -0.0058 -0.1287
22925W        W38394   1.700  15.194  13.861  0.0803 -0.1945  0.1619
22926W        W38395  10.361   6.015   4.596 -0.0254  0.1380  0.1888
22927W        W38396  10.378   7.059  12.701 -0.0527  0.2751 -0.1057
22928W        W38397   7.230   2.659   2.062 -0.1550  0.2688 -0.1399
22929W        W38398   2.871   8.955   4.968  0.2829 -0.1613  0.0238
22930W        W38399   1.542  13.027   1.438  0.2771  0.3341  0.3609
22931W        W38400   9.401   7.194  12.699 -0.0568  0.2618  0.1584
22932W        W38401  16.800   7.912  13.149  0.3748 -0.0498 -0.2287
22933W        W38402   7.682   5.070   4.931 -0.1828 -0.1032  0.0823
22934W        W38403   4.497   7.611  15.371  0.2041 -0.1376  0.0807
22935W        W38404   6.671  16.227   4.939 -0.0906  0.1106  0.1326
22936W        W38405  11.649   9.251  12.138 -0.0090 -0.1422 -0.3287
22937W        W38406   9.134  17.649   0.507  0.0560 -0.0239  0.0791
22938W        W38407   8.827  13.776   5.596  0.1128 -0.1086 -0.0940
22939W        W38408  14.642   6.618   1.312  0.2029  0.0219  0.2176
22940W        W38409  16.755   3.011  11.764  0.1769 -0.0199 -0.2009
22941W        W38410  14.312  12.701  11.974  0.3374 -0.0420 -0.0012
22942W        W38411  11.153  14.002  15.319  0.0396 -0.1065  0.1020
22943W        W38412  16.850   5.869  11.920  0.0972 -0.0243  0.0627
22944W        W38413   0.440   4.711  10.819  0.1999  0.0768 -0.0858
22945W        W38414   4.104   6.118   1.590 -0.2092  0.0900 -0.1476
22946W        W38415  13.121   4.900  15.058 -0.1607  0.0307  0.1294
22947W        W38416   4.322   1.181   0.571 -0.0828 -0.1533  0.0206
22948W        W38417   4.519   4.670  12.342 -0.1098  0.0185  0.2018
22949W        W38418   7.968  11.799   4.753  0.2817  0.0097  0.0724
22950W        W38419  15.597   0.004  12.502 -0.0302 -0.1500  0.0637
22951W        W38420   7.346   3.821  14.830  0.3198 -0.1278 -0.1946
22952W        W38421  12.931   3.848  13.060  0.2868 -0.0730  0.1395
22953W        W38422   7.851  12.083  16.224  0.2514  0.1334  0.2805
22954W        W38423  15.220   6.121   0.424  0.1108  0.1106 -0.1779
22955W        W38424   4.869   8.969   2.786 -0.1910  0.0829  0.0526
22956W        W38425   9.642   4.996  14.930 -0.0904  0.0559 -0.1391
22957W        W38426   1.525  17.468  13.594 -0.3001  0.0019  0.0389
22958W        W38427  10.815   5.536   1.713 -0.0320  0.0292  0.0426
22959W        W38428   7.288  13.229   2.362  0.2336  0.1092 -0.0726
22960W        W38429   0.086   3.388   5.142  0.4577 -0.1415  0.0536
22961W        W38430   1.402  11.062   4.868  0.0094 -0.1867  0.2186
22962W        W38431   7.345   4.029   0.865  0.0836  0.1978 -0.1311
22963W        W38432   5.044   7.114   4.376 -0.1603  0.1833 -0.0698
22964W        W38433  13.838  10.732  14.279 -0.2108  0.1171  0.0176
22965W        W38434   5.349  10.461   1.347  0.0186 -0.0338 -0.2978
22966W        W38435   5.437  17.580  14.997  0.2708 -0.4519 -0.1643
22967W        W38436   3.299   1.857   2.980  0.3900 -0.0935  0.1246
22968W        W38437  15.523   2.893  11.623  0.4177  0.1080 -0.1449
22969W        W38438   4.763   3.535  15.328 -0.3885 -0.0909 -0.0383
22970W        W38439  10.427   9.736  12.986  0.1112  0.0229  0.2534
22971W        W38440  17.132  14.686   0.945  0.0757  0.2378  0.1980
22972W        W38441   1.689   2.657   4.859 -0.0126  0.1015  0.1416
22973W        W38442  14.370   2.999   0.437 -0.1264  0.2542 -0.2263
22974W        W38443  13.772   3.309  15.801 -0.0840 -0.0315  0.0420
22975W        W38444  14.002   4.534  14.282 -0.0837 -0.3218 -0.1957
22976W        W38445  14.691  17.108   4.145  0.1043  0.1639 -0.1499
22977W        W38446  11.516   2.369  16.627  0.1556 -0.0781 -0.2315
22978W        W38447  11.121   1.305  13.959  0.3854  0.0212  0.1937
22979W        W38448  17.701   1.494   0.781  0.0393 -0.0653  0.2455
22980W        W38449  16.070   7.311  15.916 -0.2213 -0.2231  0.5411
22981W        W38450   6.237  16.599   0.784  0.2186  0.1991  0.2044
22982W        W38451  16.400  12.540  16.036  0.4436 -0.0552 -0.3205
22983W        W38452   0.865  12.058   0.716 -0.1777  0.1219 -0.0867
22984W        W38453  17.684  13.921   1.681 -0.2511  0.2394  0.0880
22985W        W38454   1.027   0.553  16.393 -0.0050  0.2971 -0.2238
22986W        W38455   3.920   6.026  11.050  0.2532 -0.0033  0.1744
22987W        W38456   4.341  11.747  11.366  0.1022  0.0654  0.0593
22988W        W38457  16.401  12.859   4.431 -0.0343  0.0072 -0.2571
22989W        W38458  17.202   6.007  13.279  0.1318 -0.1993  0.2463
22990W        W38459   8.667  12.435  13.542 -0.0467 -0.2983 -0.0298
22991W        W38460   6.807  16.687   2.373 -0.3513  0.0315 -0.2132
22992W        W38461   1.228  16.220  14.738  0.0588 -0.0032  0.0900
22993W        W38462  10.147   9.051  12.585  0.2641 -0.1336  0.2514
22994W        W38463  15.183   7.895  15.990 -0.0295  0.0204 -0.1473
22995W        W38464   6.820   3.842   2.630 -0.2651  0.2366  0.3103
22996W        W38465  11.640   4.244   1.001  0.1163  0.0552  0.0356
22997W        W38466  10.331  12.475   0.655  0.1566 -0.1488  0.0320
22998W        W38467   2.962   7.896  15.517  0.0448  0.0901  0.0280
22999W        W38468  10.222   8.144   1.415  0.0048  0.0525  0.0648
23000W        W38469  11.800  11.378  16.398  0.0559 -0.1695  0.3548
23001W        W38470  13.057  14.074  15.279  0.2023 -0.0877 -0.1303
23002W        W38471   8.587   1.204  14.820  0.0229 -0.0895  0.2581
23003W        W38472   8.683   5.981  13.703 -0.0846  0.0134  0.0300
23004W        W38473  17.713   2.477  16.655 -0.0543  0.1931  0.2517
23005W        W38474   8.448   8.494  14.509  0.0212  0.4509 -0.0579
23006W        W38475   4.717  13.795   0.825  0.1819  0.0066  0.1030
23007W        W38476   2.636  15.368   1.443 -0.0092 -0.0846  0.0936
23008W        W38477  11.520   1.940   1.120 -0.1622  0.1937 -0.1731
23009W        W38478  14.109   8.622   1.797 -0.3254  0.0544  0.0096
23010W        W38479  13.585   3.036   1.028  0.0735 -0.2131  0.3031
23011W        W38480  13.830   5.782   5.110  0.0225  0.2936 -0.1306
23012W        W38481   8.108   4.354  15.594 -0.1085  0.1877 -0.0392
23013W        W38482  10.178   8.352  14.485 -0.0030 -0.1441 -0.2562
23014W        W38483  16.856   5.248   3.981  0.3492 -0.2197  0.1324
23015W        W38484   6.145   4.115   4.901  0.5617  0.0135 -0.2671
23016W        W38485  11.455   1.931   3.912  0.5163  0.0584 -0.0302
23017W        W38486  10.716   0.078   4.553 -0.0191  0.2499  0.0848
23018W        W38487   8.153  10.381  15.967 -0.3402 -0.1086 -0.0816
23019W        W38488   1.372  16.818   1.587 -0.2481  0.1462 -0.3293
23020W        W38489  11.543  10.902  15.861 -0.1183  0.2436  0.1084
23021W        W38490   1.650   7.735   4.692 -0.4169  0.3657  0.3011
23022W        W38491   8.938  14.443   2.654  0.0374 -0.0689 -0.0101
23023W        W38492   9.834   8.943   1.176 -0.1042  0.1616 -0.2041
23024W        W38493  11.747   2.026   0.625  0.4557 -0.4917  0.0079
23025W        W38494  14.659   5.228  11.908 -0.0525 -0.2362  0.0743
23026W        W38495  15.552   0.047   6.146 -0.1475  0.3183 -0.0189
23027W        W38496  12.992   1.664   2.799  0.3176  0.2219  0.0964
23028W        W38497  15.208   9.469   3.081 -0.0326  0.2204  0.1233
23029W        W38498  10.153  13.740   6.426  0.1596  0.1924 -0.1370
23030W        W38499   9.436   0.925   6.184 -0.1163  0.2233 -0.0062
23031W        W38500  15.144  13.843  13.492  0.1308 -0.1502  0.0667
23032W        W38501   2.245   0.756   4.990 -0.1439  0.1081 -0.0269
23033W        W38502  11.992  16.991   1.005  0.0944 -0.3322  0.1179
23034W        W38503  14.499  16.645  16.027 -0.1909 -0.3251 -0.0174
23035W        W38504   7.477   3.389   0.839 -0.1060 -0.1729  0.4952
23036W        W38505  16.183   8.587   2.506  0.2020 -0.1702  0.0165
23037W        W38506   6.447   4.635  11.845 -0.1007  0.0850 -0.1194
23038W        W38507   8.301   1.358   1.814  0.0374  0.1176 -0.1575
23039W        W38508  14.717   2.364   2.119  0.2558  0.2047  0.0707
23040W        W38509  16.252  17.165  12.807  0.1147  0.2499  0.0328
23041W        W38510   8.406  15.437   4.707 -0.0299 -0.4190  0.2375
23042W        W38511  10.928   2.203   6.036  0.1537 -0.3062 -0.1707
23043W        W38512  17.284   1.579   0.145  0.0885  0.1609 -0.0949
23044W        W38513   5.136   4.715  10.446  0.1582 -0.2565 -0.1228
23045W        W38514   7.109   0.295  13.927 -0.6169  0.3822 -0.4215
23046W        W38515  11.168   3.556   2.053 -0.0820  0.0353 -0.1206
23047W        W38516   7.740   6.620   2.494  0.1076  0.3207  0.2260
23048W        W38517  16.640   4.790  16.691  0.2110  0.1659 -0.0335
23049W        W38518   1.785  14.848   1.787  0.2531  0.2827 -0.2407
23050W        W38519   4.020   0.701   0.640  0.1690  0.1667  0.2223
23051W        W38520   0.274   2.503   3.674 -0.0966 -0.2247 -0.1732
23052W        W38521  11.873  16.488  16.089  0.0913  0.0909 -0.2589
23053W        W38522   1.646   6.090  14.799  0.0375  0.1898 -0.0429
23054W        W38523  17.083   1.113  14.823 -0.0792 -0.0957  0.4624
23055W        W38524  16.366   5.140  15.727 -0.3268  0.2013 -0.1714
23056W        W38525   4.848   7.073  16.154 -0.1342 -0.0455  0.3580
23057W        W38526   8.848  12.052   3.734 -0.3078 -0.0941  0.1401
23058W        W38527  13.018  17.513  16.067 -0.0232 -0.3005 -0.0756
23059W        W38528  15.263  12.407   4.284 -0.0380 -0.0756 -0.0670
23060W        W38529  12.710   8.902  14.357  0.0257  0.0763 -0.0283
23061W        W38530  14.943   1.858  14.126 -0.2827 -0.0944  0.0986
23062W        W38531   1.468  13.635   2.400 -0.1524 -0.0284 -0.3313
23063W        W38532   3.599  13.115   0.179 -0.0037  0.2033  0.0399
23064W        W38533   0.783   3.846  12.186 -0.1918 -0.1038 -0.2269
23065W        W38534  14.710   8.585   4.186 -0.0951  0.4401  0.0064
23066W        W38535   6.535  11.421  12.187 -0.0497 -0.2900  0.0535
23067W        W38536   6.426   4.196  11.254 -0.3514  0.1727 -0.0496
23068W        W38537   0.788  13.327   0.263 -0.2658  0.2509 -0.0399
23069W        W38538   3.365   6.181   3.128  0.1851 -0.0088  0.0092
23070W        W38539  13.497  10.045  14.317 -0.0409  0.4133 -0.2554
23071W        W38540  16.400  14.024  14.900 -0.2274 -0.1409  0.2912
23072W        W38541   5.119   8.912  11.425 -0.0526  0.0583  0.2770
23073W        W38542  12.792   3.560  12.656  0.2548  0.3890 -0.1148
23074W        W38543   6.516   4.556  14.931  0.0246 -0.3194 -0.0232
23075W        W38544   1.302  13.489   4.298  0.2905 -0.0680  0.2310
23076W        W38545   0.301   3.820  13.277 -0.1212 -0.2107  0.0429
23077W        W38546   2.958   8.636  11.649 -0.1560  0.2549  0.0874
23078W        W38547  16.784   2.616  10.215 -0.1332 -0.1706  0.3243
23079W        W38548   2.084   2.571  13.495  0.1674  0.0301  0.1152
23080W        W38549   7.851  11.588   3.892  0.1346 -0.0434 -0.0841
23081W        W38550  10.002  15.824  13.532  0.1157 -0.0463  0.0625
23082W        W38551   8.762  14.706  15.783  0.3548  0.1927  0.2741
23083W        W38552  11.574   8.999   1.388  0.1481 -0.1704 -0.1500
23084W        W38553  14.568   4.067  13.079  0.2202  0.2294  0.0347
23085W        W38554   7.548   7.285   4.494  0.0173  0.0936  0.1856
23086W        W38555  13.200   8.109   5.311  0.1026  0.0662  0.0616
23087W        W38556   9.795   4.754   1.106 -0.1323 -0.0935 -0.1836
23088W        W38557   9.545   7.565   1.252  0.2253 -0.0551 -0.1001
23089W        W38558  11.115  11.467   1.324 -0.0250 -0.2411 -0.0242
23090W        W38559   0.373  11.659   1.439 -0.1299  0.1822  0.0738
23091W        W38560  14.014  17.248   0.792  0.0007  0.0659  0.0477
23092W        W38561   6.760   6.786  16.211  0.0972  0.1688  0.3233
23093W        W38562   5.966   4.484   2.401 -0.1088 -0.0965 -0.0827
23094W        W38563  16.515   4.670  15.859 -0.1810 -0.0184  0.0095
23095W        W38564   2.038   8.152  14.635  0.1726 -0.4033 -0.1245
23096W        W38565   4.744   3.117   3.122  0.0225 -0.0261 -0.0530
23097W        W38566   3.262  10.880   4.038 -0.1114 -0.0566  0.2265
23098W        W38567   4.269  13.331   3.466 -0.0253  0.0830 -0.1737
23099W        W38568   2.606  17.547   2.803 -0.0636 -0.1211  0.1089
23100W        W38569  17.017  14.960   0.510 -0.1312 -0.0483  0.2639
23101W        W38570   4.881  16.517   0.769 -0.2917  0.0174 -0.2341
23102W        W38571   7.548   7.971  11.777 -0.1228  0.0497 -0.1701
23103W        W38572   3.001  11.661   2.369 -0.0121  0.1012  0.1947
23104W        W38573  10.847  15.551   1.786 -0.3191  0.1704 -0.0530
23105W        W38574   8.855   9.395   1.357  0.0946 -0.0296  0.0957
23106W        W38575   2.492   9.755  14.942  0.2545 -0.0815 -0.2222
23107W        W38576  14.731   4.948  11.550 -0.2784 -0.0370  0.1881
23108W        W38577   2.953   5.590  16.783 -0.0519  0.3155 -0.1047
23109W        W38578  17.295   1.601  14.798 -0.1446  0.0641 -0.1993
23110W        W38579   8.490   0.250  14.667  0.0015  0.0274  0.2704
23111W        W38580  13.854  13.605  14.851  0.1902  0.0217  0.2757
23112W        W38581  12.522   4.883  16.329 -0.0133  0.0337  0.1300
23113W        W38582   3.161  11.537  13.024 -0.1085 -0.0509  0.0846
23114W        W38583   2.441  16.853   2.658 -0.1117 -0.1845  0.0961
23115W        W38584   3.276  16.999  16.611  0.0448 -0.2289  0.0771
23116W        W38585   1.516   4.063  16.239 -0.0537  0.0027  0.2309
23117W        W38586  12.668  16.294   3.470 -0.2567 -0.0202 -0.0193
23118W        W38587  10.316   9.123  15.452 -0.1535 -0.2184 -0.0351
23119W        W38588   9.146   5.515  10.994  0.0507  0.3790 -0.1044
23120W        W38589  16.764   9.333  12.516 -0.1371  0.0897  0.0372
23121W        W38590   7.060  11.366   3.982 -0.0494  0.0058  0.1108
23122W        W38591  12.489  16.592   6.117 -0.3019  0.0126  0.0436
23123W        W38592   5.155   6.515   2.454 -0.2241 -0.1311 -0.5141
23124W        W38593   6.911  12.433   4.919 -0.1219 -0.0195 -0.1245
23125W        W38594  11.540  14.442   4.555 -0.0884 -0.2185  0.2356
23126W        W38595   2.169  13.248   0.343  0.2279 -0.0110  0.1488
23127W        W38596  15.138   8.660  12.542  0.1294  0.0018  0.0796
23128W        W38597  15.746   8.890  10.862  0.1042  0.2041  0.0525
23129W        W38598  16.690   7.391   2.027 -0.1812  0.2037 -0.1937
23130W        W38599   4.353  14.342  11.757  0.0650  0.1313 -0.0128
23131W        W38600   6.428   3.186   2.239  0.0357 -0.2878 -0.0299
23132W        W38601   2.894   7.821   1.160 -0.1772  0.1665 -0.3647
23133W        W38602   9.257   6.438  11.773  0.3285  0.0740  0.0291
23134W        W38603   3.847  10.260   3.501  0.2247 -0.1610  0.1383
23135W        W38604   9.443   4.649  13.589 -0.0916 -0.0146  0.0747
23136W        W38605   6.177  13.221   4.417  0.3041 -0.1115 -0.0707
23137W        W38606   1.615   9.892  10.003 -0.0527 -0.3157  0.1249
23138W        W38607   7.556   3.259   1.336  0.0230 -0.0465 -0.2326
23139W        W38608  16.259  11.182  12.437 -0.3251 -0.0207 -0.3316
23140W        W38609  16.015  16.874  15.451  0.1986  0.1511  0.0005
23141W        W38610   8.432   9.128  14.671 -0.1317  0.0396  0.4012
23142W        W38611  14.577  12.269  14.137 -0.2962 -0.0568  0.1761
23143W        W38612   6.155  15.026  13.208  0.2232 -0.0534 -0.1059
23144W        W38613  11.788   8.879  14.565 -0.2538 -0.2098  0.3359
23145W        W38614  14.239  11.136   5.041 -0.2710  0.1084 -0.0263
23146W        W38615  15.585   4.531   2.224 -0.0659  0.4014 -0.4062
23147W        W38616  16.209   7.301   1.942  0.2672 -0.2818 -0.0012
23148W        W38617   9.438  16.044   1.053  0.1404 -0.4185  0.0381
23149W        W38618  16.454   6.956  11.696  0.1782  0.0476 -0.2454
23150W        W38619  16.939   7.470   0.734 -0.4095 -0.0647 -0.0929
23151W        W38620  10.164   9.177  12.033  0.0471  0.1757  0.1193
23152W        W38621  15.237   1.870  11.114  0.2750  0.0275 -0.1471
23153W        W38622  10.242   5.904  16.353 -0.2597 -0.3734 -0.4302
23154W        W38623  13.417   2.959   0.563  0.4088  0.3073 -0.1573
23155W        W38624  17.535   6.842  16.514  0.2885 -0.1160 -0.0111
23156W        W38625   1.494  11.227  15.221  0.3292  0.0723 -0.2008
23157W        W38626  12.070   1.102   0.690  0.0224 -0.4357  0.1220
23158W        W38627  15.938   5.303  15.919  0.5244 -0.6189  0.1236
23159W        W38628  16.647  11.157   1.160 -0.3547  0.0718 -0.0762
23160W        W38629  12.450  15.444   2.583 -0.1928  0.4150 -0.2411
23161W        W38630   3.348  10.749  11.308 -0.1493  0.2339 -0.0697
23162W        W38631  16.568  13.057   1.057  0.1061  0.2707 -0.1822
23163W        W38632  13.237   3.560  16.440  0.0937 -0.0854 -0.1552
23164W        W38633   2.432   3.468  15.054 -0.5252  0.2187 -0.0969
23165W        W38634   8.931   7.475   5.201 -0.2309 -0.0934  0.2326
23166W        W38635  17.316   6.521  15.617  0.0437  0.1198  0.1820
23167W        W38636  15.727   8.029   4.948  0.0711  0.0645 -0.0168
23168W        W38637   0.318   5.730  12.222  0.2051  0.1129  0.3956
23169W        W38638   4.235   0.035  13.774 -0.1816 -0.0248  0.0697
23170W        W38639  12.815   8.702  16.764  0.3929 -0.1822  0.2823
23171W        W38640  14.149   3.361   3.143  0.1484 -0.1293 -0.0506
23172W        W38641   6.385  14.904   2.115 -0.1423 -0.1618 -0.0922
23173W        W38642   9.909   7.981  12.096 -0.0031  0.3236 -0.1242
23174W        W38643  17.202   5.993  12.793 -0.1402 -0.0408 -0.4848
23175W        W38644   4.602   6.159  14.934 -0.0350  0.1670 -0.4161
23176W        W38645   6.282   5.337  15.077  0.1911 -0.1444 -0.1153
23177W        W38646   2.831   4.055  12.281 -0.3848 -0.0615 -0.0094
23178W        W38647  13.618  10.113   3.478  0.2301 -0.2262  0.2467
23179W        W38648  16.627  10.152  14.190 -0.0457 -0.0834  0.0098
23180W        W38649  13.572  11.429   1.199  0.2775 -0.0515  0.1403
23181W        W38650   0.339   4.584   3.368  0.1797 -0.2053 -0.0485
23182W        W38651   4.802  11.328  13.025  0.2248 -0.1695  0.0488
23183W        W38652   2.557  11.415  11.480 -0.0745  0.0949  0.1672
23184W        W38653   3.716  10.540   1.393  0.0403 -0.1792 -0.1375
23185W        W38654  12.286  11.255   5.039 -0.0949 -0.0355  0.0337
23186W        W38655   6.358  14.242   3.951 -0.2106  0.4805  0.2424
23187W        W38656  16.858   3.868  11.243 -0.1180  0.0217  0.1045
23188W        W38657   0.874  15.808   2.975 -0.0623 -0.0169  0.0190
23189W        W38658   1.489   9.403  13.264  0.0768 -0.1065  0.1760
23190W        W38659   2.000  17.099   0.242 -0.0943 -0.0589  0.0732
23191W        W38660  11.461   8.571   3.987  0.1484 -0.0390  0.1716
23192W        W38661  11.789  10.237   3.573 -0.1000  0.0482 -0.1470
23193W        W38662  11.932  14.697   2.697  0.2011 -0.1455  0.2297
23194W        W38663   3.539   0.355  14.370 -0.0433 -0.1818  0.1851
23195W        W38664   6.205   3.750   1.029  0.0546  0.3317  0.0287
23196W        W38665   0.640  15.748   2.494  0.0544 -0.1099 -0.1011
23197W        W38666   3.438   4.879   1.736 -0.0291  0.3632 -0.1420
23198W        W38667  11.455  16.369  16.750 -0.0691 -0.3180 -0.3055
23199W        W38668  12.530   7.473  14.207  0.1151 -0.0422 -0.0913
23200W        W38669   9.641   2.820  13.677  0.3038  0.0323  0.0182
23201W        W38670  11.419   4.852  12.706 -0.1798  0.1603  0.1089
23202W        W38671  14.657   4.528   3.287  0.2553  0.2733 -0.0665
23203W        W38672   8.133   1.709   5.212  0.2963 -0.1458 -0.1705
23204W        W38673  17.247   2.277  16.275 -0.0387  0.1234 -0.0911
23205W        W38674  14.969   5.925   4.333  0.1598  0.0376 -0.0658
23206W        W38675   7.984  15.990   2.116 -0.1175  0.0161 -0.2162
23207W        W38676  13.081  17.398   1.477 -0.0138  0.0283  0.0756
23208W        W38677  16.412   3.292   3.136 -0.0035 -0.2266 -0.1513
23209W        W38678   5.359   7.324  13.869 -0.1439  0.0312 -0.3189
23210W        W38679   4.577  11.307  12.182  0.1500  0.0889 -0.2461
23211W        W38680  12.866  12.595  16.748 -0.2390 -0.2869 -0.0256
23212W        W38681  12.703   5.785  16.392 -0.0022  0.0776 -0.1641
23213W        W38682  10.230  17.275  11.902  0.1634 -0.1811  0.3072
23214W        W38683  13.143   7.205   3.731  0.2002 -0.0984 -0.1354
23215W        W38684  11.999  15.805   4.112  0.0637  0.1902 -0.3813
23216W        W38685   6.736   2.912   5.013 -0.0901 -0.2947  0.0741
23217W        W38686   0.875  10.252   2.988  0.1793 -0.0265  0.0296
23218W        W38687   4.587  12.130   3.281 -0.1527 -0.2252  0.1452
23219W        W38688   4.983   2.607  12.145 -0.1742  0.2542 -0.0995
23220W        W38689   6.096   4.050  16.577 -0.0116  0.3533 -0.3863
23221W        W38690   6.602  12.571  14.662  0.0493 -0.0933  0.1211
23222W        W38691   3.558  17.266  14.308  0.1460 -0.0500  0.0186
23223W        W38692  15.260   0.922   2.634 -0.1753  0.1163 -0.1991
23224W        W38693   8.120   0.822   5.235  0.0948 -0.3069 -0.1238
23225W        W38694   8.945  16.033  12.288 -0.1474 -0.0952 -0.2213
23226W        W38695   3.643  11.166   4.681 -0.0432  0.0243  0.1449
23227W        W38696  16.925   2.862  12.845 -0.1686 -0.1265  0.0636
23228W        W38697  13.461   0.673  16.496 -0.1530 -0.1856  0.0206
23229W        W38698   3.628  14.268   1.166 -0.0607 -0.0504  0.2867
23230W        W38699   3.879  15.431  15.890 -0.0627 -0.4207  0.0599
23231W        W38700  16.884   3.303  14.113  0.2008 -0.4257  0.2027
23232W        W38701  12.884   8.499   1.529  0.2544  0.0243  0.3094
23233W        W38702   0.483  13.834   9.943  0.2887 -0.2510  0.2866
23234W        W38703  17.623  13.423  10.956  0.4286 -0.3350 -0.0080
23235W        W38704   2.114   4.763  15.882  0.0263  0.0847  0.2137
23236W        W38705   3.086  11.396   0.991  0.0721  0.1396 -0.0368
23237W        W38706   1.411   7.341   0.547  0.2054 -0.0444 -0.1477
23238W        W38707  12.509  17.421   5.850 -0.3800 -0.1761  0.1354
23239W        W38708   1.205   7.657   2.069  0.0398 -0.1525 -0.0113
23240W        W38709  11.090  17.387  15.908  0.0735 -0.0927  0.0480
23241W        W38710   0.349  14.288   1.286 -0.2193 -0.0755  0.1009
23242W        W38711  16.981   6.899  13.220 -0.1958 -0.1540  0.2372
23243W        W38712   2.230  11.960  12.046  0.0442 -0.1491  0.0178
23244W        W38713   0.498   2.045   3.418 -0.3498 -0.2766 -0.0230
23245W        W38714   3.637   6.237  15.325  0.2270  0.1315 -0.0262
23246W        W38715   6.594   9.161  12.080  0.2658 -0.2205  0.0638
23247W        W38716  16.489   3.900  14.654  0.4103  0.1819  0.1236
23248W        W38717  15.005   8.030  13.104  0.2240  0.1138  0.2178
23249W        W38718  10.187  16.269   0.560  0.1484 -0.0998  0.2352
23250W        W38719   8.279   3.844  13.835 -0.0490  0.4057  0.1811
23251W        W38720   5.503   7.277   3.496 -0.0236  0.0355 -0.2130
23252W        W38721   2.691   8.685   3.862  0.0054  0.2717 -0.3724
23253W        W38722   8.278  13.356  13.417 -0.1185 -0.3101 -0.0166
23254W        W38723  12.290  11.054   0.667  0.0069  0.2156 -0.2043
23255W        W38724   2.739  13.786  16.480 -0.0781 -0.2856 -0.1300
23256W        W38725  16.613  15.358  13.716  0.2265 -0.2610 -0.0686
23257W        W38726   0.641   1.234  10.527  0.1011 -0.0639  0.2933
23258W        W38727   3.284  15.641   1.329 -0.0614 -0.0625  0.2905
23259W        W38728   5.758  11.391  12.996 -0.0525  0.0482 -0.0062
23260W        W38729   8.163   1.161   2.262 -0.1783  0.0561 -0.2469
23261W        W38730  13.011   8.051  12.797 -0.1876 -0.0067 -0.2690
23262W        W38731  14.313  13.628   3.863 -0.1563 -0.1818 -0.1677
23263W        W38732  12.566  12.404  13.179  0.1761  0.1423 -0.2065
23264W        W38733  14.388  12.743  15.089  0.0068 -0.1224 -0.0411
23265W        W38734   7.694   8.131  15.565 -0.0879  0.0896  0.0145
23266W        W38735   1.315   7.461   3.000 -0.0248  0.1875 -0.1377
23267W        W38736  15.715  14.975   3.099 -0.3089 -0.0925 -0.1730
23268W        W38737  14.301   1.923  11.880 -0.0065 -0.2353  0.0329
23269W        W38738   0.599  12.447   0.477 -0.4166 -0.1597  0.1642
23270W        W38739   3.907   0.811   3.420 -0.1277 -0.2272 -0.2076
23271W        W38740   0.680   6.326  14.911  0.0241 -0.1567 -0.1272
23272W        W38741   0.548   4.933  14.130  0.2133 -0.0848 -0.1730
23273W        W38742   7.254  13.421  13.522 -0.3408 -0.0443 -0.0712
23274W        W38743   9.354  15.328  14.707  0.1929 -0.2964 -0.2081
23275W        W38744  14.370   6.129  16.089  0.1673  0.0081  0.1778
23276W        W38745   2.595   5.848   1.573  0.3445 -0.0589  0.1939
23277W        W38746   5.164   6.119   5.566 -0.0591  0.2514  0.0685
23278W        W38747   9.956   8.059  15.855 -0.0111  0.0721  0.1916
23279W        W38748   1.241   0.503  11.880  0.0187 -0.1017  0.1547
23280W        W38749   1.837   4.904   0.497 -0.1529  0.0014  0.1212
23281W        W38750   2.889  13.865   0.666 -0.0904  0.0027 -0.0699
23282W        W38751   4.874  12.012  16.037  0.1888  0.0541 -0.0947
23283W        W38752   2.982  11.878  10.607  0.1058 -0.1070 -0.1189
23284W        W38753   6.710   9.141  14.645 -0.2525 -0.0371 -0.3522
23285W        W38754   5.250  12.184  13.524 -0.0652 -0.1923  0.0339
23286W        W38755   5.390   1.730   5.637 -0.1856  0.1533  0.1504
23287W        W38756  16.558  11.025   1.960 -0.3327 -0.1117 -0.0952
23288W        W38757  15.785  14.951   5.375 -0.2565 -0.2228  0.2021
23289W        W38758   2.783   3.127  15.097  0.0420 -0.1808 -0.2829
23290W        W38759   7.939   4.644   0.834  0.1087  0.0237 -0.0358
23291W        W38760  13.363   4.211  13.843 -0.4553 -0.3105  0.1108
23292W        W38761   8.625  15.092  12.234  0.0178 -0.3098 -0.0766
23293W        W38762   4.526  15.652  13.309 -0.2737  0.1395  0.1444
23294W        W38763   0.761  15.505   1.219 -0.0231 -0.0114  0.0148
23295W        W38764   2.612  12.927   2.876  0.3396 -0.0750  0.0271
23296W        W38765   0.842  13.591   3.547 -0.0418 -0.1489 -0.1943
23297W        W38766   7.335   3.895   3.381 -0.2011 -0.0073  0.0231
23298W        W38767  14.005   9.247  14.138  0.0811  0.0112 -0.2850
23299W        W38768   2.563   5.873   2.090  0.0423 -0.0979 -0.1477
23300W        W38769  17.657   6.452  12.827 -0.0577  0.1705 -0.4020
23301W        W38770  12.076  15.014   0.564  0.0914  0.0178 -0.0013
23302W        W38771  12.816  16.590  13.198 -0.1655 -0.1544 -0.4990
23303W        W38772   9.397  10.627   4.491 -0.1684 -0.1498 -0.0218
23304W        W38773  15.674  17.492   1.013 -0.0412 -0.1902  0.0417
23305W        W38774  12.525   5.835   5.621  0.0458  0.2882  0.3805
23306W        W38775  13.453   2.086  13.421  0.0041 -0.1643 -0.0841
23307W        W38776  10.980  13.077   0.958  0.3199  0.2156  0.1115
23308W        W38777   0.487   0.496  14.228  0.2187  0.1082 -0.0631
23309W        W38778   2.048   2.069   3.687 -0.1577 -0.0723  0.2571
23310W        W38779  16.663  15.681  13.188  0.1582 -0.0282 -0.0020
23311W        W38780  11.251   8.365  13.526  0.0044  0.0916  0.0541
23312W        W38781   2.534  15.093  12.655  0.0356  0.1169  0.2749
23313W        W38782   1.376   9.529  14.649 -0.0166 -0.1747 -0.1014
23314W        W38783   3.346  11.525  11.119 -0.3681 -0.2396 -0.0118
23315W        W38784  16.109   9.591  13.417 -0.2973  0.0242 -0.0639
23316W        W38785  12.995   6.716  14.127 -0.5549 -0.0598  0.2259
23317W        W38786  17.773   8.202  11.695 -0.0239 -0.1183 -0.1271
23318W        W38787  16.760  13.049  10.847 -0.0677 -0.3122 -0.0292
23319W        W38788  13.302  12.698  11.576  0.0953 -0.0633 -0.2284
23320W        W38789   1.633   1.975   5.616  0.3810  0.6083  0.0519
23321W        W38790   3.471   8.589   1.590  0.1846  0.2026 -0.3275
23322W        W38791  15.459  13.486   1.459  0.2314 -0.0353  0.0639
23323W        W38792   0.272   9.307  15.546  0.0297 -0.1875  0.2466
23324W        W38793   8.499   2.456   1.020  0.0813 -0.1470  0.0711
23325W        W38794  17.567   2.631   1.563  0.0355 -0.0066 -0.1881
23326W        W38795  11.713  17.630  12.716  0.0655 -0.0960 -0.0911
23327W        W38796  11.439   9.281   5.909  0.0723  0.0878  0.1096
23328W        W38797  10.957   7.874   3.838 -0.2048  0.2811  0.0437
23329W        W38798  14.376   3.670  11.779  0.1823  0.1732 -0.1952
23330W        W38799  10.035   6.540  16.604  0.1083  0.1251 -0.3891
23331W        W38800  14.356   1.368  13.416 -0.2832 -0.0564 -0.1023
23332W        W38801   9.161   6.266   2.844 -0.3115  0.1836 -0.0310
23333W        W38802   9.468   2.708   2.035 -0.2573  0.2467 -0.0677
23334W        W38803  15.577  17.002   1.069  0.2043  0.4113  0.1127
23335W        W38804  15.521  12.480  15.798  0.0490  0.0811 -0.0494
23336W        W38805   0.875   3.884   0.357 -0.0605  0.1724  0.0435
23337W        W38806   1.235   1.396  12.022 -0.2041 -0.0512 -0.0872
23338W        W38807  15.760   4.999   3.072  0.2028  0.2643 -0.1762
23339W        W38808   0.301  16.640  11.998  0.0026  0.0411  0.0060
23340W        W38809   0.624  17.118   5.578  0.1735  0.0068  0.1530
23341W        W38810  17.776  16.534   0.104 -0.2674 -0.0545 -0.0863
23342W        W38811  11.601  10.441  13.939 -0.0646  0.1205 -0.0187
23343W        W38812  15.028   1.183   0.189  0.2277 -0.0095 -0.0605
23344W        W38813   5.881   9.234   0.336 -0.0993 -0.1106  0.0427
23345W        W38814   5.174   5.298   3.665 -0.2215 -0.0773 -0.2589
23346W        W38815  12.650   4.761  15.389 -0.3132  0.1466 -0.2864
23347W        W38816   7.305  10.734   3.157 -0.4821  0.0186 -0.0269
23348W        W38817   8.233   8.667   5.784  0.1378 -0.1757 -0.3402
23349W        W38818   7.118  13.475  11.770 -0.0242  0.1356 -0.1018
23350W        W38819   1.976  17.664   0.929 -0.0240 -0.0617 -0.0276
23351W        W38820   7.774   1.518  15.253 -0.0575 -0.2103  0.1080
23352W        W38821  17.144   4.550  14.646 -0.2387  0.2676 -0.3836
23353W        W38822   8.462   8.039   0.399  0.1426  0.1832 -0.0477
23354W        W38823   3.251   3.277  12.620 -0.1199  0.0226 -0.1252
23355W        W38824  11.483   1.166   2.364 -0.0480 -0.2687  0.0917
23356W        W38825  14.435  12.360  14.739 -0.1088 -0.1719  0.0355
23357W        W38826  11.531   3.034   0.892 -0.1242 -0.3341 -0.1085
23358W        W38827   3.862  13.288  15.029 -0.1382 -0.4080  0.1957
23359W        W38828   2.928  11.763  16.356  0.0483 -0.0539  0.0494
23360W        W38829  14.676   8.228   5.270  0.2444 -0.3358  0.2205
23361W        W38830   9.368  12.375  15.959  0.1512  0.0140 -0.2318
23362W        W38831  16.357   6.756   3.767 -0.1599 -0.0946  0.0964
23363W        W38832   5.145  15.454  15.762  0.0748  0.3400  0.0539
23364W        W38833  14.391  10.088  16.226 -0.0389  0.0310  0.1739
23365W        W38834  16.599   9.364   5.729 -0.0639  0.0483  0.0004
23366W        W38835  13.185   8.650   2.026  0.3294 -0.0327 -0.1462
23367W        W38836  15.880   3.210   3.020 -0.3238 -0.0438 -0.1546
23368W        W38837   0.897  11.844  16.124 -0.0539 -0.1934  0.2385
23369W        W38838  12.724  17.529  11.634 -0.1511  0.2143 -0.0053
23370W        W38839   0.869  14.213   4.680 -0.2254  0.2314  0.0428
23371W        W38840  14.254  14.044   1.833 -0.0756  0.0398 -0.0583
23372W        W38841  10.655   1.816   2.440  0.0096 -0.0372  0.0815
23373W        W38842   9.596  14.385  13.302  0.1232  0.0891 -0.1398
23374W        W38843  17.153  12.448   1.074  0.1229  0.4134 -0.1325
23375W        W38844   1.172   8.462   5.137 -0.0710 -0.0221 -0.1269
23376W        W38845   5.996  17.230   5.228 -0.3988  0.1539 -0.0617
23377W        W38846   3.630   1.970  15.956  0.0651 -0.0692  0.0194
23378W        W38847  10.873   2.543  12.455  0.2176  0.1914 -0.1878
23379W        W38848   0.589  15.765  10.953 -0.3135  0.0173 -0.3084
23380W        W38849   6.506   3.426  13.413 -0.1123  0.3534 -0.2272
23381W        W38850  12.570  11.154   3.205 -0.0073 -0.0712 -0.0950
23382W        W38851   2.698  14.483  12.638 -0.0137 -0.0351  0.1660
23383W        W38852   8.369   9.174  15.592  0.1326 -0.1222 -0.1303
23384W        W38853  12.795   9.630  16.547  0.0931  0.2260 -0.2358
23385W        W38854  11.172  15.121  15.279  0.0189  0.3459  0.5070
23386W        W38855  12.244   0.649   3.986 -0.0345 -0.3243  0.5449
23387W        W38856  13.027  10.768  14.707  0.3986  0.0921 -0.2608
23388W        W38857   9.191   3.868   4.919  0.1197  0.1858 -0.3150
23389W        W38858   1.981  12.752   0.670 -0.1864  0.1166  0.1389
23390W        W38859   0.693   1.021  12.637 -0.0341  0.0695  0.4140
23391W        W38860  11.969   8.339   5.186 -0.0652  0.1076  0.1496
23392W        W38861  17.082  13.880  12.728  0.1450  0.0744 -0.1984
23393W        W38862   7.812  13.278  16.256  0.0188  0.0869  0.0161
23394W        W38863   2.006   9.960  15.285  0.2841  0.0441  0.1827
23395W        W38864  11.496  14.818   0.036  0.1829  0.0569 -0.1929
23396W        W38865   6.652  15.058  12.522 -0.3202  0.0272  0.1264
23397W        W38866   4.695   2.631  15.869 -0.0681 -0.0211 -0.1783
23398W        W38867   4.811   7.009   2.535  0.0546 -0.1430  0.2984
23399W        W38868   7.877   5.553  14.943  0.0131  0.1753  0.3167
23400W        W38869   9.223   9.006  12.598  0.2890 -0.2656  0.0266
23401W        W38870   5.194   0.859  11.764 -0.0780  0.2287 -0.1168
23402W        W38871   3.172   5.756   2.984  0.1439 -0.2249  0.0149
23403W        W38872   6.264  17.383   3.234  0.0400  0.0313 -0.2997
23404W        W38873   8.490   6.944  16.532  0.1622  0.1111 -0.0803
23405W        W38874   4.516  17.256  14.492  0.1452 -0.0665  0.1448
23406W        W38875  13.179   5.610  16.043  0.0660 -0.3631  0.2624
23407W        W38876   5.589   3.924  15.221 -0.0833  0.1142 -0.1813
23408W        W38877   1.273  13.965   3.367  0.0687  0.0437 -0.1717
23409W        W38878  14.763   4.092  15.435 -0.0742  0.1036  0.0128
23410W        W38879  11.244  14.000   1.477 -0.0510  0.0164  0.1847
23411W        W38880   4.940   3.462  16.735  0.4133 -0.3201 -0.0018
23412W        W38881  11.613   1.899  15.861 -0.1788  0.4567  0.1934
23413W        W38882  12.838  16.366  13.880 -0.0299 -0.1007 -0.1337
23414W        W38883  15.974   0.339  12.146  0.0727  0.0691 -0.1001
23415W        W38884  16.421  13.441  15.025 -0.0478  0.3427 -0.0573
23416W        W38885   5.444   5.329   5.193  0.1942  0.1674  0.1276
23417W        W38886   4.492  12.863  12.063  0.0771 -0.1577 -0.0349
23418W        W38887  17.733  11.160  14.682 -0.0555  0.1784  0.1332
23419W        W38888  14.909   2.282  14.343  0.1133  0.4021  0.0508
23420W        W38889  10.432   4.914   2.230 -0.1112 -0.0494  0.1563
23421W        W38890   5.234  13.016  10.941 -0.0617 -0.1040 -0.1586
23422W        W38891   8.101   5.912  12.163  0.0769 -0.1748 -0.0597
23423W        W38892  15.145  13.487  13.086  0.0045  0.0631 -0.1575
23424W        W38893   6.361   4.843   0.819 -0.1153 -0.0922 -0.3889
23425W        W38894   6.560   6.292   4.889  0.0767 -0.0546 -0.1282
23426W        W38895  16.691  11.158  12.648  0.1636 -0.0647 -0.0598
23427W        W38896  17.697  11.602   3.885  0.0517  0.0764 -0.1587
23428W        W38897  10.052   2.843  14.455 -0.0572 -0.0366 -0.1266
23429W        W38898  14.538   2.002   1.655 -0.1524  0.0156  0.0069
23430W        W38899   9.430   1.405   4.868 -0.1473  0.2099  0.1573
23431W        W38900  16.799  14.868  16.538  0.1097  0.0272 -0.0840
23432W        W38901   3.007   6.967  13.424 -0.0681 -0.0180  0.0408
23433W        W38902   2.433  10.371   3.130 -0.0242 -0.0402 -0.0378
23434W        W38903  14.172  11.393  15.055 -0.2085 -0.0193  0.1563
23435W        W38904  13.975   3.741   0.513 -0.1543 -0.0983  0.1097
23436W        W38905   5.544  15.424   5.501 -0.2315 -0.0243 -0.2277
23437W        W38906  11.502  13.357   2.153  0.1152  0.0436  0.0477
23438W        W38907   2.094  13.005   1.988  0.2645 -0.1292 -0.2897
23439W        W38908   2.201   7.165   5.160 -0.4096  0.0262 -0.1360
23440W        W38909   6.806  11.010  16.112 -0.1164  0.1065  0.2841
23441W        W38910   8.615  11.207   0.428 -0.0120 -0.1151 -0.4046
23442W        W38911   6.519   4.721  14.469  0.2535 -0.1007  0.2534
23443W        W38912   8.751  16.671   2.487 -0.0441  0.1096  0.3134
23444W        W38913  16.068  13.398   5.059 -0.0176 -0.0472  0.3654
23445W        W38914   1.194   2.360  15.179 -0.0204  0.2427  0.0830
23446W        W38915  17.727   3.556   2.787 -0.0702  0.0496  0.0033
23447W        W38916   9.460   4.736   0.767 -0.0165 -0.0324  0.2667
23448W        W38917  11.567   0.561  15.541 -0.0141  0.0138  0.0650
23449W        W38918   0.121  16.168   4.604  0.0405  0.0838  0.3015
23450W        W38919   0.788  14.723  14.970 -0.2260 -0.1322 -0.0678
23451W        W38920  15.717   7.202  12.772  0.0746 -0.0875  0.1893
23452W        W38921   5.862  12.536   3.176 -0.3453 -0.2187  0.2151
23453W        W38922   5.549  12.687  15.766 -0.0395  0.1649 -0.0271
23454W        W38923   5.345  11.472   0.943 -0.2717  0.1976 -0.1663
23455W        W38924   9.268   7.586   4.510  0.3327 -0.0770 -0.0929
23456W        W38925  12.029   0.668   6.631  0.0081 -0.0753 -0.0994
23457W        W38926   6.351   3.564  16.474  0.2049  0.0469  0.1645
23458W        W38927   3.063  15.653   3.671  0.1622 -0.2980 -0.2962
23459W        W38928   3.733   6.383  15.839 -0.0622 -0.2082  0.0634
23460W        W38929   4.744  10.893   1.134 -0.1919 -0.2859  0.0500
23461W        W38930   5.957   2.602   3.962  0.1830 -0.0906  0.0612
23462W        W38931  11.510   6.956   2.659 -0.4020  0.2018 -0.3204
23463W        W38932   6.459  13.761  12.488 -0.0114  0.0934 -0.1390
23464W        W38933   6.248  12.334   2.609 -0.0269  0.0600  0.0836
23465W        W38934   5.315  17.562   5.771 -0.0464  0.0918  0.2767
23466W        W38935  13.242   1.258   5.217 -0.3223  0.0098  0.2960
23467W        W38936  13.477  14.019   6.284 -0.0260 -0.0678  0.0861
23468W        W38937  16.564  13.513   1.147  0.0570  0.0652  0.2657
23469W        W38938   7.924   6.971  11.159  0.3268  0.2560  0.0547
23470W        W38939  14.320  13.061   0.954 -0.1718  0.0972  0.2466
23471W        W38940  15.773  10.370  12.690 -0.1504  0.1162 -0.0778
23472W        W38941   3.411   8.249  15.495  0.0867  0.0890  0.0899
23473W        W38942  13.433  10.499   3.243  0.0031 -0.1979 -0.1083
23474W        W38943   8.489   7.127  14.061 -0.2348 -0.0688  0.0123
23475W        W38944   5.578  10.398  15.540 -0.3168  0.0721  0.1491
23476W        W38945   1.559  13.701  15.130  0.1497 -0.0054 -0.0669
23477W        W38946  11.751   7.037  12.009  0.2753  0.0247 -0.3373
23478W        W38947   9.565   5.019   4.777 -0.0400 -0.0710  0.0235
23479W        W38948   3.321  13.144   3.762 -0.0162 -0.0518 -0.1142
23480W        W38949  15.684   7.734  16.123  0.1146  0.1079  0.0699
23481W        W38950   3.282   3.701   3.023 -0.2516  0.0135 -0.1599
23482W        W38951  12.255  15.950   1.444  0.0713  0.2084 -0.1064
23483W        W38952  16.671   7.852   5.247 -0.1846 -0.0401 -0.0640
23484W        W38953  15.426   7.151  16.833  0.0717  0.0213 -0.1639
23485W        W38954  10.339   1.154   6.336 -0.0681 -0.1952 -0.0978
23486W        W38955   9.598   3.001  12.134 -0.3000  0.0069 -0.2223
23487W        W38956  17.550  10.665  15.658 -0.4518 -0.0336 -0.3434
23488W        W38957  10.996  15.863  15.559 -0.1684  0.2236 -0.0504
23489W        W38958   2.912   4.468   1.956  0.0089  0.1695 -0.0666
23490W        W38959   3.742  16.046   2.622  0.0568  0.4718 -0.1875
23491W        W38960  11.419  15.067   1.954  0.0468 -0.1716 -0.0893
23492W        W38961   5.002   2.241   3.119 -0.1677  0.1361 -0.1157
23493W        W38962   8.222  15.917   2.629  0.0896  0.1301 -0.1439
23494W        W38963   4.795   2.542   2.736 -0.3934  0.1361  0.1462
23495W        W38964  14.654  13.362  14.074 -0.0765  0.1330  0.2027
23496W        W38965   5.171  15.003  11.730 -0.3782  0.2121  0.0344
23497W        W38966   9.809   9.416  12.347  0.0703 -0.1746 -0.1113
23498W        W38967  16.312  11.582  15.922 -0.0738  0.1359  0.3688
23499W        W38968   6.867   4.448   4.868  0.1462 -0.2253 -0.2809
23500W        W38969  11.975   9.743  15.502 -0.1138  0.1088 -0.1788
23501W        W38970   5.490   3.860  14.210  0.0116 -0.2612 -0.3255
23502W        W38971   0.494  15.114   1.131 -0.4615  0.0898  0.0944
23503W        W38972   4.766   6.915  13.417  0.1003  0.1978 -0.1901
23504W        W38973   5.836   7.981  12.719 -0.3779 -0.1577 -0.0327
23505W        W38974   6.879  15.023  15.881 -0.0838 -0.3706  0.0835
23506W        W38975   5.031  15.779  12.124  0.2339 -0.0339 -0.1652
23507W        W38976   2.134  16.077  13.987  0.3360  0.0587 -0.1633
23508W        W38977  10.652   9.097   5.501  0.3257  0.0564  0.0317
23509W        W38978   0.404  16.822   3.361 -0.2076 -0.3057  0.0010
23510W        W38979   6.165   9.706   1.130  0.0781 -0.3592  0.0081
23511W        W38980  15.328  13.389  12.077 -0.0904  0.2069  0.2516
23512W        W38981   6.875  14.910   0.917  0.0379 -0.1695 -0.2767
23513W        W38982   6.835  16.543   3.572  0.3383 -0.0577  0.0557
23514W        W38983   1.513   4.508   1.843  0.4400 -0.0106 -0.2986
23515W        W38984   8.821  15.432   2.006  0.3694 -0.1289 -0.0231
23516W        W38985   8.328   3.842  14.775 -0.2910  0.2406 -0.0605
23517W        W38986  12.753   9.945  14.829  0.0021  0.2091 -0.2718
23518W        W38987  14.795   7.438  15.432 -0.1116 -0.1945 -0.2280
23519W        W38988   6.673  16.681   5.427  0.1098  0.0494  0.2935
23520W        W38989   3.965  13.593  12.377 -0.1735  0.1316  0.1892
23521W        W38990  16.196   1.142   1.528 -0.2385  0.1623  0.0257
23522W        W38991  12.683   0.166  15.281  0.2974  0.0364 -0.1128
23523W        W38992   5.595   6.271   0.652 -0.1450  0.0560  0.2332
23524W        W38993   6.442  16.679  13.203 -0.1154 -0.0637 -0.1466
23525W        W38994  15.464  12.011  13.280 -0.0127 -0.0993 -0.0682
23526W        W38995  13.671   6.728  16.665 -0.0535 -0.0365  0.3498
23527W        W38996   3.866   7.276   5.924 -0.0477  0.0281  0.0831
23528W        W38997   7.336  14.649   3.698  0.0442 -0.1363  0.0978
23529W        W38998   8.996  16.005   6.246  0.1814  0.0391 -0.1743
23530W        W38999   2.179  14.049   2.110 -0.1724  0.2202  0.1739
23531W        W39000   2.529  16.939  15.375  0.2515  0.1832  0.1725
23532W        W39001   5.237  16.769  15.989  0.0214 -0.0986  0.1439
23533W        W39002  13.144   5.796   2.693  0.2071 -0.0329 -0.0200
23534W        W39003   7.147  10.836  16.603 -0.4393 -0.4287  0.1041
23535W        W39004  12.973  17.112  13.257  0.0038  0.2249 -0.1717
23536W        W39005   0.751   9.914   2.618 -0.3899  0.2146  0.0356
23537W        W39006   6.361  12.618   4.240 -0.0900 -0.0737 -0.0932
23538W        W39007  10.065   3.744   2.871  0.0555  0.0181  0.2785
23539W        W39008  13.926  16.334   0.725  0.4249 -0.2763 -0.1534
23540W        W39009  16.480  13.906   3.851 -0.4497 -0.1325  0.1961
23541W        W39010   8.094   3.538  16.801  0.0331  0.0006 -0.2476
23542W        W39011   0.941   3.888   2.006 -0.2470 -0.0697 -0.1445
23543W        W39012  15.508   3.102   3.834 -0.2740  0.1317  0.2815
23544W        W39013   3.411   2.571  11.792  0.1386 -0.2505  0.2099
23545W        W39014  12.335  14.633   5.459  0.0349 -0.0136  0.2611
23546W        W39015   3.158  11.459   5.197 -0.0150 -0.0314 -0.0210
23547W        W39016  14.692  11.935   3.402 -0.2486  0.0330  0.1057
23548W        W39017  13.052   9.041   0.286  0.2711  0.1539 -0.1251
23549W        W39018   6.728  16.293   0.665 -0.2164  0.1313 -0.0260
23550W        W39019   6.184   2.646  12.295 -0.0782 -0.1418 -0.0667
23551W        W39020   6.372  11.169  10.365  0.0697  0.0778  0.0559
23552W        W39021  10.625   0.093  10.777  0.2298 -0.0268 -0.1035
23553W        W39022  15.291   4.289  11.830 -0.0442 -0.2710 -0.1340
23554W        W39023   9.607  16.778   2.930 -0.0340  0.0193  0.0284
23555W        W39024   3.871  15.779   4.496  0.1648  0.0529  0.0571
23556W        W39025   9.956  17.571  13.735  0.0762 -0.1284  0.3174
23557W        W39026   5.964   0.083  12.730 -0.0784 -0.0455  0.0580
23558W        W39027  14.105  12.528  16.582  0.1787 -0.0324 -0.0491
23559W        W39028   4.314   6.017  12.058  0.0318 -0.0333 -0.2600
23560W        W39029   6.057  15.653   4.638 -0.0945 -0.1773  0.2627
23561W        W39030  17.534   7.338  10.560  0.2457 -0.1100  0.0751
23562W        W39031   5.577  11.427   0.457 -0.0314 -0.2971  0.0443
23563W        W39032  10.152  17.545  12.722  0.4682 -0.0847  0.0487
23564W        W39033  17.608   5.660  15.873 -0.3634  0.1625 -0.0323
23565W        W39034  13.096   9.708  12.083  0.0427  0.0484  0.5060
23566W        W39035   7.497   6.471   1.562  0.2516  0.1950 -0.1526
23567W        W39036  10.250  10.995  16.746 -0.3283  0.3159  0.0845
23568W        W39037   3.929  10.537   3.035  0.0345 -0.0574  0.2808
23569W        W39038  16.487   9.832  16.208  0.0444  0.0481 -0.0061
23570W        W39039   9.627   2.962   3.265 -0.1496 -0.1842 -0.0824
23571W        W39040   9.181   0.324  16.494  0.1625  0.0796 -0.0544
23572W        W39041   2.150  10.044   0.991 -0.2591 -0.2111 -0.2830
23573W        W39042   3.782  11.666   3.522 -0.2106 -0.1324  0.1305
23574W        W39043   0.843  13.246   5.479 -0.1073  0.0811  0.3498
23575W        W39044   0.968   2.436   0.033 -0.0196 -0.2420  0.1894
23576W        W39045   3.588   5.954  11.599 -0.0601  0.0558  0.1820
23577W        W39046   9.868   7.511   5.138 -0.1679  0.1880 -0.0240
23578W        W39047  12.218   7.953   2.862 -0.0528 -0.1208 -0.2805
23579W        W39048  13.632  14.964   2.634 -0.1339  0.2536  0.2632
23580W        W39049  13.857   4.438  12.983 -0.1953 -0.1375  0.2115
23581W        W39050   5.389   0.896  12.246 -0.1592 -0.3762 -0.1544
23582W        W39051   6.221  13.929  14.561  0.1804  0.1228 -0.2615
23583W        W39052   9.595  13.065  16.574  0.0924  0.0362  0.0633
23584W        W39053  11.114   8.133  13.998  0.0981  0.1855  0.2035
23585W        W39054   0.682  16.085  15.905 -0.0432  0.0753 -0.2122
23586W        W39055  17.171  12.943  11.615  0.1135 -0.0978  0.0419
23587W        W39056   2.015   8.419   0.190 -0.0307 -0.1636 -0.2356
23588W        W39057  11.757  12.582  13.779 -0.0887 -0.0376  0.3906
23589W        W39058   9.616  16.620   3.798 -0.0365 -0.2160 -0.1871
23590W        W39059  10.850   8.361   4.529  0.1936  0.1206  0.0612
23591W        W39060   6.779   4.896   5.835  0.1633 -0.2656  0.0064
23592W        W39061  16.357  14.873  11.232 -0.1684  0.0022  0.1444
23593W        W39062  16.553   8.585   4.458 -0.0090 -0.1427 -0.2259
23594W        W39063   1.709  12.376  11.663  0.0451  0.1320 -0.1066
23595W        W39064   3.927  11.949  15.605 -0.2135  0.0006  0.0582
23596W        W39065  13.831   9.636  11.420 -0.2249  0.1055 -0.0810
23597W        W39066   7.278   0.851   1.212  0.0656  0.1380 -0.1613
23598W        W39067  10.415   1.080   4.131  0.1740 -0.1311 -0.2040
23599W        W39068   1.761  13.411   4.141 -0.1958  0.1962 -0.0075
23600W        W39069  11.866  13.696   2.773  0.1431  0.1110  0.3138
23601W        W39070  11.553   1.528   3.587  0.0030 -0.1004  0.0984
23602W        W39071   9.388   9.453   1.247  0.1466 -0.0213  0.3250
23603W        W39072   9.410   8.638  11.615 -0.1081 -0.0628 -0.2967
23604W        W39073  15.598   8.117  15.625 -0.0058 -0.1441  0.1619
23605W        W39074   3.714   5.132   4.629 -0.1506  0.0079  0.1357
23606W        W39075  15.529   4.500   3.754 -0.0844 -0.0099 -0.0868
23607W        W39076   6.538   0.668   0.545 -0.3328 -0.1443  0.0453
23608W        W39077   1.194   8.383  13.925  0.4552  0.4998  0.0583
23609W        W39078  15.178  11.384   4.214 -0.1851 -0.0458 -0.1445
23610W        W39079   2.607   3.144  13.988  0.3583  0.1162 -0.0648
23611W        W39080   7.065  12.007   1.515 -0.0683  0.4268  0.0568
23612W        W39081   3.392  17.761   2.032 -0.3068 -0.0550 -0.1482
23613W        W39082  13.837  15.532  12.509  0.0337  0.0917 -0.0162
23614W        W39083  16.056   8.019  15.936  0.0856  0.2802 -0.0970
23615W        W39084   4.315  11.824   5.560 -0.3742  0.0734 -0.2705
23616W        W39085   1.958   1.347  14.230  0.1327 -0.1308  0.0738
23617W        W39086   4.144   6.009   5.825 -0.1413  0.1163 -0.0218
23618W        W39087   1.611   3.155   3.639 -0.0138 -0.2945 -0.0048
23619W        W39088   2.281   5.689   0.079 -0.2426 -0.2415 -0.0938
23620W        W39089   8.031   1.104  14.010 -0.0128 -0.1062 -0.0863
23621W        W39090  12.788   8.452   3.459  0.0298  0.1414  0.0367
23622W        W39091  15.688  10.265   2.203 -0.2228  0.0365 -0.0312
23623W        W39092  15.094  16.377  14.132 -0.0629  0.1036  0.1582
23624W        W39093   2.756   3.449  14.678 -0.0941  0.0695  0.0875
23625W        W39094   9.306   8.130   4.641 -0.1644 -0.0222  0.2023
23626W        W39095   5.178  12.537   1.306 -0.1607 -0.3712 -0.0230
23627W        W39096  14.625  13.020  11.659  0.4381  0.0661  0.1197
23628W        W39097  13.438   6.963   0.286 -0.1255 -0.4921  0.0844
23629W        W39098   7.564  16.839   3.834 -0.0380  0.1362  0.0155
23630W        W39099  11.133  10.215  15.391  0.0402 -0.0329 -0.1091
23631W        W39100  12.454   0.915   1.036  0.1008  0.0221 -0.4328
23632W        W39101   7.772  15.947   2.963 -0.0118  0.1743 -0.3955
23633W        W39102  15.246  10.061  14.234 -0.3062 -0.0151  0.0302
23634W        W39103   1.013   1.329  16.078  0.1686 -0.2589 -0.0329
23635W        W39104   5.166   0.457  12.970  0.2871  0.2773  0.2948
23636W        W39105   8.846   4.519  11.110 -0.2296  0.3004 -0.1397
23637W        W39106  12.462  12.462  14.265  0.1892  0.1569  0.1028
23638W        W39107   6.613  16.918  12.574  0.1415 -0.1567  0.0430
23639W        W39108   5.131   3.600   2.885  0.0090  0.0643  0.2890
23640W        W39109  14.506   7.874  15.202 -0.0705  0.1696 -0.3317
23641W        W39110   0.841  13.997  13.507  0.0805  0.0372 -0.2059
23642W        W39111  12.858   1.171   1.844  0.0767  0.0074 -0.1946
23643W        W39112   9.948   2.542  12.019  0.1032 -0.1074 -0.1526
23644W        W39113   1.472   2.838  15.079 -0.0788  0.0228 -0.1798
23645W        W39114   4.968   7.115   1.163 -0.0429 -0.1631  0.0219
23646W        W39115   6.041   6.426   2.336  0.2087 -0.0548 -0.1038
23647W        W39116   9.150   5.369   2.912  0.1980  0.2159  0.1530
23648W        W39117  14.009   1.822   6.081  0.1446 -0.0456  0.1050
23649W        W39118  14.930   8.781   3.103  0.2682 -0.1950  0.1320
23650W        W39119   1.456   9.754  16.069  0.0218  0.0653 -0.0009
23651W        W39120   8.236  11.819  15.416 -0.0178 -0.1732  0.1131
23652W        W39121  13.055   7.478   0.115 -0.5233 -0.2090 -0.0794
23653W        W39122   1.561   4.177  15.487  0.0598 -0.0332 -0.0838
23654W        W39123   7.380   4.120  16.274  0.1520  0.2610  0.1510
23655W        W39124  14.446   8.456   2.572 -0.2589 -0.1142  0.0148
23656W        W39125   6.953  14.011   0.627 -0.0269 -0.0906 -0.0579
23657W        W39126  14.228   8.745  14.072  0.0080  0.3700 -0.0348
23658W        W39127   2.875  13.605  11.526 -0.2573  0.3583 -0.1317
23659W        W39128   2.002   8.330   3.949  0.1589  0.3648  0.2652
23660W        W39129  17.599   4.865   2.980 -0.0836  0.0865  0.0221
23661W        W39130  10.510   5.391   0.280  0.0984  0.0489 -0.3387
23662W        W39131   5.808  17.455   0.531  0.1002  0.2632 -0.0457
23663W        W39132   4.110  10.005  13.505  0.3981 -0.1298 -0.2849
23664W        W39133   0.595   6.567   3.367  0.0025  0.0294  0.1345
23665W        W39134   4.246   1.603   5.220 -0.0635  0.0401 -0.0157
23666W        W39135   1.759   4.011   4.011 -0.0808 -0.0407  0.0474
23667W        W39136   9.277   5.811   2.612 -0.0493  0.1026 -0.1088
23668W        W39137   5.715   9.740   2.333  0.3048 -0.2422 -0.0104
23669W        W39138   8.014  10.665   1.126 -0.1053 -0.1149  0.1864
23670W        W39139   9.491   5.885  11.104  0.0182  0.0319  0.2391
23671W        W39140  14.739  14.523   2.789  0.0302 -0.3520  0.0310
23672W        W39141  11.775   5.392   0.286 -0.2194 -0.2069 -0.1603
23673W        W39142  16.052  13.980  11.658 -0.1035  0.0803 -0.2237
23674W        W39143   0.191  12.047   0.069 -0.0353  0.1380 -0.1647
23675W        W39144  12.365  15.302  14.098 -0.1303 -0.1311  0.1030
23676W        W39145   9.775   8.661   0.404  0.3298 -0.0083 -0.3751
23677W        W39146  15.162   0.565   1.276 -0.0913  0.0462 -0.1803
23678W        W39147  11.768   0.695   2.383  0.0647  0.0788 -0.0798
23679W        W39148   3.214   5.564  13.171  0.0810 -0.0370  0.1078
23680W        W39149   7.925  12.330   0.833 -0.0332  0.0725  0.0057
23681W        W39150   3.628   6.420  11.536  0.0085 -0.0496  0.4049
23682W        W39151   5.018   3.465   1.674 -0.2334  0.3376 -0.1359
23683W        W39152   0.994   8.155  14.737 -0.1785 -0.2634 -0.0305
23684W        W39153  11.803   8.548   0.488 -0.3051  0.0726  0.0711
23685W        W39154   4.843   4.296  13.157 -0.0383 -0.0216 -0.1660
23686W        W39155  14.458   0.921   2.733  0.1340 -0.1620  0.0009
23687W        W39156  14.652  16.281   1.845  0.1495  0.1245 -0.0556
23688W        W39157   2.128   8.113  14.151  0.3205  0.0144 -0.2896
23689W        W39158   2.967  14.582   4.714  0.1041 -0.2419  0.1397
23690W        W39159  14.965  14.133  14.199 -0.1475 -0.1126 -0.0716
23691W        W39160  16.173   2.956   2.161 -0.0152  0.4592  0.1071
23692W        W39161  10.455  13.276  15.069 -0.1395  0.0884 -0.3171
23693W        W39162  11.582   1.295  11.711 -0.0281 -0.0595 -0.1782
23694W        W39163  10.212  16.759   5.841 -0.0477 -0.0920 -0.0308
23695W        W39164  10.876   9.821  14.016  0.1701 -0.2515 -0.2112
23696W        W39165   4.656  10.868  15.218  0.1136 -0.2095 -0.2954
23697W        W39166  12.514   6.789  15.071 -0.1133 -0.2280  0.0061
23698W        W39167   1.694   5.351  12.078 -0.0965  0.2190 -0.0710
23699W        W39168   3.708  17.597  12.646 -0.1103  0.1865  0.0992
23700W        W39169   1.367   3.296  14.946 -0.1106  0.2592 -0.4509
23701W        W39170  16.049   8.784  14.441  0.1260  0.3871 -0.0094
23702W        W39171   0.064  13.108   0.818  0.0315 -0.1980  0.0821
23703W        W39172  12.523   6.102  15.918 -0.0630 -0.2214  0.0022
23704W        W39173   0.939  13.663   2.513 -0.0307  0.0491  0.0825
23705W        W39174  17.653  14.896   0.821  0.1117  0.3156 -0.2597
23706W        W39175  17.499   7.492  15.129 -0.1754  0.0157  0.2549
23707W        W39176   3.566  11.237  12.948 -0.0608 -0.0883  0.0228
23708W        W39177   3.554   0.365   3.356 -0.1130 -0.0699 -0.0249
23709W        W39178  12.960   5.822  14.130 -0.0600 -0.0364 -0.0375
23710W        W39179  12.417   1.486  11.907 -0.1522  0.1375 -0.3636
23711W        W39180  10.835   2.007  11.984 -0.1211  0.3908 -0.0930
23712W        W39181  13.997   0.137   1.557  0.1163  0.3268 -0.0048
23713W        W39182   9.537  13.823   2.373 -0.3398 -0.0362  0.0390
23714W        W39183  16.562   7.373  16.476  0.1853  0.0371 -0.1733
23715W        W39184   5.233   2.815  15.647  0.1901 -0.0839 -0.0546
23716W        W39185   3.924   1.447  14.885  0.0145 -0.2521 -0.1408
23717W        W39186  12.152  10.349   1.941  0.1504  0.0245 -0.4015
23718W        W39187  11.691   8.874  14.069  0.1075  0.1170 -0.1465
23719W        W39188   4.506  13.399  11.914 -0.1017  0.0404 -0.3758
23720W        W39189   3.724   0.415  13.903  0.1728 -0.2573  0.1139
23721W        W39190  10.705  12.010  12.967  0.1484  0.1987  0.0696
23722W        W39191   7.458  13.869   1.990  0.0204  0.0394 -0.1688
23723W        W39192  13.013  12.403   1.237 -0.0386 -0.1062 -0.2665
23724W        W39193   4.112   7.640   4.371 -0.1655  0.1402  0.2106
23725W        W39194  16.998  14.600  15.843 -0.3215  0.0346  0.0774
23726W        W39195   0.673  14.345  12.608  0.1421 -0.3640 -0.0914
23727W        W39196   2.056  14.952   0.861 -0.3391  0.2002  0.3316
23728W        W39197   1.499   2.042   0.527 -0.0213  0.2399 -0.3533
23729W        W39198   7.462  17.610   5.755 -0.1814  0.2895  0.0954
23730W        W39199  12.825  15.632   2.235  0.1678 -0.0165 -0.2998
23731W        W39200   4.197  17.454   3.976 -0.0865 -0.1025 -0.1139
23732W        W39201   6.045   7.631   2.503 -0.0775  0.2908 -0.0019
23733W        W39202  14.025   8.745   0.284 -0.2909  0.2240  0.2063
23734W        W39203   8.609  12.773   4.458  0.1350  0.3475  0.1215
23735W        W39204   4.317  10.514   3.533 -0.4096 -0.1069 -0.1904
23736W        W39205  11.609  17.587  12.234  0.1745 -0.0466 -0.1567
23737W        W39206  17.075   1.321   2.585  0.1086 -0.0344 -0.1617
23738W        W39207  11.643  11.529   1.711 -0.1285  0.1618 -0.0710
23739W        W39208   4.465   2.235  16.473  0.1662 -0.0289 -0.3850
23740W        W39209  14.001  12.270   4.069  0.2464  0.0944  0.1614
23741W        W39210   4.184   2.191  12.120 -0.2725 -0.0459 -0.0056
23742W        W39211  14.996   5.604   1.107  0.2656  0.0783  0.0670
23743W        W39212   5.586  13.490   5.737 -0.0344 -0.2225  0.0058
23744W        W39213  13.644  13.380   2.585 -0.0924 -0.1586 -0.0157
23745W        W39214  12.141  11.694  16.187 -0.0642 -0.0793  0.2390
23746W        W39215  15.979  15.172   0.628 -0.2133 -0.1361  0.0745
23747W        W39216   1.156   9.812  14.271  0.2863 -0.3591  0.0819
23748W        W39217  16.616   4.895   2.930  0.4312  0.2662 -0.2823
23749W        W39218  11.815   1.096  13.229 -0.2494 -0.0767  0.3659
23750W        W39219   7.835  17.487  14.268 -0.0928 -0.0759 -0.0221
23751W        W39220   2.056   1.356  12.047 -0.2850 -0.0437  0.3852
23752W        W39221   7.151   6.305   3.693 -0.1207 -0.0323 -0.1183
23753W        W39222  10.999   5.762  10.843 -0.2706  0.1114  0.1202
23754W        W39223   7.650  15.520   3.357  0.0033 -0.0869 -0.1410
23755W        W39224  14.881   3.917   1.330  0.0543 -0.2383 -0.0340
23756W        W39225   9.073   1.663   5.685  0.0035  0.1625  0.0720
23757W        W39226   3.861  16.313  12.191  0.0993 -0.2082  0.1442
23758W        W39227   7.342  11.381  16.665 -0.0096  0.1528  0.0005
23759W        W39228  14.697   0.621   0.999 -0.1106  0.2586 -0.2888
23760W        W39229   5.185   4.485   5.520 -0.5207  0.0549 -0.2654
23761W        W39230  12.953   3.940   3.181  0.0438 -0.2274  0.1839
23762W        W39231   5.148  15.706   0.680  0.1957 -0.3055  0.2993
23763W        W39232   6.977   9.297   1.238  0.1516  0.2919 -0.0450
23764W        W39233   3.929   5.595   4.353  0.2324 -0.1823 -0.1961
23765W        W39234   5.700  10.906  14.197  0.0623 -0.1513 -0.0440
23766W        W39235  10.548  12.828   5.915 -0.0668 -0.2062 -0.1448
23767W        W39236   0.951   4.650  11.147 -0.1471 -0.0777  0.1731
23768W        W39237  10.096  14.083   2.082  0.0618  0.3054  0.0324
23769W        W39238   6.553   8.986  15.199 -0.1747 -0.2175 -0.1149
23770W        W39239  10.842   7.136   1.241 -0.1697 -0.0166 -0.0324
23771W        W39240   0.244  12.222   2.367  0.1380  0.2606 -0.0152
23772W        W39241  12.003   9.902   5.287  0.2616  0.1887 -0.0199
23773W        W39242  12.569   8.740   5.293  0.1344 -0.1517 -0.0519
23774W        W39243   9.334  16.021  12.816 -0.2450  0.2150  0.3389
23775W        W39244  17.672   9.144  14.061  0.0536  0.0106  0.1901
23776W        W39245  15.034  12.740  15.860 -0.1591  0.0873 -0.2048
23777W        W39246   7.664   4.555   3.093  0.1042  0.1639 -0.2672
23778W        W39247  14.009   7.086   4.806 -0.1951  0.2406  0.2306
23779W        W39248  10.709   0.362   2.660  0.0327 -0.1207  0.0210
23780W        W39249  16.960  16.081  15.883  0.3951 -0.1840  0.1081
23781W        W39250   9.021  17.218   4.959 -0.1109 -0.0460  0.1093
23782W        W39251  10.013   5.229   0.176  0.2715 -0.2146 -0.1259
23783W        W39252   3.160   9.535   4.733 -0.0914  0.0826 -0.3182
23784W        W39253  12.019  11.826   3.834  0.0568  0.1088  0.0637
23785W        W39254  12.445  13.659   5.343 -0.0280  0.1710 -0.1649
23786W        W39255  16.829  16.888   4.162  0.0891  0.2700  0.0964
23787W        W39256  13.506  12.534  15.090 -0.0992  0.0953  0.4115
23788W        W39257   1.527   0.206  13.435 -0.0090 -0.1701  0.0346
23789W        W39258  12.726   3.699   4.985 -0.2523  0.1903 -0.0702
23790W        W39259   9.343   5.152  15.398 -0.0817  0.1907  0.1019
23791W        W39260  14.455   3.628   1.223  0.0258  0.0287 -0.1494
23792W        W39261   8.637   4.697  13.428  0.1802 -0.3511  0.0356
23793W        W39262   2.215  14.684  15.666  0.0755  0.0404 -0.4634
23794W        W39263  10.135  16.560  13.833  0.0169 -0.1250 -0.3136
23795W        W39264  14.662   9.042  16.762  0.1547  0.1647 -0.0874
23796W        W39265   1.671   0.357  11.327 -0.0951 -0.1887  0.0301
23797W        W39266   5.179   8.702   1.889 -0.1035 -0.2695 -0.3167
23798W        W39267   1.218   1.567   0.426 -0.1996 -0.0889 -0.0379
23799W        W39268   7.659   3.726  12.420  0.2847  0.0370 -0.0385
23800W        W39269  10.015   2.049   4.271 -0.0245  0.2147 -0.0729
23801W        W39270  14.714  13.245  16.203  0.0094  0.0524  0.2667
23802W        W39271  10.057   9.814   0.728 -0.1507  0.1020  0.1370
23803W        W39272  11.863   1.409   1.881  0.1728  0.0903 -0.0115
23804W        W39273   5.463  17.050  13.294  0.4284  0.1737  0.1567
23805W        W39274  13.149  15.551   1.420  0.2617 -0.1708 -0.0996
23806W        W39275   5.613  14.003  14.006  0.2059 -0.0084 -0.0176
23807W        W39276  16.852  12.999   1.792  0.0186  0.1338  0.2463
23808W        W39277  10.859  16.046   2.797 -0.2809 -0.0120  0.1425
23809W        W39278  11.235   6.458  16.422 -0.0518 -0.3087 -0.0637
23810W        W39279   2.539  12.769  13.058 -0.4005 -0.1481 -0.0529
23811W        W39280  14.557  16.037   5.219 -0.1860 -0.0392 -0.1681
23812W        W39281   7.289  12.537   5.312 -0.2120 -0.2359  0.0423
23813W        W39282   8.861   0.784  11.887  0.2211  0.0423 -0.1982
23814W        W39283  12.495  15.838  12.766 -0.0972 -0.1224 -0.0825
23815W        W39284   8.177   3.770   1.412 -0.1722 -0.1104  0.1013
23816W        W39285  16.721  14.439  13.667  0.0532  0.1892  0.0636
23817W        W39286   7.862  12.648  15.486 -0.0787  0.0778 -0.1187
23818W        W39287   4.174  10.924  15.495 -0.0956  0.0420 -0.1861
23819W        W39288  15.688  17.370  11.709  0.3573  0.2363 -0.0568
23820W        W39289   5.450   3.444  11.726 -0.0219  0.1441 -0.0001
23821W        W39290  10.121   5.137  15.150 -0.1551 -0.0660  0.0854
23822W        W39291   5.759   6.089  12.275  0.0073  0.2210  0.1205
23823W        W39292  12.713  10.938   3.659 -0.0242  0.0784 -0.1530
23824W        W39293   0.982  15.367   2.705 -0.1193 -0.1393  0.0851
23825W        W39294   5.490   9.016  13.254  0.0131 -0.1583 -0.0425
23826W        W39295  14.903   5.723   3.887  0.0489  0.1691  0.0157
23827W        W39296   8.288   8.764   3.004  0.0617  0.2457 -0.1473
23828W        W39297   5.051  16.432  14.595 -0.3078  0.1730  0.4174
23829W        W39298  13.624   2.361  16.823  0.0930 -0.0569 -0.1671
23830W        W39299  15.672   5.411   3.497 -0.1197  0.0272 -0.2160
23831W        W39300  14.500  12.092   3.840 -0.0054 -0.0067  0.0025
23832W        W39301   7.779   5.689   0.555  0.0268 -0.0123 -0.3338
23833W        W39302  11.694   0.550   3.955  0.1074 -0.0201 -0.0776
23834W        W39303   6.588   9.797   2.486  0.0355  0.1144  0.3388
23835W        W39304  12.271   2.525   1.952 -0.0127 -0.0338  0.0986
23836W        W39305   3.450   1.583   3.910  0.0759  0.1457  0.1081
23837W        W39306  12.269  17.189  13.907 -0.0596 -0.2522  0.0585
23838W        W39307  12.051  10.562   0.535  0.1359  0.1115 -0.2323
23839W        W39308  11.314   2.034   2.949 -0.0082 -0.1921 -0.0302
23840W        W39309   0.640   6.283   0.958  0.0214  0.0229 -0.1409
23841W        W39310   4.436   5.715   4.922  0.2981 -0.0157 -0.2246
23842W        W39311  15.773  10.090  10.435 -0.2047  0.2498 -0.4526
23843W        W39312  17.237  14.192   3.428  0.0010 -0.1327 -0.0483
23844W        W39313  10.806   8.122  11.945 -0.0593 -0.0114 -0.1033
23845W        W39314   5.465   6.350   4.158 -0.2975 -0.0012 -0.1869
23846W        W39315  10.627   9.485   0.709  0.3192  0.0595 -0.1635
23847W        W39316   2.454  13.411   5.066  0.0376 -0.3000 -0.0744
23848W        W39317  12.259  12.126   4.187 -0.2211  0.2118  0.2600
23849W        W39318  14.882  14.312   0.721  0.1116 -0.2501 -0.0854
23850W        W39319   4.091   6.587  15.500 -0.0926 -0.1438  0.0638
23851W        W39320  16.729  15.473   0.735  0.1766 -0.1146  0.1442
23852W        W39321   6.442   6.034   5.762  0.0633 -0.0354  0.2478
23853W        W39322  12.114   6.910  13.852  0.0958 -0.1607  0.0344
23854W        W39323  11.715   7.353  14.101 -0.2049  0.0080 -0.0226
23855W        W39324   5.895   3.911   1.752  0.1363  0.0172  0.2063
23856W        W39325   8.187  14.956  12.927  0.0537  0.1884 -0.1817
23857W        W39326   0.894  13.756   1.626  0.1212 -0.0037  0.0353
23858W        W39327   6.311  17.276  16.580 -0.0838  0.2200 -0.3049
23859W        W39328   3.025  10.731  14.792 -0.0647 -0.0642 -0.4292
23860W        W39329  10.124   2.027  11.759 -0.0507 -0.0238 -0.0580
23861W        W39330   0.053  11.516   1.879 -0.1550  0.0218  0.0923
23862W        W39331  15.374  16.726  16.177  0.2383  0.2035  0.0355
23863W        W39332   9.784   1.144  12.574 -0.0193  0.0584  0.1831
23864W        W39333  14.591  15.725  13.647  0.3275 -0.2602 -0.2047
23865W        W39334  15.717   7.615  15.559 -0.1728  0.1260  0.2184
23866W        W39335   3.420  15.697  14.624  0.0381  0.0617  0.3394
23867W        W39336  14.237  10.030  14.061 -0.0292  0.2533 -0.0111
23868W        W39337  13.062   6.250  14.379 -0.2020  0.2487  0.0516
23869W        W39338  12.428   9.806  12.983 -0.3393  0.4077  0.0699
23870W        W39339   4.417  10.034   4.261  0.2210  0.1365 -0.3010
23871W        W39340  11.207   6.957  14.760 -0.4989 -0.0244 -0.3506
23872W        W39341  10.503  15.300  16.030  0.0451 -0.2019 -0.2719
23873W        W39342  13.515   3.973   3.186 -0.0735  0.0350  0.0446
23874W        W39343   2.044  17.291   1.317  0.1845  0.4508 -0.0908
23875W        W39344   0.430   1.725   3.906  0.4421 -0.1321  0.0199
23876W        W39345  16.491   9.496   0.528  0.0070 -0.0629 -0.0388
23877W        W39346   2.243   0.297   0.764 -0.1607  0.0232  0.0954
23878W        W39347  10.033  13.618   5.006  0.0212  0.0228  0.1131
23879W        W39348  16.208   3.188  12.698  0.0320  0.2293  0.2028
23880W        W39349  17.526   1.759   1.922 -0.1211 -0.2246  0.0796
23881W        W39350  11.439  10.907  12.735  0.1088 -0.2095 -0.2686
23882W        W39351  14.292   6.659  15.594 -0.2358  0.2590  0.3319
23883W        W39352  17.734  14.238   0.411  0.2420 -0.2047  0.1205
23884W        W39353   9.225   3.203   0.273 -0.2515  0.1782  0.0594
23885W        W39354   1.169  11.919   0.334  0.0623  0.0293  0.0297
23886W        W39355   8.255  16.680  12.728 -0.0041  0.1157  0.0996
23887W        W39356  10.723   8.144   1.312 -0.1068 -0.1816  0.1761
23888W        W39357  14.223  12.568   0.189 -0.2288 -0.3940  0.3310
23889W        W39358  17.242   6.726  14.288  0.0997  0.1260  0.1433
23890W        W39359   5.376  15.753  15.281 -0.1914 -0.2643 -0.1122
23891W        W39360   4.371  14.599  12.213  0.1966 -0.0337 -0.0630
23892W        W39361  15.411  13.965  12.292  0.0438  0.0618 -0.0323
23893W        W39362   7.799   0.803   2.253  0.2122  0.1347  0.1907
23894W        W39363  11.916  12.912   2.816  0.1122  0.2547  0.1154
23895W        W39364   1.880  15.512  12.208  0.0479  0.0067 -0.4998
23896W        W39365  15.003   4.608   5.461  0.0492 -0.2309  0.2929
23897W        W39366  10.449   2.657  15.658  0.1969  0.1304  0.1246
23898W        W39367   3.434  10.274   1.064  0.1621  0.1326  0.1405
23899W        W39368   4.918   4.670   3.088 -0.0328 -0.0456  0.2290
23900W        W39369   3.047   3.861  16.186  0.0220  0.1515 -0.1891
23901W        W39370   9.851   3.874   3.348 -0.3343  0.1066  0.0047
23902W        W39371   0.686  15.470  13.068  0.0653 -0.0107  0.1264
23903W        W39372  11.154   3.902  12.498  0.1425 -0.1026 -0.2078
23904W        W39373   3.149  14.056  16.740 -0.4170 -0.0430 -0.1718
23905W        W39374  16.593   1.767  13.679  0.1882 -0.0730  0.1572
23906W        W39375   4.675   0.321  10.864  0.2486  0.0543  0.2209
23907W        W39376  13.195   7.222   2.655 -0.0245  0.2778  0.1168
23908W        W39377  10.277  11.424   4.725 -0.3528 -0.0056  0.1715
23909W        W39378  11.337  15.633  15.226 -0.0719  0.1572 -0.1174
23910W        W39379   0.486   1.757   4.455 -0.1481 -0.0130  0.1775
23911W        W39380   7.275  14.645  13.113  0.0959 -0.0788  0.1850
23912W        W39381  12.739   0.114   0.258 -0.1415 -0.0020 -0.1191
23913W        W39382   0.540   2.817  15.890 -0.1175  0.2088  0.1722
23914W        W39383  10.354   9.703  14.927 -0.1855 -0.4932  0.2483
23915W        W39384   2.572   1.237  15.177  0.1363 -0.0218 -0.0005
23916W        W39385   7.926   8.189  12.136  0.0516 -0.0254  0.0094
23917W        W39386   1.336  13.989  16.480  0.0497 -0.3523 -0.0458
23918W        W39387   0.346  12.479  12.455 -0.1218 -0.1011 -0.2078
23919W        W39388  17.456  16.196   4.045 -0.2669  0.1881  0.0840
23920W        W39389   1.775  10.294  13.786  0.0496  0.1184  0.0166
23921W        W39390  17.423   9.864   4.411  0.0745  0.1340  0.0100
23922W        W39391   1.000  16.568   4.659 -0.0626  0.0138  0.0855
23923W        W39392  16.576   0.704   0.870 -0.1361 -0.0590 -0.0420
23924W        W39393   6.113  13.529  11.543 -0.2774  0.1084 -0.0322
23925W        W39394   9.418   7.389  14.495 -0.2179 -0.3452 -0.2030
23926W        W39395  12.312   4.056   5.133  0.0236 -0.2391 -0.1006
23927W        W39396   5.140   5.709   4.470  0.2214 -0.0622 -0.0452
23928W        W39397  15.907   7.264   5.170  0.2460  0.0348 -0.2323
23929W        W39398  14.112  16.219  14.327 -0.0216  0.1205 -0.1767
23930W        W39399  17.190  16.667  12.546 -0.2175 -0.1962  0.2599
23931W        W39400   5.586   9.279  12.293  0.0302  0.0460  0.1014
23932W        W39401   1.602  12.102   4.003  0.1144  0.0591  0.0921
23933W        W39402  15.946   9.019  16.207 -0.0079  0.2630  0.2003
23934W        W39403  13.182  10.379  15.101  0.0779 -0.1803 -0.0431
23935W        W39404  12.148   3.071   0.224 -0.0522 -0.0543 -0.0408
23936W        W39405  11.578   4.685   4.500  0.1110 -0.1091 -0.0406
23937W        W39406  16.994  15.145  14.382  0.1293  0.2167  0.0959
23938W        W39407  11.789   3.127   6.762  0.1082  0.0144 -0.0371
23939W        W39408  16.922   0.810   2.893 -0.1475 -0.0526  0.0341
23940W        W39409   4.436   1.049  16.840 -0.0472 -0.0922 -0.0358
23941W        W39410   2.327  15.300   2.722  0.1940  0.1027  0.1813
23942W        W39411  14.802  11.145   5.187 -0.0731  0.0441  0.0019
23943W        W39412   6.422  13.440  15.304  0.1032  0.2365 -0.0458
23944W        W39413  16.651  15.994   0.756 -0.1249 -0.0689 -0.2025
23945W        W39414   4.862   2.608  12.973 -0.0051  0.0122  0.2088
23946W        W39415   9.391   7.617  14.925 -0.1781 -0.1265  0.2604
23947W        W39416  10.828  12.693  15.949  0.0427 -0.1725  0.0665
23948W        W39417   2.702   6.930  16.510  0.0851 -0.0966  0.0193
23949W        W39418  10.439   0.349  15.580  0.1352  0.1413 -0.1462
23950W        W39419  11.606   0.355  13.694 -0.0959  0.3431 -0.0938
23951W        W39420   1.039   2.405   0.930  0.0699  0.2632  0.0270
23952W        W39421   2.517   7.355   2.454 -0.3198  0.0841  0.0342
23953W        W39422  17.289  10.115   3.253  0.2896  0.0325  0.2527
23954W        W39423  16.962   7.456  13.055 -0.1416  0.2845  0.0011
23955W        W39424   5.789  13.698   0.247 -0.3075 -0.2791  0.0893
23956W        W39425   5.842   1.593  13.648 -0.0923  0.1132 -0.0826
23957W        W39426  14.025   2.664  15.086 -0.0525 -0.1770 -0.1175
23958W        W39427  17.642  14.141  14.169  0.3626 -0.2985  0.1531
23959W        W39428  17.398   1.865   3.443  0.0013  0.0965 -0.3268
23960W        W39429  10.299   0.137   0.688  0.0695 -0.1955  0.0091
23961W        W39430   4.263  13.814  16.028 -0.0787 -0.1538 -0.2608
23962W        W39431  15.848  14.798  11.404  0.1503 -0.0782  0.1949
23963W        W39432   4.593  10.679   4.922 -0.1468  0.0286  0.1158
23964W        W39433   2.462   1.293   0.444  0.0662  0.3301  0.0114
23965W        W39434   9.027   0.472  12.373 -0.2858  0.0401 -0.0106
23966W        W39435  17.395   6.238  16.016 -0.2684  0.1289  0.1209
23967W        W39436  13.636  14.596   1.738  0.0022  0.0667 -0.0711
23968W        W39437   2.496   1.790   3.380 -0.2154 -0.0430  0.0520
23969W        W39438   7.585  11.710  15.816 -0.0582  0.1314  0.0365
23970W        W39439   2.865  14.838  16.696  0.2128 -0.0256  0.1892
23971W        W39440  15.472  11.674   4.603 -0.1828  0.0449 -0.4364
23972W        W39441   3.092   9.135  12.356 -0.3328 -0.2738 -0.0725
23973W        W39442   6.247   1.478  13.898  0.0611  0.1290 -0.1131
23974W        W39443  14.801   7.723  14.452  0.1096 -0.1450  0.0559
23975W        W39444   4.833   1.302   0.177  0.1481 -0.1289  0.2281
23976W        W39445  10.808  13.569  12.927  0.1752  0.1316 -0.2944
23977W        W39446   2.856  17.725  11.878  0.1160 -0.0555 -0.2701
23978W        W39447  16.575  15.502  12.364  0.0223  0.2162  0.3188
23979W        W39448  14.610  12.481   2.289  0.0629 -0.1261  0.2418
23980W        W39449  11.503  14.872   1.505  0.1626  0.0594  0.1528
23981W        W39450  16.172   9.321   0.080 -0.0710 -0.2355 -0.3321
23982W        W39451   6.613   0.366  15.431  0.1244 -0.1728  0.0835
23983W        W39452   9.933   0.355   2.817  0.0315 -0.1374 -0.2659
23984W        W39453   9.221   7.106   3.187  0.0348  0.0166  0.0565
23985W        W39454   0.579   0.684  15.472 -0.1215  0.1213 -0.0116
23986W        W39455   7.409   0.823  11.706 -0.2531 -0.1921 -0.1392
23987W        W39456   5.501   2.341   4.890  0.1499 -0.1722  0.0218
23988W        W39457  16.427  14.566   3.458  0.0544 -0.1319 -0.1367
23989W        W39458   4.274   7.728  13.665 -0.1514  0.0122  0.1057
23990W        W39459  15.056   7.118   4.975  0.1783 -0.2512 -0.1083
23991W        W39460   6.632   2.930  12.337 -0.2459  0.2556 -0.1513
23992W        W39461  17.489   7.178  12.226  0.1479  0.0336 -0.0855
23993W        W39462   2.477  14.868  13.744 -0.0776  0.0490 -0.1980
23994W        W39463   3.900  13.251   3.798  0.2827 -0.1535 -0.1943
23995W        W39464   9.522   9.970   4.179 -0.0551  0.1046  0.1436
23996W        W39465   6.738   2.077  16.131 -0.0689 -0.0561  0.0622
23997W        W39466   5.603  11.249   4.967 -0.0031 -0.0143 -0.3315
23998W        W39467   0.194   1.189  12.646  0.2925  0.1078  0.1152
23999W        W39468   8.914  11.344  15.374 -0.2330  0.0651 -0.2047
24000W        W39469   9.034   3.144  16.517 -0.1526 -0.1750  0.2360
24001W        W39470  12.264  16.320  15.743 -0.1886  0.0193 -0.0916
24002W        W39471   0.749   1.282   3.985 -0.3303 -0.0635 -0.0627
24003W        W39472   5.706   8.267  15.816 -0.0618  0.1349  0.0090
24004W        W39473   2.414  10.840   2.341 -0.1797 -0.1211  0.0626
24005W        W39474   5.972  11.871  12.966 -0.1224 -0.2030  0.1036
24006W        W39475  15.850   9.217  12.118  0.0931 -0.0364 -0.1781
24007W        W39476  15.772   7.319   2.155 -0.3302  0.2264  0.0470
24008W        W39477   8.745  17.779   5.663 -0.0667  0.0176  0.2940
24009W        W39478  15.734   9.501  13.132  0.3208 -0.0240 -0.0176
24010W        W39479  11.759  11.480   1.220  0.0530  0.0772  0.0132
24011W        W39480   2.850  16.056   4.636  0.0532  0.2333 -0.0539
24012W        W39481   1.132  14.068   4.249  0.0520  0.1273 -0.0608
24013W        W39482   8.048  16.596   1.226 -0.1196 -0.4836  0.2796
24014W        W39483   8.953  12.293  12.729  0.0516  0.0120  0.0022
24015W        W39484  10.997  11.132  12.504  0.0037  0.0591 -0.0393
24016W        W39485   2.127   2.653  15.368 -0.3702  0.0477  0.0420
24017W        W39486  13.269  15.363   1.872  0.0210 -0.0377  0.3415
24018W        W39487   8.511  15.558   2.966 -0.0820 -0.0714 -0.0558
24019W        W39488   9.303  14.560  14.124 -0.4185  0.0893 -0.1627
24020W        W39489  12.412  11.186  11.295 -0.1308 -0.3067  0.2618
24021W        W39490   3.060   5.069  13.435 -0.2690  0.0302  0.2388
24022W        W39491  16.979  15.510  16.101  0.1820 -0.1280  0.2623
24023W        W39492  15.205   9.861  16.763  0.0608 -0.0758  0.0169
24024W        W39493  12.134   4.156   1.127 -0.2795 -0.0720 -0.0526
24025W        W39494   7.375   6.433  12.398 -0.1033 -0.3495  0.1484
24026W        W39495  12.495  15.983   2.025  0.2696 -0.0055 -0.0180
24027W        W39496  14.543  13.420  16.702 -0.0051  0.0778 -0.0830
24028W        W39497   3.783  14.170  11.666  0.2992 -0.5507  0.0131
24029W        W39498   2.258  11.122  11.770 -0.1336 -0.3281 -0.1195
24030W        W39499   7.763   4.220  10.936 -0.4204 -0.2592 -0.1556
24031W        W39500  14.509   9.011   4.085  0.0787 -0.2117  0.0498
24032W        W39501   6.979   0.270  15.774  0.2136 -0.1711  0.0788
24033W        W39502   8.404  11.681  12.313  0.0827 -0.0391  0.0444
24034W        W39503  15.016  13.682   1.152 -0.0924  0.1396  0.0087
24035W        W39504  15.363   3.176   2.759 -0.0567 -0.0115 -0.2564
24036W        W39505  10.813  15.171  13.670  0.1369 -0.0488  0.0317
24037W        W39506   0.841  16.510  12.045 -0.4263  0.0313  0.0019
24038W        W39507   8.526  14.824   0.760 -0.0521  0.0159 -0.0291
24039W        W39508   5.597  13.138  13.621 -0.1083 -0.0062  0.2304
24040W        W39509  13.009  13.204  14.062  0.0411  0.0808  0.0307
24041W        W39510   9.566  12.412  15.516  0.0005  0.0687  0.3978
24042W        W39511   0.446  13.268   3.293 -0.5135  0.3308 -0.2340
24043W        W39512  10.872  14.274  15.768  0.2444 -0.0187  0.0704
24044W        W39513  13.646  11.265  11.586 -0.0884  0.1363  0.3852
24045W        W39514  17.766   3.376   0.544  0.2354 -0.1109  0.2406
24046W        W39515   2.420   7.869   4.311 -0.0667 -0.2664  0.0330
24047W        W39516  11.554   8.093   4.755  0.1284 -0.2932  0.1111
24048W        W39517  16.623   6.638  11.353 -0.0619 -0.1546 -0.3839
24049W        W39518  10.624  12.494  12.388 -0.1058  0.0626 -0.1008
24050W        W39519  13.212  14.436   1.079  0.0678 -0.0478 -0.0998
24051W        W39520  14.421   6.708   3.861 -0.0580  0.0169 -0.1084
24052W        W39521  10.059  17.710  14.567  0.1277  0.1033  0.1151
24053W        W39522  17.351   4.070   3.581  0.0288  0.1087  0.3789
24054W        W39523  11.047  11.136  12.997  0.1259  0.0102 -0.1015
24055W        W39524  11.047  14.915   2.559  0.2474 -0.1924  0.3109
24056W        W39525  11.311   0.128   1.451  0.2214 -0.1571  0.0161
24057W        W39526  12.788   3.939   2.413  0.0389  0.1299 -0.1130
24058W        W39527  14.339  16.948   1.098  0.1606 -0.2906  0.2711
24059W        W39528   5.984   2.051  15.643  0.1326 -0.1728  0.1949
24060W        W39529  14.193   3.852  16.361  0.1214 -0.1250  0.0427
24061W        W39530  11.552  16.768  16.421 -0.1510  0.0316 -0.0384
24062W        W39531   0.300   5.196   1.529  0.1266 -0.1656  0.1962
24063W        W39532  15.437   6.636  13.840 -0.0443  0.2608  0.0474
24064W        W39533   5.366  10.929   2.341 -0.1527  0.1379 -0.1951
24065W        W39534  14.544  12.122  11.925  0.0371  0.2009 -0.2434
24066W        W39535  11.927   1.929   1.939  0.1711 -0.2034  0.0520
24067W        W39536   8.287   7.696   2.383 -0.3376  0.1500  0.2050
24068W        W39537   2.811  17.764  16.130 -0.1388 -0.1173 -0.0365
24069W        W39538   0.716  15.302  13.585 -0.0241 -0.6088  0.1737
24070W        W39539   3.142  12.467  10.943  0.2380 -0.1550 -0.4489
24071W        W39540   5.440  13.415  12.671  0.1993 -0.1306  0.2448
24072W        W39541   7.511  14.133   4.446 -0.0744  0.2114  0.0908
24073W        W39542   4.617   9.703  13.122  0.0360  0.1563  0.0219
24074W        W39543  16.415   6.931  10.372  0.3666  0.0501 -0.1757
24075W        W39544   9.984  10.581   5.961 -0.1958 -0.0524 -0.0479
24076W        W39545   0.790  17.020   4.608  0.0231  0.1432  0.0548
24077W        W39546   8.931   6.611   2.014 -0.0088 -0.0156 -0.1033
24078W        W39547   5.579   7.937   2.352 -0.1176 -0.1595 -0.0607
24079W        W39548  15.589  10.752   2.832 -0.0494 -0.0379  0.0191
24080W        W39549   8.810   1.444   3.048 -0.1706 -0.0426  0.2128
24081W        W39550   2.146   4.039   0.860 -0.1689  0.1106  0.0394
24082W        W39551   1.046   5.547  13.420 -0.2587 -0.0732  0.1932
24083W        W39552   8.382  10.228  12.034 -0.2272  0.1806  0.0773
24084W        W39553   4.377   6.434  13.465  0.0646 -0.0552  0.0296
24085W        W39554   2.932  17.352   2.108  0.1801 -0.3004 -0.1756
24086W        W39555  16.630  17.089  14.927 -0.1296 -0.1457  0.0205
24087W        W39556  10.219   1.895  15.360 -0.1667  0.2197 -0.0884
24088W        W39557  14.989  13.532  14.913  0.0735  0.3109  0.2846
24089W        W39558  16.892   5.603   1.472  0.2828  0.0668 -0.2273
24090W        W39559   2.671   2.562  16.554 -0.1000  0.1488  0.0853
24091W        W39560   1.171  16.596   3.751  0.1791 -0.1225 -0.0103
24092W        W39561   5.815  16.860  14.970 -0.1436  0.1842 -0.1464
24093W        W39562   7.073  12.552  16.047  0.3860  0.2161 -0.3304
24094W        W39563  12.128   1.269   1.219  0.3529 -0.0913 -0.0968
24095W        W39564  17.505  14.531   5.149  0.1883 -0.0688 -0.1503
24096W        W39565   3.523  10.700  13.027 -0.0710  0.0702  0.1828
24097W        W39566   1.185   1.127  12.497 -0.0168 -0.2549  0.0798
24098W        W39567   6.637   4.006   0.894  0.2051 -0.3359 -0.1629
24099W        W39568   4.604   9.880   2.929  0.0100  0.0891 -0.1859
24100W        W39569   9.853   8.822  13.285  0.0701 -0.1067 -0.0779
24101W        W39570  16.157   1.527  13.540  0.1211 -0.1016 -0.1008
24102W        W39571   3.200   0.488  12.962  0.2652 -0.0722 -0.0046
24103W        W39572   2.128  14.400   1.665 -0.0388  0.3429  0.1738
24104W        W39573   7.929   3.709   2.701 -0.2673 -0.2004  0.3088
24105W        W39574   7.785  15.329   5.260  0.2662 -0.0569 -0.0523
24106W        W39575   1.201   4.946  13.255 -0.1619 -0.0242  0.3191
24107W        W39576  13.116   5.659   4.461  0.4299 -0.1563 -0.1059
24108W        W39577  12.437   1.059   4.236  0.0617  0.1518  0.0808
24109W        W39578  16.666   9.837   2.717  0.0456  0.2921  0.0271
24110W        W39579  12.658   7.740   0.276 -0.1093  0.0723  0.1447
24111W        W39580   1.239   3.482   0.412 -0.2124 -0.1206  0.1016
24112W        W39581   1.634   8.355   1.045  0.2948  0.3738  0.0086
24113W        W39582   8.091   2.896  16.058 -0.0340 -0.1637  0.0821
24114W        W39583  16.529   6.570  16.147 -0.0371  0.0860 -0.0007
24115W        W39584   9.619   9.304   2.213 -0.0352 -0.3171 -0.1054
24116W        W39585  16.555   2.761  16.001 -0.3631 -0.0254 -0.0781
24117W        W39586  17.153  13.110  15.349  0.1808  0.1465  0.0273
24118W        W39587   3.146  15.658   0.816 -0.2373  0.1175  0.1930
24119W        W39588   1.550   4.748   3.432  0.2005 -0.1036  0.0667
24120W        W39589  14.940  10.423  14.508 -0.0648 -0.0541  0.2657
24121W        W39590   1.764   0.876  11.190 -0.2089 -0.0667 -0.1158
24122W        W39591  12.684  12.165   1.508 -0.2548  0.3781  0.0738
24123W        W39592   0.179   4.449  13.233 -0.1559  0.4908  0.0786
24124W        W39593   6.520  12.065  13.314  0.1763  0.0385 -0.0309
24125W        W39594   8.991   6.731   1.544  0.0237 -0.3533 -0.0203
24126W        W39595  16.680   2.790   2.310  0.0255 -0.0720 -0.2190
24127W        W39596  14.472  12.438   1.763  0.1479  0.2330 -0.1622
24128W        W39597  10.602  11.776  13.997  0.1316  0.0991  0.1349
24129W        W39598   1.712  11.951   2.540 -0.0513  0.1535 -0.0351
24130W        W39599   9.663  12.472  14.570 -0.0374  0.0274 -0.0940
24131W        W39600   9.364   1.059  14.114  0.1393 -0.1216  0.0007
24132W        W39601   2.314   0.956   1.437 -0.1630 -0.2031  0.1363
24133W        W39602   5.628  11.587   5.619 -0.0355  0.0232  0.0572
24134W        W39603   4.974  16.945   0.463  0.1703  0.0560 -0.0450
24135W        W39604   4.561   3.926  13.568  0.0738  0.0691  0.1583
24136W        W39605  12.389   3.640   2.533 -0.0065  0.1064  0.1937
24137W        W39606  14.096  12.110  15.572 -0.0689  0.2900 -0.0690
24138W        W39607  14.510   4.709  11.948  0.0023 -0.4341  0.0231
24139W        W39608  11.029   5.585   3.649 -0.1011  0.1292  0.0012
24140W        W39609   0.692   8.437   3.811  0.0954  0.0146 -0.1290
24141W        W39610  13.064   0.802   2.392  0.1090 -0.0835 -0.0824
24142W        W39611  10.324   1.208   5.806  0.1424  0.0565  0.1909
24143W        W39612   9.345   6.743   5.352 -0.2170 -0.1518  0.1093
24144W        W39613   3.376   3.387   5.348  0.0122  0.4295 -0.1896
24145W        W39614   0.672   9.051   3.907  0.0345  0.4278  0.0828
24146W        W39615   8.590  15.245   1.078 -0.1745  0.1849 -0.1672
24147W        W39616  10.335  13.742   4.558 -0.0437 -0.1064 -0.2932
24148W        W39617  13.196  12.870   2.478 -0.3396 -0.1842  0.0671
24149W        W39618   5.628   5.271  12.655 -0.2681  0.1639  0.0496
24150W        W39619   3.217   7.936   3.410 -0.0852 -0.3413  0.1523
24151W        W39620   8.461  14.264   4.151  0.0879 -0.3175  0.0533
24152W        W39621   1.043  14.988   0.187  0.3143  0.0836  0.0180
24153W        W39622  12.056  11.448   3.233 -0.0636 -0.1930 -0.0100
24154W        W39623   7.030  12.049   3.385  0.1952 -0.0068 -0.2104
24155W        W39624  17.581   9.071   4.765  0.3866  0.4208 -0.0413
24156W        W39625   0.793   2.184   4.580  0.4946 -0.4065 -0.1250
24157W        W39626   4.609   7.334  13.654 -0.1252  0.0596  0.1485
24158W        W39627   5.165   1.332   1.906  0.0308 -0.0579 -0.2385
24159W        W39628  17.753   0.890  13.374 -0.0572 -0.0974 -0.1364
24160W        W39629   4.454   3.513   0.859  0.0353  0.0059  0.3002
24161W        W39630  15.740  13.519   3.449 -0.1009 -0.0375  0.1317
24162W        W39631   1.239  12.615  12.496  0.3302  0.3161  0.2645
24163W        W39632   0.083  16.242  12.221  0.2966  0.0590  0.2653
24164W        W39633   0.128   7.157  13.202 -0.0061 -0.2353 -0.2189
24165W        W39634   6.428   5.815   3.630 -0.4414 -0.1002 -0.1837
24166W        W39635   8.174   9.857   1.783 -0.1724  0.2247 -0.0356
24167W        W39636  15.242   5.723   2.486 -0.2936  0.1452  0.3186
24168W        W39637  14.231   0.632   1.140 -0.1175 -0.0135 -0.3313
24169W        W39638  11.769   4.521   0.016  0.0634 -0.1417 -0.0216
24170W        W39639   9.931  15.444   2.987  0.0558  0.0636 -0.0534
24171W        W39640   8.194   2.734   1.301 -0.0238  0.2281 -0.0465
24172W        W39641  15.651  13.732  11.906 -0.2882 -0.3588 -0.2343
24173W        W39642  15.709  17.671   4.097  0.0777  0.0152  0.0063
24174W        W39643   9.548  11.455  16.193 -0.3227 -0.0268 -0.0178
24175W        W39644  14.315   3.226  13.830  0.0098 -0.0675  0.1296
24176W        W39645   5.916  13.895   4.035  0.0543 -0.2235 -0.2429
24177W        W39646   4.082   7.504  11.015  0.0912 -0.1279  0.0548
24178W        W39647  14.917  16.857  16.354 -0.0964 -0.0793  0.1673
24179W        W39648  10.869   5.435  13.541 -0.1865  0.1482  0.2389
24180W        W39649  10.854  12.967   3.652  0.2084 -0.0343  0.1587
24181W        W39650   4.776   3.416   2.553  0.0659  0.0929  0.3401
24182W        W39651  17.625  16.056  14.552 -0.1281 -0.1366  0.0981
24183W        W39652  16.880   5.119  11.856  0.0879  0.1068  0.0651
24184W        W39653   1.814  12.932   4.882 -0.2174 -0.2351 -0.1161
24185W        W39654   7.317  17.309  13.066  0.2401 -0.1925 -0.0735
24186W        W39655  17.368   4.239  15.128 -0.0313  0.0608 -0.0073
24187W        W39656   6.665   5.925  11.951 -0.1618 -0.0353 -0.1080
24188W        W39657   2.676  13.583   1.558  0.0675  0.0394  0.0557
24189W        W39658  12.270   1.418   0.385  0.2356 -0.1780 -0.0048
24190W        W39659  11.603   2.394   3.716  0.2889 -0.2468 -0.0013
24191W        W39660   6.301   6.800   2.707 -0.2514  0.1400 -0.0736
24192W        W39661   5.464   5.572  14.993 -0.0982  0.0659  0.0289
24193W        W39662  11.834  16.713   3.672 -0.0836  0.0349  0.1725
24194W        W39663   6.069  12.092  14.159  0.0122  0.1256  0.2438
24195W        W39664  15.476   7.606   1.407  0.0409 -0.0079  0.3384
24196W        W39665   3.909  12.648   0.431 -0.2690 -0.1805  0.0242
24197W        W39666   8.529  15.303  12.756 -0.2271 -0.3597 -0.2055
24198W        W39667   1.782  17.749   1.345  0.0675  0.3269 -0.0123
24199W        W39668  16.313   0.507  14.947 -0.0005 -0.0814 -0.0599
24200W        W39669   0.909   6.208   4.586 -0.2477  0.3411 -0.2210
24201W        W39670   8.407   0.434   4.974 -0.1455 -0.2320 -0.0473
24202W        W39671   9.420   4.173  13.364 -0.1451 -0.3098  0.2092
24203W        W39672   2.743   6.920  15.040 -0.2223 -0.0104 -0.1534
24204W        W39673  10.275   6.685  11.795  0.3099  0.0550  0.1313
24205W        W39674  14.021   2.326   2.495 -0.3349 -0.4086 -0.1151
24206W        W39675   1.654   1.531   0.888  0.2601  0.0014 -0.1457
24207W        W39676   4.968   6.566   3.618 -0.4223  0.0506  0.1092
24208W        W39677  10.275  10.892   5.216 -0.0555  0.0661 -0.1450
24209W        W39678   4.057  10.283  16.013 -0.4125  0.1592 -0.1577
24210W        W39679  10.625   1.531  12.593 -0.2169 -0.0322  0.1642
24211W        W39680   3.790  11.323  12.505  0.1830 -0.4970 -0.1289
24212W        W39681   6.193   4.694   4.156 -0.1116  0.1324 -0.0139
24213W        W39682   3.671   4.258  14.905 -0.0972  0.0807 -0.1283
24214W        W39683   4.123  10.847  12.478  0.4911  0.0231 -0.0009
24215W        W39684   0.263   8.669  15.034 -0.3446 -0.0737  0.0795
24216W        W39685   9.389  12.343   5.002  0.2278  0.1706  0.3585
24217W        W39686  17.561  14.696  14.137 -0.0235  0.1776 -0.1075
24218W        W39687   6.500  16.111   3.660 -0.2406 -0.2607  0.3782
24219W        W39688   9.798  16.539   4.761  0.0668 -0.1739  0.0395
24220W        W39689  13.443   6.048   1.086  0.0402  0.0239 -0.1941
24221W        W39690   7.073  17.001  11.817  0.0698 -0.1642  0.1161
24222W        W39691  15.576   1.529   3.233  0.2777 -0.4222  0.1609
24223W        W39692   3.195  12.638   5.129  0.2314 -0.1111 -0.0418
24224W        W39693  16.472  14.978   2.559  0.0460  0.1277 -0.3648
24225W        W39694   1.310   9.964   4.616  0.0454 -0.0220 -0.0850
24226W        W39695  17.394   7.260   0.735 -0.3619  0.4379 -0.3081
24227W        W39696   8.772  11.094   3.776  0.2994  0.0228 -0.1703
24228W        W39697   9.580   6.648   3.100  0.1431 -0.2845  0.1164
24229W        W39698   5.546   2.463  13.411 -0.2032 -0.1340 -0.0275
24230W        W39699  10.462  13.439   1.681  0.0235 -0.1410 -0.0897
24231W        W39700   6.968   3.337  12.537 -0.1801 -0.2468 -0.0859
24232W        W39701   6.378   6.608   5.449  0.0806 -0.2547  0.3505
24233W        W39702   2.206  17.453  15.360 -0.2130  0.0533  0.1807
24234W        W39703  17.185   0.092  14.046 -0.0074 -0.4182 -0.1859
24235W        W39704   1.660   8.160  16.808  0.1499 -0.0928 -0.2900
24236W        W39705   1.722  11.544  13.892 -0.0554  0.0122 -0.1738
24237W        W39706   3.716  12.248  13.253  0.0356 -0.0516 -0.3271
24238W        W39707   3.540   3.423  11.571  0.0185  0.0192 -0.0450
24239W        W39708  16.717   5.417  12.196  0.0150 -0.0054 -0.0872
24240W        W39709   0.563   4.609   1.123 -0.0536  0.1715 -0.2129
24241W        W39710   9.887   8.473   0.909 -0.0184 -0.2057 -0.1360
24242W        W39711   6.967   6.195  16.226 -0.0737 -0.1937 -0.1906
24243W        W39712   3.381   5.532  11.295  0.1024 -0.0394 -0.0552
24244W        W39713  13.882   6.166  15.007 -0.2035 -0.3345  0.0716
24245W        W39714   7.091  17.097  14.037  0.1645 -0.0351 -0.1716
24246W        W39715  16.071  14.828   2.784  0.0979  0.1705 -0.4021
24247W        W39716  17.448   6.788  11.703  0.1409  0.1745 -0.0432
24248W        W39717   4.596  13.147  13.359  0.1820  0.1014  0.0490
24249W        W39718   4.926  13.214   4.077 -0.1712 -0.2760  0.0258
24250W        W39719  10.737  10.198  11.835 -0.1913  0.1248 -0.0958
24251W        W39720   3.640   3.863   4.893  0.3671 -0.5577  0.2154
24252W        W39721   5.077   4.299   0.537  0.1309 -0.1012  0.0327
24253W        W39722  16.446  12.105  12.280 -0.0912  0.0041  0.1190
24254W        W39723  15.266  15.758   0.849 -0.0050  0.0908 -0.3631
24255W        W39724  10.663   4.498   2.443 -0.0403 -0.0182 -0.2934
24256W        W39725   5.783  11.702   1.938  0.1238 -0.0382  0.0987
24257W        W39726   4.326   1.663   1.647 -0.1326 -0.0910 -0.0277
24258W        W39727  12.307   8.463   1.253 -0.0470 -0.2110  0.4068
24259W        W39728   9.096   8.574  16.181  0.0996  0.1979  0.1318
24260W        W39729   8.831  14.016   4.395 -0.0850 -0.2484 -0.3948
24261W        W39730  16.627  10.165  10.831  0.3500 -0.0058 -0.0295
24262W        W39731   7.633   8.529  16.274  0.3795  0.2192  0.1639
24263W        W39732  12.174  14.573  12.516 -0.1074  0.2004 -0.3009
24264W        W39733   4.700  17.531   3.170 -0.1804  0.0029 -0.1370
24265W        W39734  10.217   3.871   0.802 -0.0193 -0.0662 -0.1450
24266W        W39735   3.295   9.603   0.384  0.3299  0.1562 -0.1202
24267W        W39736   6.078   8.413  13.646  0.0727  0.0055  0.1457
24268W        W39737   0.698   3.541  14.178 -0.1500  0.1729  0.0538
24269W        W39738  11.692   0.022   4.074  0.1188  0.2259  0.2655
24270W        W39739  12.615  14.655   0.480 -0.0646 -0.2531 -0.2626
24271W        W39740  15.663  13.634   4.822  0.0888 -0.2256 -0.0639
24272W        W39741  10.537   5.845  13.643  0.2701  0.2632 -0.3626
24273W        W39742   1.508   2.520   4.330  0.2338  0.0743 -0.2606
24274W        W39743   2.205  15.988   3.901  0.0000  0.1758 -0.0618
24275W        W39744   9.757  13.897  14.589  0.0235  0.0985  0.1586
24276W        W39745  17.469   4.788   0.501 -0.1400 -0.1611  0.2240
24277W        W39746   8.708   0.864   2.546 -0.0943 -0.0094  0.2859
24278W        W39747  11.284  14.044   0.122  0.2319  0.0058 -0.0297
24279W        W39748  15.152   2.797  14.830  0.1244 -0.1823  0.0634
24280W        W39749  17.443   9.020  13.555 -0.1795 -0.2078  0.4427
24281W        W39750   3.773  15.288   4.405  0.3347  0.2859 -0.1760
24282W        W39751   9.146  15.041   4.784 -0.0627  0.1563 -0.2660
24283W        W39752  14.446   3.723   2.928 -0.0134  0.0810 -0.0623
24284W        W39753  14.891  12.922   2.937 -0.1097  0.0025 -0.4626
24285W        W39754  15.674   1.546  13.388 -0.2476  0.2855 -0.0357
24286W        W39755  17.452  11.828  11.246 -0.2006 -0.0880 -0.0655
24287W        W39756   6.362   4.984   0.315 -0.2105 -0.0343 -0.0585
24288W        W39757   8.972   9.519   6.391 -0.1883  0.1049 -0.2490
24289W        W39758   4.286   8.425  15.168 -0.0698 -0.0812  0.1517
24290W        W39759   9.743   8.811   2.021 -0.2043  0.0832 -0.0802
24291W        W39760   1.048  11.982  12.424 -0.5698  0.2468 -0.0510
24292W        W39761  12.885  17.757   5.841  0.1957  0.1162  0.2906
24293W        W39762  10.166   1.161  11.715 -0.2159 -0.0268 -0.2255
24294W        W39763   3.385  13.127  15.017 -0.0951 -0.0038 -0.0253
24295W        W39764  15.342   6.585   0.619 -0.2235 -0.2856 -0.1301
24296W        W39765  10.088   5.534   3.399 -0.0343  0.2546 -0.1410
24297W        W39766   5.195   0.174   5.010 -0.0550  0.2822 -0.0797
24298W        W39767  13.369   9.763   5.751 -0.1238  0.4693  0.0154
24299W        W39768  13.932   7.891  15.815  0.0633  0.2327 -0.1734
24300W        W39769  15.838  13.524  12.940  0.1627  0.0142  0.0887
24301W        W39770   4.484  13.414   4.786 -0.0860  0.1425  0.0365
24302W        W39771   6.877  15.150   1.358  0.0782  0.0660 -0.1212
24303W        W39772   5.858  14.633  11.326 -0.1061 -0.3698 -0.1769
24304W        W39773   7.831   0.834  12.454  0.1882 -0.0152  0.2704
24305W        W39774  10.649   9.966   5.048  0.2058  0.1412 -0.2634
24306W        W39775   1.839   6.434   3.960  0.0946 -0.0314 -0.0908
24307W        W39776   8.753  12.927   0.084 -0.0784  0.1056  0.1580
24308W        W39777  17.553   1.162  14.680 -0.1528 -0.0895 -0.0501
24309W        W39778   0.498   4.078   1.561  0.3024  0.2419  0.1416
24310W        W39779   5.192   6.828   1.582  0.1765 -0.0395 -0.2347
24311W        W39780  17.528   8.852  11.672 -0.0747  0.0311 -0.1759
24312W        W39781   2.007   1.820   2.614  0.0838  0.2238 -0.0765
24313W        W39782   5.823   4.762  16.515  0.2210 -0.0439  0.1345
24314W        W39783  10.661  16.212   0.855 -0.1704 -0.1238 -0.0727
24315W        W39784   1.416   3.088  11.147  0.1189 -0.0291  0.2997
24316W        W39785  11.483  14.547  13.068 -0.1039 -0.0493 -0.0750
24317W        W39786   2.185  11.894   2.365  0.0568  0.2831  0.3192
24318W        W39787   2.496   3.565   2.510 -0.2099 -0.0562 -0.1159
24319W        W39788   1.494  17.215  14.609 -0.1290 -0.0921  0.1024
24320W        W39789   9.458   8.041  15.769  0.4667 -0.1186 -0.1300
24321W        W39790  10.761   0.462  13.252  0.0331 -0.0442  0.0630
24322W        W39791   6.748   0.602   2.989  0.2215 -0.0534  0.1600
24323W        W39792   4.301  14.469  14.905 -0.1567  0.0122 -0.1977
24324W        W39793   0.742  17.741  13.762  0.2167 -0.1416 -0.0734
24325W        W39794   1.672   0.802   4.959  0.1502 -0.0630  0.1823
24326W        W39795   5.557   9.226  14.079  0.1529 -0.3788 -0.0219
24327W        W39796   6.650   0.570   0.025  0.0329 -0.1766 -0.0968
24328W        W39797  10.175  12.099  13.778  0.0858  0.2085 -0.5339
24329W        W39798  14.732  13.608   4.927  0.4661 -0.5669  0.0229
24330W        W39799   5.825  17.751   2.098 -0.0076 -0.0049 -0.0676
24331W        W39800  11.333  11.876  11.552 -0.0692 -0.2740 -0.0194
24332W        W39801   4.194  15.654   1.355  0.1918  0.0901  0.0563
24333W        W39802  14.206   0.490   4.069 -0.1063  0.1584 -0.1877
24334W        W39803   2.258   2.589   2.346 -0.0484 -0.2720 -0.1061
24335W        W39804  15.551   5.735  11.421  0.1903 -0.0708  0.2183
24336W        W39805   4.483   5.869   3.928  0.4146  0.1992 -0.1929
24337W        W39806  13.354   7.259   1.540  0.0109  0.0235  0.2224
24338W        W39807   8.484  17.630  12.973 -0.1795 -0.0655 -0.4785
24339W        W39808  10.434   0.954  16.803  0.0182 -0.1915 -0.1126
24340W        W39809  13.291  11.915   1.224  0.0717  0.0239  0.0816
24341W        W39810   3.079   1.924  16.081 -0.3058  0.2074  0.0947
24342W        W39811   7.863  13.077   3.250 -0.1440  0.1428  0.2422
24343W        W39812   9.256  10.852  12.963 -0.1115 -0.1506  0.0463
24344W        W39813  12.829  13.358  12.726  0.0842  0.1456  0.0916
24345W        W39814   9.041  14.477   1.021 -0.2814 -0.0967  0.1317
24346W        W39815   1.805   1.473   5.631 -0.1652 -0.0531  0.1322
24347W        W39816  16.276   3.356   2.490 -0.0342 -0.1772  0.1710
24348W        W39817  11.689  11.394  15.231 -0.4159  0.2024 -0.0334
24349W        W39818  17.543  12.887  16.324  0.1476 -0.1089  0.0070
24350W        W39819  17.579  10.567  14.365  0.0114  0.0502  0.0497
24351W        W39820   1.285  10.623   4.402 -0.0350 -0.0984  0.0700
24352W        W39821  12.824  13.093  12.294 -0.3198  0.1130 -0.3421
24353W        W39822  14.491   7.557  16.517 -0.2961 -0.0736 -0.0945
24354W        W39823  12.985  17.743   2.774  0.0706  0.1010 -0.0671
24355W        W39824  16.921   4.579  12.070 -0.1922 -0.0457  0.2476
24356W        W39825  10.209   6.759   1.253 -0.0271  0.1718  0.0011
24357W        W39826   0.142  15.223   3.081 -0.1927 -0.0180 -0.2846
24358W        W39827   2.463   8.081   0.419 -0.0178  0.0803  0.2187
24359W        W39828   0.269   5.719   1.577 -0.0019 -0.0110  0.0716
24360W        W39829  10.404   2.820  14.837 -0.1489 -0.0228 -0.1875
24361W        W39830   5.095  16.035   2.465  0.0769 -0.1523  0.0372
24362W        W39831   4.754   3.075  12.052  0.0058 -0.2071  0.0817
24363W        W39832  10.659   5.472   6.562 -0.1801 -0.0638  0.0825
24364W        W39833   5.759  11.717   2.886 -0.0506 -0.0072 -0.0879
24365W        W39834  10.920   2.394   0.387  0.0117  0.0321 -0.2519
24366W        W39835   0.877  15.285   3.987 -0.0513  0.1207 -0.0324
24367W        W39836  12.849  13.023   1.994 -0.0273  0.0879  0.1838
24368W        W39837   8.071   4.137   0.013 -0.0363 -0.1653  0.0188
24369W        W39838   9.110  14.707  16.340 -0.1018  0.1141  0.0697
24370W        W39839  15.437   5.230   0.937  0.0285  0.0237  0.0389
24371W        W39840   2.330  13.424  14.382  0.2721 -0.0691 -0.0390
24372W        W39841   7.324   4.029   2.517  0.1290  0.2220 -0.2003
24373W        W39842   2.461   3.532   5.459  0.1949  0.1136 -0.1463
24374W        W39843   9.775   0.770  15.972  0.0198 -0.2605  0.2367
24375W        W39844  12.180   9.563  13.612 -0.0891 -0.2700 -0.1068
24376W        W39845  15.418   1.486  14.327  0.3762 -0.2403  0.1050
24377W        W39846   6.419  10.722   2.517 -0.0470  0.1980 -0.0722
24378W        W39847   7.433   0.282   0.266  0.1037  0.0215 -0.2541
24379W        W39848   1.709  15.595   0.291 -0.1325 -0.0052 -0.0031
24380W        W39849  13.714   8.671  14.010  0.0843 -0.1712  0.1426
24381W        W39850  11.192   7.831   6.194 -0.0636  0.0407 -0.1109
24382W        W39851   0.563   9.073   3.086  0.0611  0.0118 -0.1221
24383W        W39852   5.292   8.997  13.740 -0.1012 -0.0961  0.1454
24384W        W39853  13.313   2.531   1.384 -0.0971  0.0715  0.2486
24385W        W39854   5.139   0.923  16.089  0.3728 -0.0307  0.1504
24386W        W39855   5.349   2.283   2.293  0.1443 -0.0858 -0.0361
24387W        W39856  11.550   0.090  15.405 -0.1497 -0.2332 -0.0278
24388W        W39857   9.069  10.763  12.256 -0.0659 -0.1220  0.0168
24389W        W39858  13.987   3.710   1.003 -0.0262 -0.2089  0.0826
24390W        W39859   8.708   7.634  14.766  0.3732 -0.0897 -0.0617
24391W        W39860  16.695   0.593  16.293  0.0211 -0.1111 -0.2860
24392W        W39861   7.648   3.358   4.161 -0.1994  0.3181  0.1349
24393W        W39862  12.761   2.322  15.780  0.3963 -0.0632 -0.1229
24394W        W39863   1.183  15.138  13.834  0.0390 -0.3973 -0.0746
24395W        W39864   5.648   3.739  11.365 -0.2960 -0.1098 -0.1221
24396W        W39865  14.798   6.986  14.421 -0.2567 -0.1343 -0.4042
24397W        W39866   5.429   0.724  13.591  0.1653 -0.1367 -0.0570
24398W        W39867  15.746   5.779  14.368 -0.2395  0.3095  0.0759
24399W        W39868   4.273   2.039   5.438  0.0041  0.1341  0.0525
24400W        W39869   7.526  11.650  14.872  0.0812 -0.1564 -0.0833
24401W        W39870  11.082   1.797  12.379  0.0081 -0.3112 -0.0311
24402W        W39871  11.125   3.094  12.285 -0.1397  0.4049 -0.2302
24403W        W39872   9.691   7.747  16.162 -0.1287  0.0962 -0.1021
24404W        W39873  14.683   8.484   2.064 -0.0037 -0.0171  0.0341
24405W        W39874   7.984   3.106  14.282  0.2022 -0.2269  0.0740
24406W        W39875   5.028   5.813  14.954 -0.0111  0.1194 -0.0802
24407W        W39876  11.312   7.650  15.935 -0.1772 -0.0626  0.1440
24408W        W39877  13.359  12.124  14.833  0.1037  0.0532  0.1671
24409W        W39878   0.769  12.549   0.947  0.1772  0.1844  0.0835
24410W        W39879   6.234   3.646   4.315 -0.1577 -0.0874 -0.2052
24411W        W39880  13.015  12.376   5.358  0.3416 -0.3109  0.2801
24412W        W39881   1.994   1.246   0.044  0.2737 -0.0962 -0.2333
24413W        W39882   8.831  17.175  14.490 -0.2082  0.0227 -0.3222
24414W        W39883  10.636   5.900  15.586  0.0562  0.2697 -0.0551
24415W        W39884  11.476   8.421   2.470 -0.1672 -0.3022 -0.1456
24416W        W39885   0.924  15.484   5.096 -0.2832  0.0517  0.0752
24417W        W39886   5.951  10.688  13.741 -0.2431 -0.2943  0.3076
24418W        W39887   8.839   2.637   0.343 -0.1851  0.1275  0.2491
24419W        W39888   7.369   1.736  11.518  0.1882  0.2480  0.0146
24420W        W39889   9.968  13.364   3.646  0.0488  0.0816 -0.1557
24421W        W39890   2.582   0.359  11.641  0.0707 -0.1607 -0.0256
24422W        W39891  16.665   1.220  13.720 -0.3255  0.0755  0.4194
24423W        W39892   4.925  13.438  14.184 -0.0251  0.2254  0.2771
24424W        W39893  11.382   2.333   0.300  0.0203  0.0669  0.0155
24425W        W39894   5.380   5.476  14.497  0.1124  0.0188  0.4509
24426W        W39895   6.610   9.618   0.476  0.1938  0.0969 -0.0965
24427W        W39896   5.937   8.076  15.015  0.0861 -0.3336 -0.0338
24428W        W39897   6.177   9.496   4.906  0.2592  0.1052  0.0722
24429W        W39898  11.777  16.745   0.138 -0.0846  0.1746  0.0369
24430W        W39899   0.805  11.393   4.104 -0.0785 -0.1115  0.0557
24431W        W39900   1.301  14.728  13.021 -0.0006 -0.0347  0.0021
24432W        W39901  10.082   0.129   4.425 -0.1254  0.0901 -0.0619
24433W        W39902   6.629  16.261   1.530  0.0422  0.2336  0.0480
24434W        W39903   2.077   5.911   4.633  0.1686 -0.0565  0.0619
24435W        W39904   0.738   8.026   0.082 -0.0358 -0.2406  0.1433
24436W        W39905  14.601  14.561  16.052 -0.0222 -0.0913 -0.2565
24437W        W39906   8.426  17.571   3.142  0.1173 -0.2008  0.1873
24438W        W39907  15.187   5.698  14.570  0.1371 -0.1142  0.0936
24439W        W39908   6.835  12.849   6.576  0.3161 -0.5031 -0.1296
24440W        W39909  16.343  17.578  13.129 -0.1492 -0.0116 -0.0518
24441W        W39910  15.256  12.849   0.754 -0.0309  0.1391  0.0405
24442W        W39911  10.873  17.564   2.506  0.4827  0.0078  0.0276
24443W        W39912  11.049  16.740   5.192 -0.0344 -0.1015  0.0658
24444W        W39913   1.419   0.034   5.526  0.2861 -0.0759 -0.1099
24445W        W39914   1.472  14.953  13.421 -0.1046  0.1673  0.1919
24446W        W39915   7.811  10.730   4.313  0.0258 -0.1989 -0.3901
24447W        W39916   4.348  10.678  15.892 -0.0886  0.0895 -0.1368
24448W        W39917   4.566   9.929  15.241  0.0210  0.0541  0.1326
24449W        W39918   9.008  10.469   4.687  0.0350  0.1545  0.0373
24450W        W39919   6.240   4.594  16.325  0.2113 -0.1431  0.3306
24451W        W39920  17.245   6.287  11.982  0.5146 -0.2711 -0.0170
24452W        W39921   9.320   6.256   6.452 -0.2532  0.2613  0.0801
24453W        W39922   4.465   1.457   4.818  0.0501  0.2858 -0.2322
24454W        W39923   5.883  17.400   0.007 -0.0825 -0.1916  0.1569
24455W        W39924   1.280   1.933  10.321  0.0028 -0.0826  0.1408
24456W        W39925   1.856   2.368   2.484  0.0020  0.0793  0.1229
24457W        W39926   8.527  13.267   4.161  0.2846 -0.0873 -0.2061
24458W        W39927   0.390   9.576   1.890  0.2952  0.2394  0.3905
24459W        W39928   4.817   5.080  12.241 -0.3700  0.0477 -0.1314
24460W        W39929   9.782  15.535   1.029  0.1353  0.2042  0.1609
24461W        W39930   2.506  15.697  15.698 -0.2000 -0.0840  0.2915
24462W        W39931   6.079  16.773  16.754  0.0688 -0.0328  0.1027
24463W        W39932  15.971   8.212  13.227 -0.0915 -0.2258 -0.0913
24464W        W39933   5.885   6.559   3.289 -0.0737  0.0163  0.1009
24465W        W39934   8.680  14.992  16.191 -0.0426 -0.2239  0.1323
24466W        W39935   1.104   7.624  15.614 -0.1083 -0.0328  0.1980
24467W        W39936   8.439   6.353  13.378  0.5098 -0.0895  0.1000
24468W        W39937  17.410  15.703  11.282  0.1022 -0.0623  0.3220
24469W        W39938   4.061   6.029  11.587 -0.0938  0.1676 -0.2477
24470W        W39939  13.094  12.790   5.072  0.1880  0.1300  0.3194
24471W        W39940   2.135   5.638   1.537 -0.1361 -0.2194  0.3559
24472W        W39941   8.170   1.793   0.644 -0.2081 -0.1799 -0.2434
24473W        W39942   3.978   8.538  13.348  0.0987 -0.0175  0.0437
24474W        W39943   6.850  16.486  12.413  0.1591 -0.1717 -0.1278
24475W        W39944  15.710  11.639   1.861 -0.3472  0.3792  0.1449
24476W        W39945   7.247  14.864   5.827  0.2754  0.0693  0.0212
24477W        W39946   0.110   7.457  14.132 -0.0268 -0.0600 -0.1388
24478W        W39947   9.024   9.385  13.872  0.0231  0.1416  0.0528
24479W        W39948   6.079  11.544   0.666  0.1306  0.0669  0.0952
24480W        W39949   0.658  13.281  14.166  0.3122 -0.0439 -0.0817
24481W        W39950  11.170   6.801   5.563  0.2250  0.1807  0.3160
24482W        W39951   1.541   2.534  13.525 -0.2256 -0.0262  0.1740
24483W        W39952  12.494  12.347   0.048 -0.2052  0.2846 -0.3099
24484W        W39953   6.967   0.497   0.389  0.1100  0.2803 -0.1553
24485W        W39954   8.226  13.377   4.957 -0.0905 -0.0136  0.1607
24486W        W39955   3.436   9.911  12.080 -0.0437  0.1872  0.1242
24487W        W39956   5.008  11.344   1.385  0.0177  0.0660 -0.1245
24488W        W39957  16.091   3.643   1.564 -0.1558 -0.1859 -0.0382
24489W        W39958   6.615  11.591   2.265  0.0528  0.2202 -0.0116
24490W        W39959   0.370   9.739   3.491 -0.2452  0.0308  0.3135
24491W        W39960   6.833   5.935   1.327 -0.1828 -0.1784  0.0221
24492W        W39961   5.308  16.919   2.025  0.2049 -0.0543 -0.1693
24493W        W39962   8.106   4.783  12.677 -0.1475  0.3722 -0.2800
24494W        W39963  10.838  17.745  13.407 -0.0446 -0.2449  0.0275
24495W        W39964   1.673   2.587  12.315 -0.0093 -0.0805  0.0516
24496W        W39965  12.302   0.855   0.237 -0.0430  0.2639  0.1944
24497W        W39966  16.129   8.701  13.914 -0.0250 -0.1785  0.0275
24498W        W39967   2.682   5.492   2.572 -0.0871 -0.1838 -0.0721
24499W        W39968  16.771   8.800  14.622 -0.2274 -0.1142 -0.0638
24500W        W39969  15.322  10.148   1.825 -0.1768 -0.0089 -0.1575
24501W        W39970   0.829   4.484  14.046 -0.0067  0.1337  0.0663
24502W        W39971  10.075   8.117   3.582  0.1033  0.0396  0.2804
24503W        W39972   3.753   0.491  15.292  0.0487  0.0556  0.0504
24504W        W39973   7.404   0.337  14.681 -0.0703  0.2858  0.0187
24505W        W39974  17.237   4.140  13.764  0.3567  0.1250  0.0082
24506W        W39975   1.316   2.523   3.277 -0.0154  0.0523 -0.1519
24507W        W39976   2.793  11.369  12.775 -0.2792  0.0669  0.3338
24508W        W39977  10.408   8.946  13.924 -0.2004  0.2893  0.2375
24509W        W39978  16.710   8.897  11.214 -0.1751  0.2470 -0.2266
24510W        W39979  13.586   3.693   5.069  0.0121 -0.1326 -0.2377
24511W        W39980  11.466  15.440   4.795 -0.1068 -0.0684 -0.1416
24512W        W39981  13.600  10.096   2.982  0.3800 -0.2226  0.1867
24513W        W39982  13.731  10.441  16.177  0.0320 -0.3885  0.0423
24514W        W39983  12.863   3.454   3.375  0.2934 -0.0979  0.4297
24515W        W39984   1.211  13.302   2.735 -0.0328  0.1814  0.0468
24516W        W39985   1.466   8.798  14.087  0.0876 -0.0342  0.0345
24517W        W39986   4.565  15.691  11.916 -0.2977  0.1446 -0.1617
24518W        W39987  11.138  12.997   0.137 -0.0239  0.4205 -0.0706
24519W        W39988  12.249   5.784   4.497  0.0656  0.0595 -0.1503
24520W        W39989   3.511  12.042   5.657 -0.0775  0.0186  0.1694
24521W        W39990   2.912   2.737   4.913 -0.3670  0.1104  0.2337
24522W        W39991  17.080  15.397  15.140  0.0233  0.0960  0.1796
24523W        W39992  11.239  16.097  13.974 -0.2080 -0.1013  0.0748
24524W        W39993  14.710   8.865  12.368 -0.1982 -0.3439 -0.2889
24525W        W39994   8.789  16.966   0.424 -0.0384  0.1611  0.2439
24526W        W39995  16.656   0.262  11.508 -0.0388  0.3415 -0.0546
24527W        W39996  11.050   5.672  12.708 -0.2406 -0.0066  0.1193
24528W        W39997  12.084  12.980   1.427  0.0906 -0.1286 -0.2062
24529W        W39998   4.917  16.878  16.483 -0.1639  0.0828  0.1578
24530W        W39999   8.777   9.935   1.575  0.0050  0.0125  0.2704
24531W        W40000   0.283   7.180  13.724  0.2426 -0.0049 -0.1044
24532W        W40001  11.726  14.964  12.372 -0.2433  0.1779  0.0457
24533W        W40002   0.288   1.627   3.444  0.2007  0.1310  0.3136
24534W        W40003  17.444   3.477   3.607  0.1613  0.0651 -0.1419
24535W        W40004  17.018   0.960  12.631  0.1051  0.1348  0.0396
24536W        W40005   1.100   0.531   4.267 -0.1537 -0.0980  0.3641
24537W        W40006  16.968  16.657  12.115  0.1100  0.1615 -0.1727
24538W        W40007   5.111   6.318   0.569 -0.0089 -0.5784  0.4993
24539W        W40008   2.381  13.520  11.548 -0.0907  0.1178 -0.1052
24540W        W40009  12.719  10.483  14.919  0.0664 -0.0543 -0.2814
24541W        W40010   5.084   7.005   5.780 -0.1377 -0.1467  0.4688
24542W        W40011   9.477   5.697  16.560 -0.2426  0.2200  0.3714
24543W        W40012   6.430   2.336   5.372 -0.1161 -0.0175  0.0394
24544W        W40013   1.504   3.118  14.151  0.0708 -0.0787  0.2796
24545W        W40014   1.322   1.143   3.577 -0.1451  0.0019  0.0914
24546W        W40015  14.617   3.380   3.404 -0.1872 -0.1346  0.1925
24547W        W40016   5.321  12.460  11.742  0.1860 -0.0533 -0.1347
24548W        W40017   5.065   7.884   1.371 -0.0888 -0.2680 -0.0357
24549W        W40018  11.383   4.782   2.162 -0.0798 -0.2567 -0.3179
24550W        W40019   9.911   1.137   3.966  0.2493 -0.1648  0.1297
24551W        W40020   5.898   7.079   2.684 -0.2734  0.0391 -0.2564
24552W        W40021   1.476  16.444  16.642  0.1256  0.0296 -0.0375
24553W        W40022  12.097   1.862  12.368  0.0305 -0.1583 -0.1179
24554W        W40023   6.492   7.981   4.432 -0.1829 -0.2196  0.0419
24555W        W40024   0.224   2.447   3.159 -0.1995  0.2876  0.1654
24556W        W40025   4.690  13.774   5.084  0.1075  0.0244 -0.3319
24557W        W40026   9.347  14.405  15.116 -0.1932  0.1082  0.2186
24558W        W40027  10.659   0.771  13.816 -0.0451  0.1912  0.0138
24559W        W40028   3.274  11.709  15.759 -0.0553 -0.0568  0.3346
24560W        W40029   5.155  14.973   0.843 -0.1561 -0.2684  0.0067
24561W        W40030  12.421   7.207   5.513  0.0986 -0.1454  0.1473
24562W        W40031  16.905   8.202   3.780  0.1434 -0.1454  0.0279
24563W        W40032   2.678   9.974   0.044 -0.0463 -0.0001  0.2178
24564W        W40033   7.743  10.752  14.759 -0.1731  0.1466 -0.0946
24565W        W40034  14.190  15.157  12.845  0.3102  0.3119  0.2583
24566W        W40035   4.562   8.998   4.739 -0.1562 -0.2490  0.0591
24567W        W40036  13.396  13.251  14.417  0.0407  0.1501 -0.1056
24568W        W40037   8.170   2.329  16.435 -0.0801  0.1202 -0.0494
24569W        W40038   8.432  16.066  14.616 -0.0959  0.0187 -0.3719
24570W        W40039   7.641   0.776   4.368 -0.3659  0.0966  0.1894
24571W        W40040   8.394  13.147  11.345  0.1077  0.1276 -0.1039
24572W        W40041  12.582   6.426  12.549 -0.0620  0.0525  0.1549
24573W        W40042   9.914   1.418  15.405  0.2325 -0.3319 -0.0390
24574W        W40043   9.186  13.947   0.397  0.0835 -0.1561  0.0323
24575W        W40044  15.810  15.976  12.414  0.2797 -0.0661 -0.3930
24576W        W40045  16.700  11.927  13.911  0.2262  0.0362  0.2393
24577W        W40046   3.353  16.050   5.640 -0.1003 -0.5150  0.2936
24578W        W40047   7.305   2.012  14.716  0.2561 -0.0246 -0.1364
24579W        W40048   3.020  15.966  11.898  0.0683  0.1004 -0.2906
24580W        W40049  13.637  17.740   2.902  0.0310 -0.0047 -0.1085
24581W        W40050   5.784   6.865  15.848 -0.3193  0.2151  0.0924
24582W        W40051   2.207   1.913  12.072  0.2578 -0.0045  0.1732
24583W        W40052   8.364   6.578   5.030 -0.2189 -0.2444 -0.1790
24584W        W40053  10.238   6.545   5.854  0.0077  0.1317  0.1730
24585W        W40054   1.677  17.249   5.553  0.1047 -0.0504  0.0202
24586W        W40055   2.134  17.500  14.549  0.0283  0.0572 -0.0503
24587W        W40056   7.069   3.467  14.172 -0.0523  0.1203 -0.0285
24588W        W40057  10.624  12.304   3.074 -0.0874  0.0221  0.1195
24589W        W40058   7.784   6.827   1.308 -0.1161  0.0544  0.0254
24590W        W40059   1.199   9.248  12.267 -0.2033 -0.4148 -0.1938
24591W        W40060   4.482  12.497   0.487 -0.0468 -0.4639 -0.0344
24592W        W40061   2.947   2.982  16.523  0.0151 -0.2075  0.0355
24593W        W40062  13.075  10.110   2.126  0.2220 -0.1269  0.3276
24594W        W40063  11.638   5.791  14.728  0.0343 -0.0325  0.1608
24595W        W40064   3.341   3.951  15.240  0.0761  0.0014 -0.4356
24596W        W40065   8.751   7.717   0.659  0.1512 -0.0061 -0.0886
24597W        W40066  13.461   0.476   4.035 -0.3536 -0.3477 -0.1229
24598W        W40067  11.697   6.143  15.127 -0.1468  0.3901  0.2073
24599W        W40068   5.960   1.050   0.982  0.0451 -0.0912 -0.0191
24600W        W40069  12.985  16.228   0.059 -0.4333  0.4478  0.0960
24601W        W40070   8.638   7.052   2.839 -0.0566 -0.0658  0.0655
24602W        W40071   9.131   1.490  13.047 -0.0129  0.1164 -0.1529
24603W        W40072   2.397   4.638  11.781 -0.0492 -0.3497  0.0549
24604W        W40073  15.787  15.424  14.774 -0.3110  0.2189 -0.1432
24605W        W40074   0.575   0.901   4.644 -0.1391 -0.0374  0.2630
24606W        W40075  11.339   7.832  11.703 -0.1073 -0.3191  0.1238
24607W        W40076   9.917  16.733  15.506  0.1005  0.0106  0.2837
24608W        W40077   2.744  14.323  16.573  0.2676 -0.3806 -0.0439
24609W        W40078   5.441  12.373   0.322 -0.3141  0.0581 -0.2739
24610W        W40079   8.888   1.974  11.932  0.3488  0.2494 -0.1544
24611W        W40080   3.180  15.816  15.434  0.0057 -0.0044  0.3509
24612W        W40081   2.078  12.894  13.120  0.0746  0.0488 -0.0654
24613W        W40082   9.844   8.069   5.090 -0.0771  0.2193 -0.0642
24614W        W40083   8.822  12.657   5.518 -0.0841 -0.1378 -0.1056
24615W        W40084  12.884   6.042   4.761 -0.1240 -0.0617 -0.3425
24616W        W40085   0.409   7.193   9.721 -0.0634 -0.0743 -0.0497
24617W        W40086  12.618   0.812  13.141 -0.0592 -0.2974 -0.3586
24618W        W40087  12.627   6.239   1.981  0.0185 -0.0175 -0.1645
24619W        W40088   8.770   4.585   0.551  0.0766  0.0920  0.2390
24620W        W40089  14.923  15.120  14.769  0.0615  0.2362  0.1018
24621W        W40090  14.194  16.763   1.562 -0.0363  0.3865 -0.0742
24622W        W40091  11.809   5.791   6.852  0.2236 -0.5184 -0.1113
24623W        W40092   6.215  10.610   0.251  0.1068  0.0207 -0.1326
24624W        W40093  17.519  16.912  13.145 -0.1091 -0.3348 -0.1566
24625W        W40094  14.570  17.136   1.527 -0.1227 -0.2204 -0.2414
24626W        W40095  10.485   6.550  12.564  0.3548  0.1911  0.1294
24627W        W40096  10.820   2.681   2.511  0.3126 -0.0433 -0.1532
24628W        W40097  16.729   9.907  15.197 -0.0487 -0.3897 -0.1835
24629W        W40098  12.737   4.308   1.298  0.1689  0.1002  0.1705
24630W        W40099   2.327   3.749  15.968  0.2169 -0.2240  0.1571
24631W        W40100  14.062  13.120   6.017 -0.1235  0.1533 -0.1054
24632W        W40101  15.608  15.988  15.837  0.0875  0.1051 -0.2176
24633W        W40102  10.569  13.208   3.191  0.2351  0.2939  0.1283
24634W        W40103  10.832  10.539   1.724  0.1651  0.0910 -0.0354
24635W        W40104   0.586   6.917  13.227 -0.1021 -0.2376  0.0289
24636W        W40105   0.338  15.179   3.619 -0.0124 -0.1341 -0.0913
24637W        W40106   7.759   1.119   0.445  0.0058  0.1546  0.1031
24638W        W40107  11.282  17.291  10.907 -0.1814 -0.1443  0.0828
24639W        W40108  16.953   5.563  11.131  0.2136  0.0462 -0.3672
24640W        W40109  16.484  13.782  13.508 -0.2179 -0.0106 -0.0284
24641W        W40110   9.602  16.486  12.695 -0.0769  0.3194  0.2219
24642W        W40111  15.374   3.975   0.931  0.0293 -0.1528 -0.2706
24643W        W40112   9.749  11.010   3.792 -0.3113  0.0864 -0.1072
24644W        W40113   6.361  11.986   2.050 -0.1816  0.0333  0.0758
24645W        W40114  14.611  14.417   3.749  0.1717 -0.0148  0.1127
24646W        W40115  16.508  12.724   1.506  0.0225 -0.5379 -0.0790
24647W        W40116  10.837   5.922   1.278  0.0313  0.0023 -0.0318
24648W        W40117   2.549  11.551   0.895 -0.0305 -0.3019  0.0888
24649W        W40118  13.513   4.862   4.248  0.1958  0.0963  0.2439
24650W        W40119   8.851  12.621   2.328 -0.0513  0.2077 -0.0494
24651W        W40120   4.561  10.696  14.632 -0.0745  0.0915 -0.3186
24652W        W40121  11.586   9.744  14.561 -0.1138 -0.1192  0.1201
24653W        W40122  16.675  10.561   4.730 -0.3453 -0.2497  0.1373
24654W        W40123   4.024   0.943   0.252 -0.0984 -0.1047  0.0513
24655W        W40124   4.030  15.305   0.709 -0.0395 -0.3022  0.0085
24656W        W40125   4.867  15.155  15.031 -0.2469  0.0364 -0.3727
24657W        W40126  16.101   6.184   2.968  0.1030  0.0438 -0.1758
24658W        W40127   0.060   2.173  12.902  0.1435 -0.0979  0.0363
24659W        W40128   9.172  15.880   4.569  0.0394 -0.1255  0.0445
24660W        W40129  10.287   4.870   0.338 -0.3866  0.1170 -0.0383
24661W        W40130   3.411  14.240  12.660  0.3317  0.2034  0.0270
24662W        W40131   6.072   3.101   0.407 -0.1653 -0.0413  0.2217
24663W        W40132   3.477   2.056  16.438  0.5313  0.1172  0.0347
24664W        W40133   5.876  17.359  12.535 -0.1085  0.1664 -0.0105
24665W        W40134  10.609   0.431   5.395  0.2306  0.1912  0.0159
24666W        W40135  12.552   6.231  14.476 -0.1689 -0.0401  0.1804
24667W        W40136   6.992   6.687   3.390 -0.2055 -0.1174 -0.2566
24668W        W40137  16.642  10.359  11.536 -0.0513  0.1140  0.0849
24669W        W40138  12.774   1.013  11.987 -0.1331  0.0318  0.1996
24670W        W40139   6.412  12.616   6.385  0.0865  0.2205 -0.2522
24671W        W40140  15.535  13.705  13.824 -0.1813  0.2153  0.1061
24672W        W40141   8.473  10.347   1.855 -0.0113  0.2444 -0.0950
24673W        W40142   2.800   5.684  15.395  0.1104  0.1718  0.2183
24674W        W40143  13.121   7.905  13.700 -0.0192 -0.0889  0.2114
24675W        W40144   3.608  12.953   5.188  0.2472 -0.0857 -0.5314
24676W        W40145  16.381  12.179   1.368  0.2240  0.0394  0.1585
24677W        W40146  11.827   1.478  12.624 -0.3033  0.0806 -0.2465
24678W        W40147   1.258   8.560   3.591  0.0513 -0.3543 -0.2020
24679W        W40148   3.017  10.434   0.754 -0.2658  0.2763  0.0575
24680W        W40149   6.578  11.012  13.214 -0.0761 -0.0178  0.0012
24681W        W40150  10.009  14.317   1.611  0.0903  0.1308 -0.1603
24682W        W40151   5.837   6.476   3.809 -0.3168 -0.1121  0.3199
24683W        W40152  11.869  17.521  15.150 -0.0210 -0.1545 -0.0359
24684W        W40153  13.652   6.815   5.061 -0.2688  0.3613  0.1183
24685W        W40154   5.820  14.173  14.424  0.0140 -0.0772  0.2371
24686W        W40155  15.564   1.347   4.236  0.1154 -0.1345  0.1473
24687W        W40156   8.917  10.054  14.828 -0.5439 -0.2144 -0.2961
24688W        W40157   8.767   8.969  12.861 -0.1077 -0.1178 -0.1866
24689W        W40158  11.060  13.784  15.782  0.1293  0.2658 -0.1728
24690W        W40159  13.063   6.629   5.670  0.1318 -0.1349 -0.0002
24691W        W40160   1.736   3.134   1.819 -0.3290 -0.2259  0.0240
24692W        W40161  16.170   8.584  13.458 -0.4018  0.2052  0.1707
24693W        W40162  16.791   8.523  11.597  0.1300  0.1273  0.0798
24694W        W40163   4.459  17.181   2.291  0.0940 -0.0804 -0.0278
24695W        W40164  13.204   7.975   0.237  0.2445  0.1426 -0.0652
24696W        W40165  13.475   4.402  16.389 -0.1567 -0.1421  0.0819
24697W        W40166   7.067   8.434   5.821 -0.0019 -0.0049  0.0031
24698W        W40167   5.079  16.332  16.697 -0.2657  0.0939  0.2459
24699W        W40168   9.469  16.713   4.279  0.2767  0.0494 -0.2075
24700W        W40169   4.891  10.201  15.462 -0.3433  0.0251  0.0355
24701W        W40170  12.043  10.232  12.308  0.0503 -0.1014 -0.0651
24702W        W40171   0.730   0.497  12.063  0.1403  0.2899 -0.0048
24703W        W40172   3.110  12.075   5.210  0.0427 -0.0971  0.2596
24704W        W40173  16.027  11.026  14.334 -0.1082 -0.3435  0.1514
24705W        W40174   6.817  12.941  15.867  0.1009 -0.0882 -0.0502
24706W        W40175   7.572   8.479  14.708 -0.0661 -0.1510 -0.1508
24707W        W40176   9.962   9.131   4.321 -0.1486  0.1308  0.1262
24708W        W40177  10.163   2.857   4.851  0.2596  0.1285 -0.1953
24709W        W40178  10.237   7.588  15.855 -0.0451 -0.1182 -0.0690
24710W        W40179   5.814  15.376   6.191  0.1284  0.2791  0.3626
24711W        W40180   7.947  16.030   3.460  0.2464 -0.0526  0.0316
24712W        W40181   5.207   7.899   3.795 -0.3448 -0.0339 -0.1273
24713W        W40182   4.130   7.134   3.830  0.0083  0.1164 -0.0136
24714W        W40183  12.367  13.269   5.631  0.1405  0.4601  0.0349
24715W        W40184  16.937   7.536   1.616 -0.0347  0.1475  0.0976
24716W        W40185   1.882  15.774  12.992  0.0902  0.0853 -0.0326
24717W        W40186   6.963   4.780  11.716 -0.3406  0.1178 -0.1399
24718W        W40187   3.750   3.690   3.873  0.0393  0.2270  0.2856
24719W        W40188   4.242  14.393   1.607  0.0096  0.3942 -0.0764
24720W        W40189   4.719   2.146  16.071 -0.0188  0.0842  0.0936
24721W        W40190  17.087   7.712   3.651  0.1536 -0.0278 -0.2970
24722W        W40191   6.654   0.390  11.238  0.0099  0.3246 -0.1964
24723W        W40192   0.344  16.016   2.192  0.3514 -0.1786 -0.3399
24724W        W40193  16.295   2.547  14.168 -0.1060  0.1028 -0.0928
24725W        W40194   9.917   6.314   4.685 -0.0870 -0.0003  0.0162
24726W        W40195   4.057   6.288  15.012  0.2382  0.2538 -0.0292
24727W        W40196   4.030  17.243   0.112 -0.0907  0.3970 -0.0667
24728W        W40197  15.071   7.809   4.004 -0.0237  0.1564 -0.0238
24729W        W40198  15.429  17.643   1.707  0.1204  0.0175  0.1222
24730W        W40199   9.328   9.403   2.576  0.2922 -0.0355  0.0788
24731W        W40200  11.874   4.960   2.234 -0.0628  0.3927 -0.0517
24732W        W40201  14.143  10.910   5.512  0.0073 -0.0418  0.3177
24733W        W40202  11.740   0.782   3.224 -0.5383  0.1742 -0.4804
24734W        W40203   3.980   4.301   1.224 -0.0584 -0.1162  0.0712
24735W        W40204  16.895   5.630   3.335  0.2226 -0.0086  0.1984
24736W        W40205   7.137   4.162   3.843 -0.1798 -0.3918 -0.1332
24737W        W40206   7.672   0.021   1.534 -0.1137 -0.1228 -0.1516
24738W        W40207  15.334  10.491   4.295  0.2435  0.0620  0.0430
24739W        W40208   5.837  16.962   0.732  0.1949  0.0587  0.1091
24740W        W40209  11.700   1.604  13.145 -0.1537 -0.4005  0.0101
24741W        W40210   8.348   5.023  13.200 -0.4224 -0.1476  0.0761
24742W        W40211  14.170  14.785   0.248 -0.1670 -0.4236  0.1982
24743W        W40212  10.651   7.126   5.545 -0.1501  0.1121  0.1041
24744W        W40213   4.551  17.085  13.154 -0.2378  0.0173  0.1265
24745W        W40214   6.339  11.202   0.003 -0.1237 -0.2300 -0.0202
24746W        W40215   2.821   0.875   1.687  0.1468 -0.3543 -0.0715
24747W        W40216   4.897   6.468   5.353 -0.0805 -0.0889  0.3995
24748W        W40217   0.020   8.281  14.544 -0.0629  0.2732  0.0297
24749W        W40218   4.248   1.706   2.123 -0.4374  0.0985 -0.2232
24750W        W40219   4.135   1.086  14.653  0.0258 -0.1254  0.2067
24751W        W40220  15.226  10.139  16.266  0.1937  0.3858  0.1228
24752W        W40221   0.639  15.452   0.261  0.1077  0.4655  0.2550
24753W        W40222   8.562   1.475   0.606 -0.0261 -0.0920  0.1684
24754W        W40223   1.574   3.460   5.884  0.3183 -0.1859  0.0029
24755W        W40224   8.535  14.470   2.267 -0.1976 -0.1047  0.1050
24756W        W40225  10.605  16.993  14.716  0.0040  0.0107 -0.1144
24757W        W40226   8.556  14.220   3.598  0.2405  0.1279 -0.1275
24758W        W40227  15.096   7.740   6.318  0.1563 -0.0415  0.1102
24759W        W40228   0.791  17.413  14.156 -0.0790  0.2059  0.0398
24760W        W40229  10.878   2.247   2.900 -0.0655 -0.3348  0.1972
24761W        W40230  12.765  16.869   4.888 -0.0498  0.0826 -0.0329
24762W        W40231   1.662   1.527   3.937 -0.0529 -0.1370  0.1292
24763W        W40232   3.477  12.300   0.639  0.0099 -0.0627 -0.0462
24764W        W40233  12.185   4.004  16.253 -0.2466  0.0293 -0.2153
24765W        W40234   8.942  12.848  12.905 -0.2329  0.1817  0.1125
24766W        W40235   7.011   6.155   3.166 -0.1107 -0.2569 -0.1178
24767W        W40236   7.990  11.806  14.433  0.0610  0.1224  0.0847
24768W        W40237   6.406  12.662  15.985  0.2223  0.0081  0.0353
24769W        W40238  13.797   9.414   5.507  0.1220 -0.0997 -0.1014
24770W        W40239   0.280   2.541   2.301  0.0699 -0.0965  0.1079
24771W        W40240  17.062  14.764  13.293  0.0064  0.1507  0.1469
24772W        W40241  11.837   7.200   4.770  0.0012 -0.0348 -0.2586
24773W        W40242   5.369   7.628   3.157  0.0195  0.1040  0.1704
24774W        W40243  13.960   7.722  13.634 -0.0990 -0.1094  0.1827
24775W        W40244  14.006  10.267   2.603 -0.5834 -0.0644  0.1010
24776W        W40245  10.222   9.671   4.917  0.0067  0.0022 -0.1099
24777W        W40246  12.872  14.812  14.690  0.0215 -0.0718 -0.1070
24778W        W40247   4.588  11.666  16.244 -0.2338 -0.0560 -0.0748
24779W        W40248   9.203   3.402   4.616  0.1010 -0.1777 -0.1990
24780W        W40249  11.057   9.727   5.216 -0.1806 -0.0793  0.1349
24781W        W40250   6.566  10.558  11.682  0.2151  0.2042 -0.0740
24782W        W40251  10.512   4.675   4.576  0.0172  0.0314 -0.1831
24783W        W40252  14.601  12.867   4.455  0.3570  0.1197  0.2851
24784W        W40253   1.093  15.665  14.515  0.1436 -0.1278  0.1033
24785W        W40254   5.704  17.340   4.481  0.0852  0.2861 -0.1283
24786W        W40255   7.387   6.309   2.833 -0.1384 -0.3806  0.0518
24787W        W40256  17.450   4.334   0.072 -0.2102  0.0116  0.1429
24788W        W40257  11.795   3.607  14.551  0.1375  0.0307  0.0698
24789W        W40258   8.918  15.883   1.361  0.1344  0.0193  0.3484
24790W        W40259   4.530  10.472   0.904  0.2394  0.1604  0.1330
24791W        W40260  15.023  10.901   4.253  0.1443 -0.1921  0.0824
24792W        W40261   1.280   3.834   1.333 -0.1888  0.0045 -0.1579
24793W        W40262  11.334   1.427  15.688  0.2474 -0.0308  0.2074
24794W        W40263  11.257   7.391  13.568 -0.2341 -0.4074  0.1073
24795W        W40264   0.141  14.458   2.911 -0.3185  0.1258 -0.1441
24796W        W40265  15.257   7.509  16.335  0.4904  0.0333  0.0599
24797W        W40266   4.744   4.420  15.174  0.1764  0.2539 -0.1894
24798W        W40267  17.619  11.809   5.313 -0.3706 -0.0779  0.1325
24799W        W40268  12.876   6.227  13.468  0.0333 -0.1613  0.0243
24800W        W40269  14.072   4.508   0.058 -0.2185 -0.2686 -0.2123
24801W        W40270   4.410  10.071   1.196 -0.2428 -0.0751  0.2066
24802W        W40271  11.138   5.671  15.801  0.1084 -0.1769 -0.1710
24803W        W40272  17.199   1.718   4.831  0.1033  0.0624  0.1098
24804W        W40273   1.056   4.954  14.154  0.2141  0.0637  0.2800
24805W        W40274   4.256   5.334   5.248  0.0160 -0.0234  0.1512
24806W        W40275   0.039  13.061   1.782  0.1616 -0.0447 -0.0911
24807W        W40276  17.655   1.406  11.323 -0.2180 -0.1973  0.0465
24808W        W40277  16.076  15.837  13.770  0.1924  0.0909  0.1535
24809W        W40278  10.626   9.296  14.996 -0.0968  0.1642 -0.1015
24810W        W40279  17.410  13.767   2.756 -0.0630 -0.0515 -0.0351
24811W        W40280   3.762  15.511   1.127 -0.1112 -0.0346 -0.0866
24812W        W40281   6.920  16.363   0.204  0.1759  0.0828 -0.1091
24813W        W40282  10.912  16.496  14.020 -0.0175 -0.1830  0.0788
24814W        W40283   5.583   4.387   0.631  0.3641 -0.2291  0.0842
24815W        W40284   9.756   9.037   4.730 -0.1539 -0.0424  0.0817
24816W        W40285   8.399  12.134   2.877  0.1426  0.0087 -0.3165
24817W        W40286   6.864   5.772  14.403 -0.0241 -0.0507  0.4521
24818W        W40287  15.354  16.736  12.915 -0.1695 -0.2957  0.1868
24819W        W40288   2.420   0.155  12.688  0.1498 -0.1097 -0.0176
24820W        W40289   6.804   7.872  15.127 -0.1298 -0.0087  0.0582
24821W        W40290   7.370   2.420  13.521 -0.0677 -0.0006 -0.0780
24822W        W40291   9.905  13.572  11.900  0.0575 -0.0239 -0.1959
24823W        W40292  16.218   1.068  13.299 -0.1919 -0.0222  0.0312
24824W        W40293  14.309  13.015   3.775  0.0115 -0.2609 -0.1312
24825W        W40294   0.636  17.274   3.223 -0.0456  0.2085  0.2339
24826W        W40295   4.914   7.235   4.843  0.1487 -0.0711  0.3877
24827W        W40296  17.455   7.754  14.460 -0.1514  0.0652  0.0896
24828W        W40297  13.392   8.733  13.133  0.3506  0.0323  0.0560
24829W        W40298   8.392   3.509  15.181 -0.3307 -0.0213 -0.0113
24830W        W40299   3.356   3.860  11.832  0.0623  0.0775  0.0187
24831W        W40300   3.727  15.052  13.907 -0.0946 -0.4347  0.0719
24832W        W40301   6.666   3.882  12.247 -0.0644  0.2414  0.1627
24833W        W40302   4.181   5.523   3.802 -0.1760 -0.1753 -0.0773
24834W        W40303  11.704   4.128  13.696  0.0912  0.0660  0.1000
24835W        W40304  14.570  15.362   1.891  0.1654  0.1344 -0.3418
24836W        W40305   3.704  17.328  12.082  0.0321 -0.1968  0.0852
24837W        W40306   1.704  14.544  14.691 -0.0968  0.2393  0.0409
24838W        W40307   1.064  12.489   0.502  0.0666  0.1713 -0.2468
24839W        W40308  15.336   9.859  12.967  0.0897 -0.0661 -0.0988
24840W        W40309   3.342   5.669  12.538 -0.0616  0.2679 -0.2109
24841W        W40310   7.753   4.323  14.635 -0.0868 -0.0281 -0.1392
24842W        W40311   8.323   5.010  12.275 -0.1800  0.0046 -0.0702
24843W        W40312  13.032  16.501   6.171  0.0397  0.1458  0.0352
24844W        W40313   3.378  14.611  15.348  0.0538  0.0306 -0.0096
24845W        W40314  17.703  14.236  13.230 -0.1649  0.1387  0.1859
24846W        W40315  10.327  17.402  16.699  0.0059  0.0184  0.0320
24847W        W40316   5.554   2.453  16.335 -0.4070  0.2366  0.0222
24848W        W40317   4.136   4.673   2.500 -0.2193 -0.0920 -0.0955
24849W        W40318   2.874   8.939   1.746  0.1364 -0.0923  0.1649
24850W        W40319  15.772   8.927   4.215 -0.0278  0.0742  0.0772
24851W        W40320   3.538   4.182   0.850  0.0068 -0.1790  0.1222
24852W        W40321   0.960   6.952   3.511  0.0812  0.1161 -0.2643
24853W        W40322   7.227  12.123   4.657 -0.1467  0.1145 -0.1590
24854W        W40323   3.455  11.086  13.385  0.1411  0.0895 -0.2263
24855W        W40324  11.476  11.397  15.893 -0.0144  0.1338  0.1005
24856W        W40325  12.336  14.978   2.784 -0.0534 -0.1174 -0.0292
24857W        W40326  15.397  15.961   1.869  0.0216  0.2499  0.0464
24858W        W40327  15.994   4.142   0.395 -0.1853  0.1449  0.2060
24859W        W40328   5.282  10.988  13.811 -0.0766  0.0895 -0.0272
24860W        W40329  13.146   2.169  15.068  0.1790 -0.0434  0.3125
24861W        W40330   2.574   6.526  15.289 -0.2257  0.0750 -0.1031
24862W        W40331   6.661  16.037  12.493  0.1430 -0.0160  0.1549
24863W        W40332   3.270  13.525   0.821  0.2961 -0.1073 -0.1979
24864W        W40333   9.292   4.813   5.109 -0.0262  0.4943  0.0369
24865W        W40334  10.459  16.292   3.816  0.1100 -0.0876  0.0434
24866W        W40335   0.524   6.244  16.329  0.1561 -0.0786  0.2764
24867W        W40336  15.690   5.170  11.333 -0.0124 -0.1953 -0.0501
24868W        W40337   6.088  16.370   0.216 -0.2343 -0.3414 -0.0572
24869W        W40338  14.249  16.730  14.856  0.0378  0.0988  0.1192
24870W        W40339  12.845  10.767   1.383  0.1676  0.0833  0.2484
24871W        W40340  17.682   1.337  13.998 -0.0974  0.1733 -0.1059
24872W        W40341  17.685  14.376   2.010 -0.0577 -0.6672 -0.4480
24873W        W40342   5.220   4.504  16.486  0.2401  0.0930  0.2171
24874W        W40343   8.468   2.079  13.903 -0.1794  0.2410 -0.2362
24875W        W40344   6.369  11.773  14.408  0.2202  0.1422 -0.1089
24876W        W40345   5.786  12.464  14.420  0.0397  0.1907 -0.1060
24877W        W40346   3.695   7.902   4.152  0.1865  0.0379  0.0453
24878W        W40347  11.594  17.250   0.274  0.0184 -0.1777 -0.0912
24879W        W40348  10.062  16.519  12.889 -0.1704  0.0405  0.0622
24880W        W40349  13.927   3.511  13.582  0.1564 -0.1592  0.0578
24881W        W40350  14.444   6.093   2.721 -0.0388  0.0595 -0.0300
24882W        W40351   6.921  17.324  14.458 -0.1369  0.1280  0.1135
24883W        W40352   3.465   8.725   5.232  0.1977 -0.0401 -0.0915
24884W        W40353  12.826  15.851   6.027  0.1277 -0.0448 -0.1468
24885W        W40354  12.414  15.089   0.160 -0.0895  0.0263 -0.1358
24886W        W40355   5.929   4.708   1.099 -0.1276  0.0451 -0.3376
24887W        W40356  15.547  16.288  13.124  0.0763  0.4900 -0.0192
24888W        W40357  17.587   5.356   4.382 -0.0359 -0.3106 -0.0286
24889W        W40358  15.255  16.380  15.806  0.3300  0.3665 -0.1391
24890W        W40359   4.333   7.257   4.855  0.1182  0.1143 -0.1823
24891W        W40360   2.740   9.629  13.220 -0.0884 -0.1797  0.2326
24892W        W40361   4.255  16.633   4.813 -0.0557  0.1036 -0.0765
24893W        W40362   8.606  10.204   4.482 -0.2573 -0.1800  0.2619
24894W        W40363   6.193   9.738   2.170 -0.1030  0.2067  0.3219
24895W        W40364   8.601  11.964  13.620 -0.2752 -0.1464  0.0204
24896W        W40365   8.438  11.435   1.809 -0.1145  0.0937  0.1095
24897W        W40366  16.294   7.951  14.339  0.4247 -0.4094  0.2339
24898W        W40367   2.505  12.204   0.157 -0.0703 -0.1400 -0.0264
24899W        W40368  13.408   3.611  14.548  0.0314 -0.1376  0.0733
24900W        W40369   7.150  16.496   2.781  0.1112 -0.2655  0.0628
24901W        W40370   5.803  16.452   5.250 -0.0307  0.0291  0.2177
24902W        W40371  13.896   2.764   5.254  0.0893 -0.0924 -0.1733
24903W        W40372  13.252   2.293  14.390 -0.0427 -0.1312  0.3557
24904W        W40373  17.371  11.135  13.959 -0.0850  0.0453  0.2992
24905W        W40374  14.526  17.685  13.902  0.1109 -0.1909  0.2050
24906W        W40375   8.791  13.292  16.594 -0.0115  0.2837  0.0604
24907W        W40376   5.658  11.915   0.420 -0.0131 -0.0873  0.2048
24908W        W40377   6.710   8.045   2.174  0.1564 -0.0706 -0.2204
24909W        W40378   8.380  13.621  11.983  0.1672 -0.2051 -0.1979
24910W        W40379  15.090   3.886  13.026 -0.1094  0.1260  0.0748
24911W        W40380  16.312  17.110   6.112 -0.1777 -0.2583 -0.2020
24912W        W40381   3.938  16.253  10.558  0.3235 -0.0317  0.0136
24913W        W40382  13.101   3.512  14.979  0.3665 -0.0628 -0.1082
24914W        W40383   5.322   7.147  15.712  0.0912 -0.0880  0.1162
24915W        W40384  13.551   5.799  12.219 -0.0390  0.4439  0.1147
24916W        W40385  11.540  15.610   3.881  0.0501  0.1085  0.0356
24917W        W40386   4.397  14.684  12.776 -0.0685 -0.0668  0.0172
24918W        W40387   5.977   5.147   3.038  0.0076  0.1055 -0.1188
24919W        W40388  17.320   9.012   3.918  0.0682  0.1518 -0.1843
24920W        W40389  15.322  16.211  13.627  0.0969  0.0779 -0.0454
24921W        W40390   3.720  15.025  15.249  0.0656 -0.1566 -0.3120
24922W        W40391  14.531   5.801  16.447 -0.0754  0.0939  0.0441
24923W        W40392   1.036  16.433  16.148  0.1196  0.3588 -0.1716
24924W        W40393   7.539  14.927  15.172 -0.3264  0.0874 -0.0488
24925W        W40394  14.408   4.717   2.776 -0.1913  0.3901  0.1659
24926W        W40395   2.827  15.134  13.451  0.2738  0.2602  0.2028
24927W        W40396   1.135  15.714   3.953 -0.0154  0.1782 -0.2168
24928W        W40397   7.847   3.502   5.081 -0.0284  0.0214 -0.0956
24929W        W40398   9.568   8.005   2.649 -0.3021 -0.0831  0.0777
24930W        W40399   2.043   6.404  16.570  0.0171  0.0102  0.0772
24931W        W40400  13.968   3.283   0.427 -0.0226 -0.1228  0.4092
24932W        W40401  10.860  11.621   0.015  0.1577  0.2999 -0.1101
24933W        W40402  11.455  10.684   5.783 -0.2463 -0.2252 -0.0526
24934W        W40403   6.373   9.641  13.446  0.1205 -0.1854 -0.1512
24935W        W40404   6.317  13.690  16.283  0.1047 -0.0494  0.0775
24936W        W40405   3.237  14.378   2.835 -0.2259 -0.1139 -0.1463
24937W        W40406   4.615   1.253   5.367  0.2086 -0.0716  0.2398
24938W        W40407   5.099  13.976  13.855  0.0093 -0.1564  0.3163
24939W        W40408  11.880   3.574  12.257  0.0528  0.3194 -0.0915
24940W        W40409  16.916   4.294  16.073 -0.0055 -0.2652 -0.1145
24941W        W40410  16.870  10.035  13.276 -0.2057  0.0356 -0.1356
24942W        W40411   0.466   5.510   2.835 -0.0271  0.1419 -0.0860
24943W        W40412  14.711   2.401   5.460  0.2807 -0.0137  0.0713
24944W        W40413   0.835   0.239  15.528 -0.0114  0.0681 -0.2101
24945W        W40414   2.067   3.955  16.311 -0.1622  0.2835 -0.1507
24946W        W40415  16.971   2.500   0.210  0.3547 -0.0950 -0.3616
24947W        W40416  17.162   3.081   5.468 -0.0594 -0.0599 -0.2196
24948W        W40417  12.701  15.618  15.489  0.3065 -0.4172 -0.2344
24949W        W40418  15.687  15.900  13.455  0.3932 -0.0739  0.2011
24950W        W40419   2.163   4.697  16.792  0.3908 -0.3074  0.0655
24951W        W40420   0.794   7.231   1.261  0.0014 -0.2096 -0.0333
24952W        W40421  16.870  14.610   1.780 -0.1291 -0.2122  0.2362
24953W        W40422  16.292  12.616   2.279  0.0406 -0.0273  0.1905
24954W        W40423   3.460  16.143   4.397 -0.0482 -0.0315  0.1434
24955W        W40424  13.225   4.847  11.699 -0.2387  0.0944  0.2832
24956W        W40425   4.714  11.926  11.093  0.0245  0.2127  0.2453
24957W        W40426   9.233   5.858   6.032  0.0268  0.0300 -0.1874
24958W        W40427   7.866   9.691   6.435  0.0127  0.0895  0.0324
24959W        W40428   0.136  12.685   2.149  0.0151 -0.1194 -0.1399
24960W        W40429  13.660  11.865  12.857 -0.0099  0.1028  0.0084
24961W        W40430  17.332   0.965  11.463  0.1216  0.1748 -0.0663
24962W        W40431  14.564   6.181   5.166 -0.0591  0.0479 -0.1383
24963W        W40432  15.373  13.838   5.969  0.0602  0.1604  0.3049
24964W        W40433   7.498  11.756   1.652  0.0343 -0.0057 -0.4869
24965W        W40434  11.923  17.567  13.656 -0.0318  0.0249 -0.0930
24966W        W40435   0.084  14.589  11.177  0.2954 -0.3752 -0.1187
24967W        W40436  11.275  14.462   5.018  0.2329  0.0532  0.1201
24968W        W40437  10.087   5.748   0.075  0.1291 -0.0828  0.3430
24969W        W40438  13.853   4.786  13.346 -0.0077  0.2646 -0.1501
24970W        W40439  15.399   2.541  13.426 -0.1084 -0.0251  0.1033
24971W        W40440  13.047   0.649  15.444  0.0166 -0.2472  0.1508
24972W        W40441  14.550   9.463  11.995 -0.0341 -0.0232 -0.0228
24973W        W40442   2.997   6.698  11.826  0.2721 -0.2103 -0.0850
24974W        W40443  12.585  10.561   5.122 -0.0233 -0.1113 -0.0071
24975W        W40444  11.232   4.628   4.151  0.0880  0.0997  0.3588
24976W        W40445   4.486  13.104   2.708  0.0215  0.2130 -0.1939
24977W        W40446  11.857  14.009  14.076 -0.0744  0.0178 -0.0014
24978W        W40447   6.913   3.266   5.402  0.2084 -0.1007  0.0278
24979W        W40448   2.462  13.594   2.090  0.1383  0.2139  0.1354
24980W        W40449   4.833   1.305   2.261 -0.2455  0.0220 -0.0680
24981W        W40450  10.861   7.083   0.679  0.2769 -0.0953 -0.1915
24982W        W40451  17.521   6.898   2.042  0.0376 -0.3185 -0.3507
24983W        W40452   9.570   0.553  13.124  0.1618  0.3768 -0.0410
24984W        W40453   7.192   9.743  14.196  0.2961 -0.0916  0.3374
24985W        W40454  12.939   8.042  11.797  0.0067 -0.2396 -0.1009
24986W        W40455   5.683  10.219   5.382 -0.1367  0.0333 -0.0724
24987W        W40456   1.669   7.269  14.894  0.1581  0.0127  0.1320
24988W        W40457  15.170   2.597   4.102  0.1770 -0.2806 -0.1317
24989W        W40458   5.698   5.805  16.548 -0.0108 -0.0105 -0.1260
24990W        W40459  15.991   2.024  14.733  0.0174 -0.2143 -0.0911
24991W        W40460   3.429   3.355   4.022  0.1763  0.0787  0.0957
24992W        W40461   3.383   6.651   1.128  0.0997  0.3066 -0.0249
24993W        W40462  17.570   3.385   4.700 -0.0641 -0.0244 -0.0898
24994W        W40463   2.958  14.136   3.223 -0.1982  0.0676 -0.1467
24995W        W40464  12.574  14.116  15.627  0.1183 -0.0451  0.1200
24996W        W40465   4.513  16.166  12.016  0.1239  0.0351 -0.0092
24997W        W40466   2.468   8.070   4.744 -0.0866 -0.1411  0.0441
24998W        W40467   2.949  13.951  13.068 -0.0730 -0.0087 -0.0221
24999W        W40468   2.327   1.707   2.014  0.0616 -0.3228 -0.0719
25000W        W40469   0.612  10.135  15.580  0.1729 -0.0100  0.2707
25001W        W40470   6.703   2.771   5.513  0.2277  0.2568 -0.0123
25002W        W40471   4.942  12.108   2.350 -0.1967 -0.0408 -0.0082
25003W        W40472   7.552   0.413   1.237 -0.2406 -0.3346  0.2390
25004W        W40473  15.536   8.746  12.215  0.4998 -0.1455 -0.0414
25005W        W40474   4.612  16.942  14.966 -0.0902  0.0132 -0.0982
25006W        W40475   9.833   8.772   5.503 -0.0159  0.0471 -0.0895
25007W        W40476   1.440  11.334   0.909  0.3463  0.1545  0.0041
25008W        W40477   1.123   7.482   2.578 -0.0162  0.1439 -0.1035
25009W        W40478  13.939  12.802   4.317  0.1606  0.0672 -0.2290
25010W        W40479  17.169   3.676  12.288 -0.1178 -0.2703 -0.4360
25011W        W40480  15.646   6.588  11.694  0.1977 -0.0220 -0.0931
25012W        W40481   7.010  12.566  15.569 -0.0332 -0.0520 -0.2753
25013W        W40482   8.156   6.197   4.756 -0.0264 -0.1933 -0.1124
25014W        W40483   4.396   4.200   2.776  0.0112  0.1474 -0.0895
25015W        W40484  10.870   7.844   1.775  0.2686 -0.0099 -0.2192
25016W        W40485   8.572  11.533  15.719 -0.1709 -0.0318  0.0561
25017W        W40486   6.804   9.015  14.178 -0.0712 -0.0005  0.0959
25018W        W40487   7.490   5.854   3.586 -0.1017 -0.0779  0.2278
25019W        W40488   4.785   4.539   5.205 -0.1026 -0.0322  0.1663
25020W        W40489  17.339   5.575   4.018 -0.1618  0.2755  0.1945
25021W        W40490  17.411  11.532  16.354  0.1588 -0.0194  0.3070
25022W        W40491  14.443  14.337  14.016 -0.0358  0.2122  0.0177
25023W        W40492   2.421   4.913  15.290 -0.1636  0.2060  0.1871
25024W        W40493  14.816   8.770   2.569 -0.0314  0.0053  0.0348
25025W        W40494  12.924   0.026   2.248  0.0385  0.1602  0.0379
25026W        W40495  13.065  11.829  15.621  0.0593  0.0434  0.3361
25027W        W40496  16.612  11.324  15.093 -0.0999 -0.2523  0.0132
25028W        W40497   5.893  13.834   5.454 -0.1867  0.1452  0.3311
25029W        W40498  10.700  12.965  15.500  0.0380 -0.3430  0.1760
25030W        W40499   6.351   9.652  14.471 -0.3288  0.0963 -0.1967
25031W        W40500   2.057  14.256   3.115 -0.1661 -0.3428  0.1182
25032W        W40501  16.806   0.795   4.889 -0.0749  0.2816 -0.0115
25033W        W40502   7.957   7.812  16.566  0.1292  0.0063 -0.1668
25034W        W40503   6.820  11.639   2.920  0.3435 -0.0328  0.0783
25035W        W40504  16.854  12.316   1.562 -0.0852 -0.0967 -0.1989
25036W        W40505  14.328   0.718  14.042  0.0552  0.1021  0.1848
25037W        W40506  16.011   8.220  13.991 -0.2501 -0.0705  0.1157
25038W        W40507   4.889   0.234   2.243  0.1020  0.0484 -0.4010
25039W        W40508  12.948  17.321   2.412 -0.0655 -0.2057  0.3108
25040W        W40509   5.425  14.282  11.693  0.0262  0.0555 -0.0642
25041W        W40510  10.121  12.547   3.367 -0.3473  0.1665 -0.2132
25042W        W40511  16.163   6.270   3.577  0.2328 -0.1386  0.1240
25043W        W40512   0.987   6.781   0.053  0.2136  0.1182  0.2031
25044W        W40513  14.500  15.415  14.992  0.1101  0.0783  0.0341
25045W        W40514  17.257   4.998  12.900  0.0788  0.1287  0.2561
25046W        W40515  15.997   5.251  12.217 -0.4148 -0.1512  0.1170
25047W        W40516   6.525  10.922   4.819  0.2483  0.2518  0.0717
25048W        W40517  16.755  14.014   0.315 -0.5264  0.1658  0.1339
25049W        W40518  16.565   4.810  12.728 -0.1651  0.0028  0.2354
25050W        W40519   5.912   5.457  13.552  0.1142  0.2335 -0.1391
25051W        W40520   3.416  11.546  13.534  0.0163 -0.3209 -0.0163
25052W        W40521   0.533  14.433   5.419 -0.0393  0.2313  0.0790
25053W        W40522   5.087   3.282  15.773  0.0727 -0.2356 -0.1705
25054W        W40523   4.674  12.277   2.761 -0.0380 -0.0244  0.3053
25055W        W40524   3.858   6.689  13.563  0.1341 -0.3527  0.0686
25056W        W40525   9.247   4.039  16.841 -0.0146  0.0215  0.0949
25057W        W40526   9.744  10.817   5.355  0.1527  0.5393  0.0325
25058W        W40527  13.500   3.868  12.209 -0.0725 -0.1122 -0.0972
25059W        W40528  11.610  13.501  14.790 -0.0271  0.1700 -0.1959
25060W        W40529  13.530   2.824   5.579 -0.0003 -0.0111  0.0352
25061W        W40530  15.068  17.708   2.038 -0.2790 -0.0330  0.2197
25062W        W40531  16.395   6.589  14.021  0.3497 -0.0797  0.1024
25063W        W40532  13.653  10.692   1.740  0.2562  0.4360 -0.2802
25064W        W40533   9.228  13.926   1.271 -0.2296 -0.0811  0.1837
25065W        W40534   1.892  17.247   2.121 -0.0063  0.2811 -0.1087
25066W        W40535   1.874  16.592   0.176 -0.0995 -0.0815 -0.0166
25067W        W40536   0.510  10.822   1.825 -0.0882  0.1593  0.0413
25068W        W40537   1.281   4.327  15.069 -0.1534  0.1615  0.0086
25069W        W40538   9.492   0.568  14.245 -0.2469  0.3368 -0.0106
25070W        W40539   4.824  17.215  12.731  0.0928  0.2132  0.1797
25071W        W40540   6.725   3.114   3.150 -0.0186 -0.0867 -0.1173
25072W        W40541  14.178  12.566  14.276  0.0881  0.1996 -0.3594
25073W        W40542  12.996  12.444   2.287  0.0024 -0.0306 -0.0386
25074W        W40543  10.485   1.062  12.052  0.1968  0.0890 -0.0935
25075W        W40544   1.687   2.173  14.418  0.2375  0.0586  0.1978
25076W        W40545   9.714   7.625   0.228 -0.0246  0.0772  0.0058
25077W        W40546   3.324   4.267  11.385 -0.1555 -0.1273 -0.0249
25078W        W40547  13.883   6.859  16.198 -0.1804  0.0909  0.3019
25079W        W40548  10.231   8.504   3.289 -0.1593 -0.0619  0.1824
25080W        W40549   2.421   3.123  10.821 -0.0705 -0.0246  0.2183
25081W        W40550  17.486  17.749   6.449  0.2220 -0.0753  0.0538
25082W        W40551   7.331  11.729   1.184 -0.5390 -0.3401 -0.1976
25083W        W40552   2.557  10.356  14.799 -0.1022 -0.0363 -0.0785
25084W        W40553  15.220   8.138   1.266  0.0714 -0.0526  0.2781
25085W        W40554  10.570   8.139   3.577 -0.0319 -0.2243  0.0569
25086W        W40555   4.105   5.623   1.618  0.1699  0.2114 -0.0779
25087W        W40556   7.502   7.442   2.027  0.1761  0.0326  0.1770
25088W        W40557  11.470   0.961  14.429 -0.2201  0.1959  0.0875
25089W        W40558  17.659  11.937   4.291  0.0548 -0.0730  0.0668
25090W        W40559   7.432   6.823   3.602  0.0281 -0.1101 -0.1916
25091W        W40560  11.652   6.902  16.797 -0.0034 -0.0472 -0.2669
25092W        W40561  16.265  16.820   1.934  0.0096 -0.0311  0.0606
25093W        W40562   4.685   4.928   4.398 -0.2272 -0.0177 -0.1160
25094W        W40563  10.252  15.637   0.102 -0.3872  0.0430  0.0998
25095W        W40564  16.859   6.141   1.577 -0.0204  0.2372 -0.1494
25096W        W40565  14.891  11.400  15.645  0.1593  0.1799  0.2687
25097W        W40566  12.902  11.796  13.587  0.0807  0.0269  0.2432
25098W        W40567   9.898   4.567   1.975 -0.1972 -0.0291  0.2547
25099W        W40568   4.766   5.326   6.445 -0.0439  0.1415  0.1286
25100W        W40569   2.799   7.946  12.794  0.0932  0.0292 -0.2215
25101W        W40570   5.007  16.453   0.336 -0.0344  0.1849 -0.0307
25102W        W40571   9.807   0.675   3.692  0.0231 -0.0173 -0.1326
25103W        W40572   8.173   8.971   0.489  0.2936  0.0177 -0.2989
25104W        W40573  14.924  16.404  16.158 -0.1095  0.0943 -0.1382
25105W        W40574  10.451   3.473   0.950  0.1430 -0.0772 -0.0888
25106W        W40575  16.344   2.043  15.075  0.0074 -0.1981 -0.0561
25107W        W40576  12.035  16.559  12.369 -0.2651 -0.1253 -0.0080
25108W        W40577   6.337   2.916  14.173 -0.0609  0.0694  0.0951
25109W        W40578  13.973   1.778   1.847 -0.1766 -0.1353  0.0806
25110W        W40579  16.350   8.872   0.264  0.1961 -0.2282  0.1563
25111W        W40580  17.454  14.757   2.492 -0.2128 -0.2548 -0.0323
25112W        W40581   5.121   4.162  12.276 -0.0772 -0.2886 -0.0564
25113W        W40582  10.743   1.701  15.149  0.0179  0.1092 -0.1465
25114W        W40583  13.024   3.116   2.920 -0.0818  0.0268  0.1212
25115W        W40584   2.816   0.937  14.087 -0.0609  0.3201  0.0684
25116W        W40585  11.824   1.545   0.695  0.0193 -0.0014  0.0399
25117W        W40586   4.844  16.204  13.359 -0.1446  0.0519 -0.0868
25118W        W40587  10.003   2.957   1.320  0.4003 -0.1752 -0.0263
25119W        W40588  15.200  10.706   3.819  0.0697  0.2881  0.0458
25120W        W40589  15.113   1.107   5.150  0.0907 -0.0452 -0.0944
25121W        W40590  16.691  16.946   4.651  0.0077 -0.1131  0.4086
25122W        W40591  13.940  16.711  15.308  0.0564  0.0752  0.0814
25123W        W40592   1.602  12.597  15.284 -0.1987  0.0858 -0.0622
25124W        W40593  13.561   2.458  15.113 -0.1592  0.0735 -0.1436
25125W        W40594   2.596   8.183   0.912  0.3052 -0.4108 -0.0518
25126W        W40595   2.563  10.689   5.603  0.1894  0.0697 -0.0873
25127W        W40596   4.230  13.541   5.234 -0.2307  0.0234 -0.2160
25128W        W40597  15.141  10.079   2.877 -0.0631  0.1479 -0.2133
25129W        W40598   8.487  17.729  13.474  0.0030  0.0459  0.1705
25130W        W40599   2.992  13.938   2.748 -0.2051 -0.2265  0.2165
25131W        W40600   4.677   8.053   2.585 -0.1283 -0.2198 -0.1911
25132W        W40601  13.493   8.211   0.612 -0.2177  0.1922 -0.0435
25133W        W40602   3.405   0.760   3.612  0.0215  0.1764  0.0252
25134W        W40603   5.058  16.585   6.173 -0.1435  0.1681  0.0293
25135W        W40604  16.513   7.358  11.487  0.1116 -0.0405  0.2335
25136W        W40605  12.456   5.922   6.154  0.1390 -0.1007  0.1828
25137W        W40606  12.507   0.943   5.900  0.0400 -0.1444 -0.0442
25138W        W40607  17.438   0.563  13.813 -0.0449  0.0308 -0.2974
25139W        W40608   1.558  14.990   1.054 -0.0968  0.0557 -0.0175
25140W        W40609   1.687  13.252   2.793 -0.0627  0.0866  0.1342
25141W        W40610  14.413  11.420   3.752 -0.0851 -0.0257 -0.1558
25142W        W40611   8.819   9.399   2.744  0.1962  0.2040 -0.0062
25143W        W40612  10.619  13.753  16.704 -0.0500 -0.2098 -0.2839
25144W        W40613   9.163   1.472   2.693  0.1130  0.1653 -0.0117
25145W        W40614  16.825   3.030   0.375  0.1164  0.1446  0.2507
25146W        W40615  13.532   0.760   5.217  0.0482  0.2871 -0.1137
25147W        W40616  16.170   1.980  14.199  0.3084 -0.0498 -0.2499
25148W        W40617   4.173   0.449   5.759  0.0166  0.0464  0.2709
25149W        W40618   4.826  11.160   1.798 -0.0995  0.1677 -0.1785
25150W        W40619  11.157  16.430   6.471 -0.1501 -0.2047  0.0579
25151W        W40620  13.093  15.215   5.807 -0.0094 -0.1626 -0.1075
25152W        W40621   5.723   2.075   3.862 -0.1226  0.4098  0.0868
25153W        W40622   1.162  16.282   0.770 -0.0451  0.2285 -0.1465
25154W        W40623   2.915  10.244   1.238 -0.3393 -0.2786 -0.1618
25155W        W40624   4.670  16.589   5.202  0.0925 -0.2061  0.1074
25156W        W40625   5.833  14.348   1.847 -0.0540 -0.0582 -0.1887
25157W        W40626   4.464  16.563   0.462 -0.0952 -0.2854 -0.0185
25158W        W40627   5.576   5.890   4.351  0.0145 -0.3600 -0.0866
25159W        W40628   6.878   4.742   1.974 -0.0355 -0.0517 -0.0238
25160W        W40629   1.088   2.147  15.651  0.2071 -0.2340  0.2634
25161W        W40630   5.728   2.278  15.315  0.0732  0.1223  0.0652
25162W        W40631   6.277   0.905   2.839 -0.0416 -0.0264  0.2537
25163W        W40632   2.620  13.803   4.347  0.3569 -0.1823  0.0522
25164W        W40633  14.271   3.257   0.861  0.1405  0.1542 -0.1894
25165W        W40634  15.826  14.241   2.243 -0.0170  0.0214  0.2035
25166W        W40635   8.220   9.762   3.241  0.1494 -0.1846 -0.1555
25167W        W40636   8.911  11.219   5.396 -0.1052  0.0139  0.1850
25168W        W40637  15.561   6.088   1.391  0.1294 -0.2022 -0.0105
25169W        W40638  14.263   2.922   4.949  0.1885  0.2127 -0.1754
25170W        W40639   4.710   0.348  13.785  0.1534  0.2464  0.2333
25171W        W40640  15.500  13.302   4.457 -0.1347  0.2214 -0.1775
25172W        W40641  14.311   1.568   2.662  0.0682  0.0125  0.3510
25173W        W40642   6.789   7.019   5.866 -0.2908 -0.2330  0.4534
25174W        W40643   5.131  11.721  13.285  0.0310  0.0577 -0.2497
25175W        W40644  12.355   8.062  14.535  0.3130  0.1030  0.5945
25176W        W40645   8.788   2.103   1.270  0.0384 -0.0136  0.1771
25177W        W40646   7.733  10.737  10.876  0.0308  0.0571  0.5489
25178W        W40647   5.937  12.730   1.057 -0.3416 -0.0465  0.1120
25179W        W40648   9.964  15.250   1.389  0.2139  0.0194 -0.0831
25180W        W40649  11.533   7.280  15.015 -0.3173  0.2339  0.0527
25181W        W40650   3.539   0.697  15.961  0.1930  0.1335  0.1937
25182W        W40651   5.115  12.162  12.438  0.1305 -0.1989 -0.0366
25183W        W40652   0.320  16.804   3.892 -0.1774 -0.0550  0.2176
25184W        W40653  14.451  10.436   3.462 -0.0014  0.3233 -0.1092
25185W        W40654   5.510  11.174  13.359 -0.1339 -0.0575 -0.0288
25186W        W40655   2.044   2.273   3.257  0.0963 -0.0147  0.0687
25187W        W40656   2.142  14.449   0.823  0.1195 -0.1167  0.1896
25188W        W40657  10.235  13.997   4.187  0.1143  0.2439  0.2024
25189W        W40658   2.118   7.119  13.620  0.1342  0.0590 -0.1281
25190W        W40659   1.635   1.064  11.912  0.1213  0.2390 -0.1770
25191W        W40660   1.842   6.697   0.096  0.0197  0.1068 -0.1528
25192W        W40661   7.965   8.154   0.072  0.2098  0.0562  0.1408
25193W        W40662  11.110   0.196   2.342  0.1054  0.0611 -0.1652
25194W        W40663   4.388  11.260   2.882 -0.0604  0.3804  0.0825
25195W        W40664   7.478   3.764   2.877  0.0286  0.0091  0.0447
25196W        W40665  15.372  12.899  13.769  0.1584  0.1223  0.0135
25197W        W40666   8.701   9.628   3.228 -0.2591  0.0396 -0.0899
25198W        W40667   8.923  13.969   3.852  0.0002 -0.2405  0.0955
25199W        W40668   6.643  14.684  14.336 -0.0974 -0.5371  0.0821
25200W        W40669   5.114  13.099  13.419 -0.3584 -0.1918  0.0505
25201W        W40670  10.194  12.565  14.774 -0.0288  0.0055 -0.1121
25202W        W40671   5.204   1.749   2.244  0.0480 -0.0526 -0.2975
25203W        W40672   6.719   8.169  11.502 -0.1925 -0.1977 -0.0187
25204W        W40673   8.052   1.039   5.924 -0.2053 -0.0427 -0.1914
25205W        W40674   0.280   4.252  10.707  0.1207 -0.3316 -0.0475
25206W        W40675   6.663   0.289   0.776 -0.3293 -0.1610  0.0609
25207W        W40676  16.843   5.015  15.289  0.2062 -0.0282  0.1370
25208W        W40677   7.770  16.323   3.897  0.1872  0.1171  0.2145
25209W        W40678   9.046  12.825  13.518 -0.2704 -0.1683  0.0910
25210W        W40679   4.453  11.880   4.138  0.0402  0.2235 -0.0702
25211W        W40680   6.389   9.807   4.577 -0.1098  0.1730  0.0727
25212W        W40681  14.363   2.454   3.016 -0.1286 -0.0161  0.1488
25213W        W40682   7.453   5.520  14.614  0.1545  0.1691 -0.0326
25214W        W40683   5.745   5.820  14.372 -0.0639  0.1684 -0.2483
25215W        W40684  14.869  12.693   4.096  0.2226  0.0835  0.3209
25216W        W40685   3.906  14.001  12.629 -0.0087 -0.1542  0.2887
25217W        W40686   1.349  12.154  15.434  0.0055 -0.0137  0.3275
25218W        W40687  15.045   4.885   5.032 -0.1109 -0.2814  0.1926
25219W        W40688  10.605  11.307   6.156  0.1394 -0.0104 -0.0811
25220W        W40689  16.388  14.007   1.018 -0.1178  0.0063  0.0506
25221W        W40690   6.943  16.768   0.547 -0.3421 -0.0034  0.3108
25222W        W40691   6.478   0.422  13.603 -0.1200 -0.3312  0.0025
25223W        W40692   3.443  16.068   1.006  0.1041 -0.0907 -0.1106
25224W        W40693  10.469   8.051   5.790  0.2526  0.0312  0.2443
25225W        W40694   4.983  11.286   2.498 -0.0806  0.2341 -0.1194
25226W        W40695  13.052   5.312   3.466  0.2786 -0.0238  0.2516
25227W        W40696   5.629  12.037   1.035  0.2241 -0.3577 -0.0789
25228W        W40697   6.105  11.220   3.430 -0.2858  0.1471  0.0464
25229W        W40698   1.712   7.283   4.493  0.1541 -0.0638  0.1659
25230W        W40699  16.733   8.905  12.185  0.1555  0.1367  0.3043
25231W        W40700  14.989  12.242   3.889  0.2176  0.1079  0.3943
25232W        W40701  16.331   7.054  14.999 -0.1623  0.1869  0.2308
25233W        W40702   1.064  13.822  14.971 -0.0674  0.1849 -0.2236
25234W        W40703   3.189   0.587   1.263  0.0675 -0.0622 -0.1401
25235W        W40704  16.462   6.651  12.109  0.2037 -0.0451  0.1150
25236W        W40705  11.988   8.550   2.834  0.2208 -0.1352 -0.0375
25237W        W40706   0.150   2.594  14.946  0.0318  0.1452  0.1041
25238W        W40707  17.231   6.536  13.446  0.0556 -0.0011 -0.0128
25239W        W40708   8.786   2.916   6.872 -0.2090  0.0799  0.0883
25240W        W40709  14.011  11.161  12.742 -0.0166  0.1619 -0.2824
25241W        W40710  11.618   5.073   3.114  0.1740  0.1606  0.1900
25242W        W40711   4.223   9.978  15.615  0.4483  0.5061 -0.0397
25243W        W40712   1.450  15.683  16.535  0.0792  0.1627 -0.2352
25244W        W40713  10.944   0.159  12.880  0.2409 -0.5158 -0.1575
25245W        W40714   3.458   5.435   3.897 -0.2446 -0.0258 -0.1184
25246W        W40715   1.362   9.426   4.454 -0.0345 -0.1095  0.0553
25247W        W40716   0.737  17.311   2.753 -0.0606 -0.0100  0.0119
25248W        W40717  13.451  17.618  11.940  0.1806 -0.3280  0.0624
25249W        W40718   0.516   4.103   6.002  0.2175 -0.2682 -0.2733
25250W        W40719   5.021   9.064  14.238  0.0411 -0.2956  0.2574
25251W        W40720  11.508  15.504  13.534 -0.2318  0.1011  0.3874
25252W        W40721   9.602   6.197  14.551 -0.0156  0.1713 -0.1453
25253W        W40722  16.167  11.882   2.021  0.1011 -0.0198 -0.1883
25254W        W40723   7.900   0.177  16.050  0.0141 -0.1420 -0.0454
25255W        W40724  15.243   9.664  13.824 -0.1480  0.0292  0.0088
25256W        W40725  14.749  13.090   0.594  0.1197 -0.3152 -0.0327
25257W        W40726  16.439  10.913   3.924 -0.2234 -0.3250  0.1416
25258W        W40727   3.372  12.128  12.223 -0.0928 -0.4525 -0.2071
25259W        W40728   3.193   7.018  16.703  0.3905  0.1179 -0.0125
25260W        W40729   6.125   9.648   0.607  0.1193 -0.0861  0.2870
25261W        W40730   2.750  16.468  16.074 -0.2590 -0.1070  0.0612
25262W        W40731  15.377   9.752  15.862  0.3404 -0.1939 -0.3434
25263W        W40732   2.018   4.985   3.523  0.0072  0.4031  0.0143
25264W        W40733   4.624   9.026   5.204  0.3836 -0.1207 -0.0236
25265W        W40734   9.931   4.041   1.978 -0.0056 -0.0604  0.2022
25266W        W40735   8.566  12.147  15.510  0.2461 -0.1487  0.0894
25267W        W40736   5.503   9.528  13.087  0.3072 -0.0462 -0.0189
25268W        W40737   4.888  12.485  16.266 -0.0244  0.1588  0.0613
25269W        W40738  17.314   0.793   0.901 -0.2127 -0.2501 -0.0840
25270W        W40739  13.293  10.842  11.611 -0.0586  0.2191  0.3790
25271W        W40740  13.017   4.701   0.880 -0.1826 -0.1147 -0.0149
25272W        W40741   8.818  11.515  14.898  0.3119  0.1445  0.1421
25273W        W40742   2.286   3.207   2.781  0.2477  0.1745  0.0263
25274W        W40743   8.746  11.791  12.755  0.0541  0.2107 -0.0956
25275W        W40744   3.960   4.141   0.156  0.0595  0.0367  0.0420
25276W        W40745  17.421   6.506   0.072  0.4061  0.1282 -0.3354
25277W        W40746  13.684  15.931   0.840  0.1000  0.1097  0.1242
25278W        W40747   1.000   2.963   3.339  0.1722  0.0034  0.1674
25279W        W40748   9.616  11.569  12.429 -0.0369 -0.1869 -0.1523
25280W        W40749   7.112   6.220  12.781 -0.0095 -0.0111 -0.0482
25281W        W40750   7.270   3.083   3.912 -0.4003  0.0570 -0.1604
25282W        W40751  13.481   9.938   3.967 -0.0616  0.0038  0.1583
25283W        W40752   8.934  14.740   2.067  0.1350  0.2360 -0.1218
25284W        W40753   4.618   6.353   3.951  0.0994  0.0004  0.1381
25285W        W40754  14.713   7.069   1.590 -0.0177 -0.1855 -0.2356
25286W        W40755  15.104   3.141   3.302  0.0568 -0.0324  0.2615
25287W        W40756  10.473  17.331  14.243  0.0286 -0.1970  0.5048
25288W        W40757   0.266  14.955  13.536  0.0461  0.0916 -0.0702
25289W        W40758  12.051  12.231   6.519 -0.1096 -0.0562 -0.1863
25290W        W40759  15.486  12.118   1.882 -0.0960 -0.1966  0.1635
25291W        W40760  16.338   1.497  16.695  0.1740 -0.0575 -0.0873
25292W        W40761   1.532   0.705   2.549 -0.2147 -0.0843 -0.3316
25293W        W40762   6.301   3.103   5.956 -0.1513 -0.2569  0.0811
25294W        W40763  16.237  13.147   3.601  0.1470  0.0568  0.1934
25295W        W40764   2.047   1.670  11.616 -0.1955 -0.1288 -0.1067
25296W        W40765  14.639  16.166  13.249 -0.1197 -0.2308  0.0390
25297W        W40766   7.098  13.098   4.231 -0.0311  0.0784  0.2761
25298W        W40767   2.934  16.951  16.263  0.0198 -0.0940  0.1149
25299W        W40768   1.253   4.134   5.250  0.2840  0.0296 -0.0244
25300W        W40769   3.402   4.110   2.393  0.0231  0.1950 -0.2493
25301W        W40770   4.233  12.946  13.681  0.2131  0.0549 -0.4965
25302W        W40771   1.182  11.838  13.653 -0.0062  0.0900 -0.1224
25303W        W40772   5.079   3.956  16.474 -0.0979 -0.0434 -0.3544
25304W        W40773   5.118   3.860   3.361  0.0831 -0.1185 -0.1481
25305W        W40774   6.225  10.186   1.034 -0.0642 -0.0841 -0.0495
25306W        W40775   7.066   2.061  11.283 -0.1068 -0.1338 -0.0005
25307W        W40776   1.709   8.874  13.216 -0.0705 -0.1407 -0.2553
25308W        W40777  15.158  11.579   5.162  0.0498  0.0994  0.1862
25309W        W40778   0.733   3.371   2.032 -0.3832 -0.1474 -0.0352
25310W        W40779   0.385   5.204   2.414 -0.1269  0.1576 -0.1718
25311W        W40780   5.939   0.907  12.276  0.1331  0.0843  0.1661
25312W        W40781  15.296   0.805  13.335 -0.3849  0.0745  0.1910
25313W        W40782  11.085  17.203  16.352 -0.0002  0.3343  0.5233
25314W        W40783  11.376   2.394  15.959  0.0483  0.0571 -0.0816
25315W        W40784  12.630  11.596  15.530 -0.0750  0.2710  0.1005
25316W        W40785   1.512  12.206   0.022  0.0273  0.2160 -0.3984
25317W        W40786  11.892  15.351  13.948  0.1346  0.0856 -0.0433
25318W        W40787   5.948   2.726  13.711  0.0745 -0.0402  0.1592
25319W        W40788  11.376  17.124   0.854 -0.1245  0.1083  0.0661
25320W        W40789   5.606   1.244  16.427 -0.0091  0.1510  0.1786
25321W        W40790   1.904   1.914  14.055 -0.2611  0.1525  0.0213
25322W        W40791  15.384  15.388  11.821 -0.1900 -0.2927  0.1093
25323W        W40792  16.694  17.105  12.015  0.0314 -0.0009 -0.0344
25324W        W40793   5.619   1.021  14.963 -0.0329  0.1774 -0.1419
25325W        W40794  13.524   6.544  14.169  0.1403 -0.0048  0.0502
25326W        W40795  17.258   8.937  14.292  0.2263  0.0494  0.0676
25327W        W40796  13.125   6.000  13.002  0.2700 -0.1638  0.2692
25328W        W40797   5.517   1.515   6.820 -0.1154  0.0151  0.2328
25329W        W40798   7.221  12.536  13.597 -0.0249 -0.3021  0.0514
25330W        W40799  12.937  16.718   3.119 -0.0065  0.0635  0.0179
25331W        W40800   2.495   1.083  12.933  0.0720  0.3613 -0.0800
25332W        W40801   8.661  17.471  15.843  0.1632 -0.1182 -0.0228
25333W        W40802  12.166  17.655   4.213 -0.1577  0.2003 -0.0900
25334W        W40803   4.317  16.901  16.655 -0.3621 -0.1211 -0.2135
25335W        W40804  13.510  17.059  13.267  0.0613  0.0469  0.0636
25336W        W40805   8.511   0.490   0.800  0.0118 -0.1452  0.2954
25337W        W40806  14.316   3.283  11.376 -0.0586  0.1407 -0.2030
25338W        W40807  16.540   8.753   5.005 -0.0120  0.0898  0.0911
25339W        W40808   4.564   6.165   1.796  0.0879  0.2259 -0.2374
25340W        W40809   2.223   1.204   3.234  0.1213  0.1061  0.0163
25341W        W40810   0.154   4.387   0.916 -0.2104  0.0312 -0.1084
25342W        W40811   4.729  11.075  14.365 -0.0083  0.2034  0.0353
25343W        W40812   0.379   2.965   5.082 -0.0777 -0.0344 -0.0707
25344W        W40813   4.107   8.588   4.106  0.0444 -0.1410  0.0985
25345W        W40814   2.364   0.498   5.697 -0.0097 -0.1716 -0.2374
25346W        W40815   4.389   9.082   2.819 -0.0885 -0.2091  0.1073
25347W        W40816  15.307  17.449   2.900 -0.2761 -0.0510  0.0181
25348W        W40817   9.243  14.529   3.263  0.1160 -0.2906  0.0620
25349W        W40818   0.310   3.269  10.796  0.2836 -0.1801 -0.3760
25350W        W40819   0.391  14.672   3.697 -0.0713 -0.0376 -0.1130
25351W        W40820   2.601  11.680   1.454 -0.2599  0.0826  0.1718
25352W        W40821   7.812   5.350   0.952  0.1129 -0.2144 -0.1206
25353W        W40822   3.204  11.828   0.721  0.1140  0.0996 -0.0391
25354W        W40823   6.731   4.097  15.727 -0.1290 -0.0644 -0.0193
25355W        W40824   5.609   9.470  15.831  0.0762  0.0509 -0.1326
25356W        W40825   7.826  11.195  10.985  0.1208 -0.0696 -0.1612
25357W        W40826   2.193   4.284  12.591  0.2632  0.0493 -0.1258
25358W        W40827  10.297   1.652   3.303 -0.0784 -0.0380 -0.0928
25359W        W40828   2.555  17.619   0.828  0.0219  0.1057  0.1854
25360W        W40829   1.115   6.059  16.736  0.1505  0.0975 -0.1358
25361W        W40830   0.108   0.020   3.868 -0.0239 -0.2800  0.1207
25362W        W40831   8.457  15.831   1.966  0.1991  0.0244 -0.3244
25363W        W40832   4.387   5.662   2.584  0.1466  0.1429  0.2112
25364W        W40833  15.733  16.249   6.231 -0.1412 -0.3071 -0.0223
25365W        W40834   7.685   6.986   1.858  0.4472 -0.0107 -0.1902
25366W        W40835   5.063   9.208  16.096 -0.0844  0.1287 -0.3564
25367W        W40836  12.970   4.684   4.359  0.1468 -0.0087 -0.1254
25368W        W40837  11.098  10.682  16.548 -0.0223  0.1907 -0.0133
25369W        W40838  16.406   1.191   1.098  0.3157 -0.0847  0.0304
25370W        W40839   2.199   4.446   0.563 -0.3555  0.1363  0.1936
25371W        W40840  14.421   8.081  14.269  0.0894  0.0674  0.1130
25372W        W40841   0.898   9.676   3.000 -0.0478  0.0987  0.0338
25373W        W40842  12.638  17.560   0.696 -0.3757 -0.0694  0.3488
25374W        W40843  13.396   6.221  13.373  0.2696 -0.1281 -0.1323
25375W        W40844  10.654  14.110   5.515 -0.1674 -0.3534 -0.1503
25376W        W40845   8.791   1.415   1.799  0.0190 -0.1989  0.0471
25377W        W40846   9.680  14.360  13.839 -0.3294 -0.0485  0.0548
25378W        W40847   4.384   5.753   3.402 -0.1668 -0.1606  0.0237
25379W        W40848  15.546   1.623  14.800 -0.0521  0.1272  0.3536
25380W        W40849   2.452   8.750  15.974  0.4178 -0.3570 -0.0943
25381W        W40850   7.795  12.507   5.410  0.0399  0.3413  0.0759
25382W        W40851   5.817   5.742   1.489 -0.2004  0.1846 -0.1091
25383W        W40852   3.372  12.713   0.232  0.4317  0.2046  0.2164
25384W        W40853  12.935   2.626   3.230  0.2538  0.0174  0.1995
25385W        W40854   6.536   6.233  15.993 -0.1064 -0.0529 -0.0501
25386W        W40855  15.663  12.059   3.695  0.2324  0.0033 -0.0386
25387W        W40856   4.132   2.006  12.894  0.1835  0.1530  0.0837
25388W        W40857   4.310  14.462   5.448 -0.2874  0.0004 -0.1482
25389W        W40858  15.594  14.512   1.253 -0.0367 -0.4133  0.0079
25390W        W40859   2.879   0.986   0.257 -0.0904  0.0856 -0.3486
25391W        W40860   7.898   1.209  16.189 -0.1067  0.1072  0.0904
25392W        W40861   8.486   7.344   3.801  0.1221 -0.0202  0.0808
25393W        W40862   7.310  10.672  11.178 -0.0894  0.1485  0.0615
25394W        W40863  14.708   7.922  11.729 -0.0102 -0.0176  0.2480
25395W        W40864  12.340   3.507  12.486  0.0398 -0.0311  0.1226
25396W        W40865  13.741   7.512   4.995  0.0747 -0.2587 -0.0503
25397W        W40866  14.931  13.322   4.471  0.3876 -0.4010 -0.0122
25398W        W40867   0.543   0.493   1.688 -0.2343 -0.2857  0.1606
25399W        W40868  12.058  17.613   3.211 -0.2574  0.0780  0.0583
25400W        W40869  15.490   1.112   2.083  0.0430  0.4778 -0.0644
25401W        W40870   4.650   4.766  16.069  0.2082  0.1393  0.2189
25402W        W40871   4.776  14.595   4.657  0.0267 -0.1300 -0.1814
25403W        W40872   2.584  13.242   4.205 -0.0248 -0.0153 -0.0663
25404W        W40873   8.967  13.620   2.405  0.2314 -0.2307 -0.2513
25405W        W40874   7.864   9.649  11.632 -0.1708 -0.0826  0.2470
25406W        W40875   3.234  13.082  16.222 -0.1203 -0.0850  0.0020
25407W        W40876  15.803   8.393  15.055 -0.1664 -0.0129  0.0367
25408W        W40877  16.974  10.748   2.692 -0.0898 -0.0362  0.1428
25409W        W40878   8.501   2.471  13.591 -0.1735  0.0129 -0.1006
25410W        W40879   4.419   8.090  15.576  0.0479  0.0187  0.3125
25411W        W40880   2.918  11.880   1.146 -0.2344  0.1044  0.2933
25412W        W40881  14.671   4.681   1.062  0.0595  0.0391  0.0302
25413W        W40882  11.472   1.794   5.508 -0.1624 -0.3082  0.1571
25414W        W40883  15.534  13.579  14.793  0.1357  0.2182 -0.2643
25415W        W40884   4.772   4.328  16.628  0.0400  0.2388 -0.1217
25416W        W40885   2.459  13.858  11.201  0.1725  0.1272 -0.3286
25417W        W40886  11.398  15.919   0.195  0.2628 -0.0141 -0.1594
25418W        W40887  15.666   3.551  14.559  0.0963 -0.0947  0.0114
25419W        W40888  17.009   9.007  10.776  0.2408 -0.1400 -0.0586
25420W        W40889  16.812   5.313   0.188  0.0346  0.2823 -0.0171
25421W        W40890  15.453  15.403   2.946  0.1789 -0.1309 -0.0672
25422W        W40891   9.997   1.866   0.454  0.0152  0.1815 -0.2348
25423W        W40892  13.105   1.235  13.693 -0.1851  0.0347  0.0078
25424W        W40893   6.291   1.929  16.528  0.0792 -0.3451 -0.0053
25425W        W40894   0.529   1.071  12.121 -0.0833  0.1932 -0.1828
25426W        W40895  13.410  11.621   1.622 -0.2246 -0.1626 -0.1497
25427W        W40896   1.337  13.658  12.205 -0.0521 -0.1535 -0.0951
25428W        W40897   7.930   1.216   3.578 -0.0248 -0.2850 -0.0319
25429W        W40898   1.328   9.629   3.265  0.0491 -0.1014 -0.1033
25430W        W40899  12.871  16.777   4.198  0.1755  0.0821  0.0393
25431W        W40900  12.619  12.380  13.660  0.1976  0.1240 -0.2827
25432W        W40901   2.531   9.169   0.473 -0.0207  0.3505 -0.1403
25433W        W40902   7.543   0.490  16.124  0.0596 -0.0095 -0.2358
25434W        W40903  12.356   3.820  16.682 -0.1873 -0.3249 -0.1187
25435W        W40904   9.694  13.368  13.645 -0.2788 -0.1046  0.2032
25436W        W40905   3.235  12.734   2.277  0.0856  0.1118  0.3030
25437W        W40906   1.642   7.638   0.133  0.2078  0.0608  0.0401
25438W        W40907  10.123   7.598   1.261  0.0063 -0.2713 -0.2101
25439W        W40908   6.750   2.506  15.914  0.1067  0.1816  0.0008
25440W        W40909   6.691   3.374  14.501  0.0354 -0.0860 -0.1595
25441W        W40910   5.348   7.439   1.329  0.0617  0.0715  0.0201
25442W        W40911  11.672   7.705  12.716 -0.0949 -0.0815  0.1546
25443W        W40912   2.335   8.433   4.369  0.0281  0.2671 -0.0955
25444W        W40913   1.784   9.826  16.487 -0.0459  0.1762  0.0238
25445W        W40914   5.617   3.222  15.686  0.0905 -0.0687 -0.0955
25446W        W40915   8.209   0.529  14.341  0.1338  0.2545  0.0570
25447W        W40916   7.849   7.054  11.754  0.1270  0.1166  0.2159
25448W        W40917  12.774   4.588  14.636 -0.1327 -0.1645 -0.0484
25449W        W40918   1.522  15.786  12.591 -0.2183 -0.0127 -0.0445
25450W        W40919   9.856  11.645   0.327 -0.2988 -0.0685  0.1743
25451W        W40920  10.821   4.482  15.302  0.3979  0.0653  0.0096
25452W        W40921   0.945  11.438  13.832  0.0193 -0.1544  0.0977
25453W        W40922   3.486   7.095   5.509 -0.1031  0.0530  0.0097
25454W        W40923  17.510   5.720   0.757  0.3579  0.1743 -0.1217
25455W        W40924   4.786   7.297  12.486 -0.0964  0.1063  0.2142
25456W        W40925   9.703   2.765  13.097 -0.0771 -0.0563 -0.1467
25457W        W40926  10.050  11.705  10.970 -0.2588  0.2569 -0.1975
25458W        W40927   4.743   1.617   1.883  0.2196  0.0209 -0.1390
25459W        W40928   4.281  11.010   0.327 -0.2749  0.1482  0.2025
25460W        W40929   1.106   2.333  11.688 -0.1447  0.0313 -0.4458
25461W        W40930  10.266   5.472  12.382 -0.0830 -0.1516  0.2248
25462W        W40931   1.212   5.453   3.030 -0.1087  0.2551  0.0659
25463W        W40932   2.000   5.047   1.915 -0.1402 -0.1058 -0.0901
25464W        W40933  15.575   8.298   4.221 -0.2797 -0.2459  0.0835
25465W        W40934   3.592   9.774   1.228  0.0608  0.1913 -0.0568
25466W        W40935   8.064   1.704  14.190 -0.2123  0.0991  0.2095
25467W        W40936   3.814  17.019   4.615 -0.0651 -0.0036 -0.0108
25468W        W40937   3.010   4.721   1.543 -0.1303 -0.2729  0.2657
25469W        W40938   0.755   6.547  11.287  0.0035 -0.0588  0.2745
25470W        W40939  12.466   1.852   3.607  0.0507 -0.1439 -0.2361
25471W        W40940  16.491  14.721  15.032  0.2664  0.2020  0.2886
25472W        W40941   7.341   2.991   6.089  0.1356  0.1216 -0.4464
25473W        W40942   2.457   8.592   0.444  0.0157 -0.1308  0.2264
25474W        W40943   8.531   1.462   6.279 -0.2037  0.2500  0.1154
25475W        W40944   5.779  17.173   5.848  0.2299 -0.0047  0.1357
25476W        W40945  12.331   4.072   1.591 -0.0267 -0.0053  0.3639
25477W        W40946  16.017   4.820  15.559  0.1225  0.1320  0.5131
25478W        W40947   8.247   7.031   4.812  0.1478 -0.1213 -0.1418
25479W        W40948  10.343   2.401  15.237 -0.1959 -0.4400  0.0025
25480W        W40949  14.246  15.662  12.739 -0.1842  0.1295 -0.3065
25481W        W40950   1.539   1.841   2.473 -0.1412  0.1614  0.0170
25482W        W40951   4.061   8.031   2.040  0.2532  0.0986 -0.1525
25483W        W40952  14.391  14.901  11.998  0.0864  0.1474 -0.3811
25484W        W40953   3.751  10.765  14.107 -0.3376  0.3898 -0.0748
25485W        W40954  12.192   7.717  16.184  0.0306  0.3359 -0.2460
25486W        W40955  13.177  14.748   3.986  0.1791 -0.0607  0.1567
25487W        W40956   9.422  16.997   1.818  0.1072  0.1756 -0.0327
25488W        W40957   3.774  15.372  14.855 -0.1744 -0.2623  0.1310
25489W        W40958   4.656   3.475  14.296 -0.0972 -0.3360 -0.1244
25490W        W40959   9.327   0.589  15.613 -0.2230 -0.2167 -0.0375
25491W        W40960  12.702   6.703  14.556  0.1896 -0.0746 -0.1010
25492W        W40961   1.672   2.053  15.547  0.0984  0.2541 -0.1586
25493W        W40962  17.063  15.008  16.151  0.2128  0.2298  0.1033
25494W        W40963  12.341   5.422  15.445 -0.0578 -0.0309 -0.2039
25495W        W40964   1.876  10.850  16.808  0.1972 -0.1166 -0.3140
25496W        W40965  11.889   0.530   2.831 -0.1338 -0.0426  0.3402
25497W        W40966   7.400   7.705   1.582 -0.1530  0.0504 -0.2456
25498W        W40967   1.023   0.987   2.460 -0.0859  0.0378  0.0614
25499W        W40968   2.816   0.353   6.180  0.0333  0.1259 -0.2211
25500W        W40969   0.873   3.329  14.681  0.0804  0.3847 -0.2221
25501W        W40970   7.260  15.732  13.679  0.1322  0.2503 -0.1670
25502W        W40971   6.876   7.588   2.696  0.0054  0.1433  0.0241
25503W        W40972   7.035   6.933   5.322  0.1362 -0.1838 -0.0802
25504W        W40973   1.124   9.484   1.844 -0.1156 -0.5082  0.0693
25505W        W40974   8.954   1.621   1.210  0.0880  0.5329  0.1452
25506W        W40975   6.965   3.320   2.015  0.1888  0.0853 -0.0651
25507W        W40976   6.724   0.625   4.069  0.1883  0.1334 -0.0375
25508W        W40977  13.828  17.235  11.503 -0.0252  0.0422  0.0325
25509W        W40978  15.528   0.240   2.009  0.0661  0.0528  0.0840
25510W        W40979   9.234  16.002   6.699  0.0832 -0.2878  0.0924
25511W        W40980   3.613   3.321   3.063 -0.1317 -0.0818  0.0383
25512W        W40981   0.093   6.933  11.918 -0.2691  0.0505  0.3065
25513W        W40982   9.834  12.272   1.971  0.0750  0.0112  0.1008
25514W        W40983  14.488   3.209   4.622 -0.0920  0.0688  0.0768
25515W        W40984  13.077   7.031  16.739  0.0761  0.0627  0.0367
25516W        W40985   8.483   1.916  13.449  0.0070 -0.2036  0.1112
25517W        W40986   2.188   7.623   3.335 -0.0856  0.0538 -0.0016
25518W        W40987   4.658  14.646  13.202 -0.0413  0.1827  0.1248
25519W        W40988   6.742  16.766  13.609 -0.3748  0.0366 -0.2115
25520W        W40989  12.174  11.638  13.809 -0.3761  0.2059  0.2855
25521W        W40990   5.076  16.641  11.824 -0.4032 -0.2606  0.0269
25522W        W40991   0.759   7.835   1.900 -0.2299 -0.1406 -0.1374
25523W        W40992  14.583   7.145   5.090  0.1940  0.1579 -0.2510
25524W        W40993  13.232   4.506   5.167  0.0320  0.3849  0.0135
25525W        W40994  11.860  16.009  15.974 -0.0935 -0.2227 -0.3036
25526W        W40995   3.909   6.309   2.759 -0.1320  0.1623  0.0312
25527W        W40996  13.044  12.422  16.249  0.0757  0.0548 -0.2348
25528W        W40997  14.525   3.910   4.383 -0.0430 -0.1654  0.4067
25529W        W40998  12.372   3.578  16.148  0.1125  0.1790 -0.0855
25530W        W40999  14.135  11.279  16.828  0.0837 -0.0716  0.1736
25531W        W41000  11.260   5.622  14.079 -0.3750  0.2188  0.0265
25532W        W41001   9.513  15.573  14.303  0.0832  0.3119  0.0579
25533W        W41002   8.950  14.601  13.392 -0.0870  0.1275  0.4469
25534W        W41003  14.164  17.007   2.844 -0.1524  0.2068 -0.0550
25535W        W41004   4.889  17.513   0.436  0.2915  0.2835  0.0696
25536W        W41005   5.047   9.345  16.625 -0.1891 -0.1450 -0.1079
25537W        W41006  17.667  15.773   0.676 -0.1415 -0.1729 -0.0922
25538W        W41007  11.986  11.345   2.574 -0.1281 -0.1878 -0.1456
25539W        W41008   7.304   9.524  13.203 -0.0428  0.1445  0.2124
25540W        W41009   9.286   4.817   1.280  0.0469  0.1101 -0.1774
25541W        W41010   7.397   0.313   3.708 -0.0536  0.2175 -0.1078
25542W        W41011  11.330  16.919   5.648  0.2531 -0.4933 -0.2011
25543W        W41012   4.231   0.636  12.888  0.0941 -0.0328 -0.1162
25544W        W41013   7.038  10.799   1.931 -0.1078  0.2479 -0.0419
25545W        W41014  10.007   6.392   2.593 -0.1245 -0.0690  0.0801
25546W        W41015  11.186   3.592   3.371  0.2518 -0.1144 -0.0829
25547W        W41016  15.440   5.547   4.588  0.0626 -0.2363  0.4406
25548W        W41017   1.454   2.187  10.968  0.2844 -0.1697  0.0817
25549W        W41018   4.290  16.549  11.287  0.0937 -0.0302 -0.1353
25550W        W41019   5.041   2.777   3.225  0.0541 -0.1581  0.0993
25551W        W41020  13.519  12.353  13.137  0.2491 -0.1829  0.2078
25552W        W41021   1.693  17.291   4.808 -0.0520 -0.0890  0.0073
25553W        W41022   0.238   9.963  11.718 -0.3140  0.1473  0.0678
25554W        W41023  15.107   0.794   3.585 -0.1424  0.3954 -0.0336
25555W        W41024   7.335   5.938  14.330 -0.0653 -0.3098 -0.0057
25556W        W41025   1.213  10.971  16.576  0.2920  0.1684 -0.0544
25557W        W41026   8.940   7.973  15.597 -0.0325  0.2975  0.0697
25558W        W41027   8.159   4.978   2.036  0.1857  0.0340  0.0747
25559W        W41028  11.075   9.697   5.798  0.1026  0.0589  0.2030
25560W        W41029   4.397  16.291   0.878  0.0939  0.1411  0.1423
25561W        W41030  11.265  13.567   5.764 -0.1328 -0.2635  0.2334
25562W        W41031  14.947  15.044   3.771  0.0179  0.0825  0.2082
25563W        W41032  16.624  13.177  11.358 -0.0596 -0.2321 -0.1446
25564W        W41033   7.797   3.365  11.639 -0.2389  0.0968 -0.1603
25565W        W41034   0.169   6.747   5.121  0.1784 -0.0594 -0.1313
25566W        W41035   4.070  12.412  14.350  0.0215 -0.0147 -0.0101
25567W        W41036   4.906   4.355   0.988 -0.0395  0.2159  0.2853
25568W        W41037   5.895   7.412   4.995  0.0257  0.3279  0.1021
25569W        W41038   5.050  11.702  15.152  0.1710  0.2178 -0.1379
25570W        W41039  13.050   9.119  16.559  0.0680  0.3092  0.0576
25571W        W41040   9.068  11.917  14.752 -0.1438  0.0689  0.2057
25572W        W41041  17.629   2.599  16.154 -0.0988  0.1657  0.0880
25573W        W41042   3.118  15.066  15.282  0.0782 -0.0532 -0.1491
25574W        W41043  10.743   8.980   3.036 -0.1021  0.3651 -0.0175
25575W        W41044   1.530   7.524  10.403 -0.1396  0.1353 -0.0689
25576W        W41045   6.175   4.904   2.538  0.0698 -0.1870 -0.2131
25577W        W41046  11.593  10.347   6.126 -0.3535  0.0050  0.2389
25578W        W41047   4.320   2.813  16.642  0.1876  0.0173 -0.1232
25579W        W41048   2.237  12.345   3.880  0.0066 -0.0762 -0.0495
25580W        W41049  13.452   3.430  11.853  0.2143 -0.2128 -0.0519
25581W        W41050   7.810   3.652  13.656  0.0075 -0.0818  0.0689
25582W        W41051  17.119  11.956   5.033 -0.0544  0.0268 -0.0580
25583W        W41052  15.756   3.982   5.005  0.3740  0.0528 -0.0844
25584W        W41053  17.516   3.959   4.015 -0.2389 -0.2920 -0.0549
25585W        W41054   6.032   5.023  12.874  0.1302 -0.1210  0.1569
25586W        W41055   0.974   2.083  14.779 -0.1865  0.1940  0.1562
25587W        W41056  14.613  11.768   0.624 -0.0001 -0.0194  0.1163
25588W        W41057   2.944   0.170  16.617 -0.0998 -0.0260 -0.0171
25589W        W41058   8.875   3.376   2.025 -0.0851 -0.2953  0.0081
25590W        W41059  10.068   0.360   5.130  0.0327  0.0112 -0.0051
25591W        W41060  14.292   9.078  15.413 -0.0956 -0.0098  0.0622
25592W        W41061  16.642   0.303  14.290  0.0794 -0.2092  0.2900
25593W        W41062   9.568   2.283   4.642 -0.3176  0.0068 -0.1353
25594W        W41063  12.342   0.888  15.803 -0.1729  0.0578  0.0876
25595W        W41064   2.469  12.688  16.597  0.0300  0.2549 -0.0537
25596W        W41065   7.949  17.213  14.665  0.0513  0.2322  0.0522
25597W        W41066  15.756  12.123  14.880  0.1423 -0.5876 -0.0213
25598W        W41067  17.399   8.291  12.058 -0.2107 -0.0412 -0.0333
25599W        W41068  10.449  15.689  14.238 -0.0317 -0.0928 -0.0220
25600W        W41069   2.123  13.627  13.765  0.1546  0.0624 -0.2081
25601W        W41070   0.291   0.632  15.086  0.4855  0.1263 -0.1235
25602W        W41071   2.375   9.555   0.101  0.1717 -0.0138 -0.1648
25603W        W41072   6.124   3.508   1.957  0.0875  0.1099  0.1996
25604W        W41073   9.098   7.269  15.151  0.2815 -0.0229  0.0489
25605W        W41074   5.809   8.596   0.203  0.0141 -0.3495  0.0358
25606W        W41075  15.364  14.076  13.069 -0.0770 -0.3193 -0.0269
25607W        W41076  16.293   3.271  13.249 -0.0801 -0.2010  0.1382
25608W        W41077  14.048   0.914  12.207 -0.0507  0.1682  0.0427
25609W        W41078  16.019   0.343   0.268 -0.0936 -0.0233 -0.0011
25610W        W41079   2.470   7.792  15.556 -0.1644 -0.0372 -0.0007
25611W        W41080   5.926  15.979  16.181  0.4053  0.1036 -0.0253
25612W        W41081   2.128  10.461   0.711  0.1953 -0.0993  0.3335
25613W        W41082   3.508   5.675  16.838 -0.1156  0.2335  0.1361
25614W        W41083  12.660   6.266  14.981 -0.0304 -0.2371 -0.6594
25615W        W41084  12.677  14.947   4.094  0.2298 -0.0751  0.3562
25616W        W41085  17.224  17.081  12.279  0.3040  0.0622 -0.0614
25617W        W41086   5.748   3.774   2.664  0.0434 -0.2629  0.1139
25618W        W41087  16.135   2.430   2.762  0.2390 -0.2429 -0.1102
25619W        W41088  11.741  10.501  13.440  0.2252 -0.1398  0.0832
25620W        W41089   4.788   2.480   0.030 -0.5210  0.1004  0.0818
25621W        W41090   6.756  14.128  16.468  0.1470 -0.0168  0.1412
25622W        W41091  10.208   3.353   0.435  0.0075  0.1070 -0.0618
25623W        W41092  16.568  15.787   1.182  0.3022 -0.1844  0.0917
25624W        W41093   5.727   2.532   5.831  0.1626  0.0704  0.1332
25625W        W41094   9.655   6.417   0.111 -0.0133 -0.1844  0.0709
25626W        W41095   1.952  13.823   3.921  0.0070 -0.0562 -0.1015
25627W        W41096   8.444  11.044  11.709  0.0315 -0.0921  0.1401
25628W        W41097  13.538   9.208  14.005  0.1185 -0.1045  0.1715
25629W        W41098  12.339  15.927   5.468  0.0985 -0.0374 -0.0315
25630W        W41099   0.601   1.381  14.644 -0.3342 -0.0913  0.0163
25631W        W41100  12.652  13.503   2.988 -0.0575 -0.0574  0.1180
25632W        W41101  10.464   0.665   0.374 -0.0853 -0.1594 -0.1055
25633W        W41102  11.291   3.390   1.252 -0.3637  0.3675 -0.0381
25634W        W41103   5.505  13.869   4.543  0.1398 -0.1475  0.1724
25635W        W41104  13.822   8.802  12.341 -0.0955  0.0882 -0.1318
25636W        W41105  10.830   7.556  13.785 -0.1077  0.1164 -0.1093
25637W        W41106  15.782  16.413  15.602  0.1799 -0.2428  0.0779
25638W        W41107  17.359  10.097  12.047  0.1419  0.1515  0.1702
25639W        W41108   3.148   4.345   3.898  0.0136 -0.0664  0.2517
25640W        W41109   3.787  17.563   4.550 -0.1580 -0.2957  0.0961
25641W        W41110   7.628  16.133   4.734  0.0656  0.0039  0.2604
25642W        W41111  12.660  11.849  16.022  0.0800 -0.1464 -0.0682
25643W        W41112  17.313   1.211   0.532  0.0367  0.1322  0.0596
25644W        W41113   2.312   2.304   1.041  0.3316  0.2252 -0.1961
25645W        W41114  16.094  15.107  16.309 -0.0885 -0.3273 -0.3477
25646W        W41115  11.479  16.386   1.601  0.0234  0.0995 -0.0812
25647W        W41116   3.554   8.926  12.396 -0.0663 -0.0735 -0.2783
25648W        W41117   8.750  10.682  13.772 -0.2631  0.0277 -0.1939
25649W        W41118   0.126   0.247   1.834  0.1403 -0.0707  0.2552
25650W        W41119  12.981   4.351  16.217  0.0195 -0.0986 -0.0344
25651W        W41120   5.280  12.050  16.416  0.1931 -0.3149  0.2292
25652W        W41121  12.652   6.985   2.403 -0.0606  0.0064 -0.4466
25653W        W41122  13.259  11.048   1.066  0.1656  0.0823  0.0100
25654W        W41123  11.409   7.885  13.603  0.0833  0.2298  0.0275
25655W        W41124  15.574   6.617  15.627 -0.1277  0.0114 -0.1147
25656W        W41125  13.102   9.452   0.101  0.2732  0.2001  0.1846
25657W        W41126   4.600  12.101  13.640  0.1261  0.0038 -0.2192
25658W        W41127   4.576   3.931  11.390  0.0864  0.2860 -0.2203
25659W        W41128  12.916  15.480  16.337 -0.1149 -0.0415  0.0210
25660W        W41129   4.044   2.335   5.796 -0.0770 -0.0426  0.1677
25661W        W41130  15.254  16.585   5.545 -0.2755 -0.2123  0.1765
25662W        W41131  13.078   7.651  13.248 -0.1710  0.0090  0.0669
25663W        W41132  11.626  17.419   6.263  0.0352  0.1400  0.0993
25664W        W41133  11.256  11.556   3.208  0.2153  0.0380  0.0573
25665W        W41134   7.200   1.979   2.633 -0.1088  0.2788 -0.1536
25666W        W41135  11.030   4.015   2.070  0.2245 -0.3523  0.2391
25667W        W41136   9.559   2.268   2.990  0.1470  0.0582 -0.1784
25668W        W41137   5.292   5.689   2.995  0.0315  0.1174 -0.1197
25669W        W41138  17.540   5.208   0.830 -0.0484  0.2995 -0.1936
25670W        W41139   9.191  16.918   3.924  0.1597  0.0640 -0.0822
25671W        W41140  13.273  11.618   3.778  0.2123 -0.0599  0.1910
25672W        W41141   4.223   3.024  11.946 -0.0673  0.0635  0.0048
25673W        W41142  15.857  12.414   5.086  0.0879 -0.1366  0.3438
25674W        W41143   0.619  16.347  14.619 -0.2570 -0.2460 -0.1434
25675W        W41144   9.603   3.859   5.629 -0.0124 -0.0303 -0.1372
25676W        W41145  14.573  11.536   5.061 -0.0316 -0.2256 -0.1807
25677W        W41146  11.516  11.456  14.299  0.1903  0.0060 -0.3223
25678W        W41147  16.008   0.590  13.462  0.2530 -0.0024  0.3285
25679W        W41148  10.138   5.391  13.715  0.4100  0.1520  0.2199
25680W        W41149   3.174   4.272   2.850 -0.3120  0.2486 -0.1429
25681W        W41150   0.720  12.562  12.820 -0.2056 -0.2880 -0.1056
25682W        W41151  14.439  14.783  12.518  0.0774  0.0146  0.1021
25683W        W41152  10.868   4.025  16.297  0.0251 -0.1217  0.2778
25684W        W41153   6.293  17.313  14.510 -0.0228  0.1438  0.1081
25685W        W41154   3.224   7.473  10.581 -0.0534  0.0227  0.2985
25686W        W41155   1.903  13.742  11.869 -0.1044  0.1056  0.0547
25687W        W41156  13.304  12.061   4.525 -0.0945  0.2133 -0.3900
25688W        W41157  13.137  15.711   5.637  0.1796  0.0607  0.0273
25689W        W41158   2.614   7.835   0.049  0.0465  0.2952 -0.0690
25690W        W41159   7.486   5.514  14.092  0.0817  0.5254  0.3190
25691W        W41160  10.002   9.256   3.078 -0.0725 -0.1829 -0.0421
25692W        W41161   9.246   8.272  14.194  0.1363  0.0498  0.2097
25693W        W41162  16.731   0.372   5.658 -0.0942 -0.1646 -0.0527
25694W        W41163   5.412   8.157  14.843 -0.2666 -0.1465  0.1211
25695W        W41164   9.932  10.819   0.635 -0.2704  0.1067  0.1966
25696W        W41165   8.481  10.602  16.329  0.0323 -0.1764  0.1235
25697W        W41166   3.445   4.244   6.197  0.0503  0.2557  0.0233
25698W        W41167  10.916   0.051   0.312  0.2185 -0.0162  0.2183
25699W        W41168  16.623   6.195   2.794 -0.0900 -0.0944  0.0500
25700W        W41169  10.154   2.429  12.963  0.5121 -0.0384  0.0813
25701W        W41170  10.279  10.840   3.877 -0.0220 -0.1425 -0.4315
25702W        W41171   0.036  15.673  14.898  0.2389 -0.0783  0.1686
25703W        W41172  11.779   9.612   4.070  0.2891  0.1636  0.1799
25704W        W41173  14.427  14.712  13.616 -0.2213  0.2018 -0.0601
25705W        W41174   2.997   8.477  15.611 -0.1404 -0.3991  0.1175
25706W        W41175   8.239  10.476   2.871 -0.0630  0.2074 -0.0875
25707W        W41176  11.486  13.819   5.426  0.1407 -0.0610  0.0214
25708W        W41177   4.619   3.514   3.877  0.0788 -0.0323 -0.2826
25709W        W41178   8.686   5.157  15.300 -0.3929 -0.0831 -0.2201
25710W        W41179  10.625   8.672   3.589 -0.1044 -0.1887 -0.1621
25711W        W41180   7.210   4.975  16.521 -0.0572 -0.0109 -0.0062
25712W        W41181  14.253  16.619   3.530 -0.4932 -0.0120 -0.0701
25713W        W41182  15.638   4.253   1.776  0.0416 -0.0606  0.1856
25714W        W41183   1.791   5.130   2.434 -0.1110  0.0994 -0.3112
25715W        W41184  12.564  11.496  14.235 -0.0216 -0.0591 -0.1680
25716W        W41185   1.938   7.528   1.480 -0.0282 -0.0599  0.2011
25717W        W41186  13.531   8.202  13.981  0.1568  0.0245 -0.1258
25718W        W41187   5.810   2.833  16.035  0.0308 -0.0913  0.1397
25719W        W41188   6.150  14.596   0.450 -0.0681 -0.1845 -0.0166
25720W        W41189   7.883  16.653  13.041 -0.0090  0.0665  0.1858
25721W        W41190   9.349  11.686   5.675  0.0896  0.2061  0.0595
25722W        W41191   6.660   9.529  10.669 -0.0324 -0.1089  0.0222
25723W        W41192  13.945   7.312  14.595  0.0036  0.2810 -0.5587
25724W        W41193   3.990   2.177   2.309  0.1099 -0.1071  0.0267
25725W        W41194   7.112   8.159  16.379  0.0345 -0.0295 -0.0360
25726W        W41195   3.792   0.163   2.276  0.0634 -0.3240 -0.1466
25727W        W41196   8.085   9.812   2.297 -0.0165  0.0780 -0.3968
25728W        W41197   7.466   0.552  13.687 -0.0667  0.1958  0.1331
25729W        W41198  12.945   4.403   2.229  0.1157  0.1843 -0.0123
25730W        W41199  11.111  14.217   4.626 -0.2755 -0.1297 -0.1536
25731W        W41200  16.703   0.366   0.300  0.0049 -0.0362  0.0513
25732W        W41201   2.151  14.899   2.490 -0.1513  0.0603  0.2358
25733W        W41202  16.555   4.631  14.868 -0.1466 -0.1998 -0.0062
25734W        W41203   4.557   8.783   5.754 -0.1210 -0.0593 -0.1033
25735W        W41204  13.575   1.364  12.956 -0.0415 -0.1964 -0.0000
25736W        W41205   0.414  12.452   3.607 -0.0445  0.0906  0.0226
25737W        W41206  16.939  11.942   0.288  0.1198 -0.0949  0.1670
25738W        W41207  12.166   9.627  16.037 -0.1903 -0.2022  0.1297
25739W        W41208   3.792   7.456   5.441 -0.3305  0.0619 -0.0706
25740W        W41209  10.989   8.139   2.253  0.0923  0.0862  0.0201
25741W        W41210  12.050  13.948  15.445 -0.2593  0.1145  0.2445
25742W        W41211  15.157   2.578   1.991  0.0530 -0.0885  0.0817
25743W        W41212   5.833   5.310   4.245  0.3523 -0.3191 -0.0322
25744W        W41213  12.807  13.939  13.438 -0.0636  0.0835 -0.1266
25745W        W41214   8.545  10.308   3.926  0.1220 -0.0738  0.0462
25746W        W41215  13.496   5.487   0.337  0.0466  0.0486  0.0169
25747W        W41216   6.654  14.171  12.644 -0.0923 -0.1920 -0.1598
25748W        W41217  13.353  15.798   2.376 -0.0099 -0.1783 -0.2088
25749W        W41218  16.276   9.066  11.912 -0.3545  0.2060  0.0403
25750W        W41219   2.088  17.082  10.788  0.3914 -0.1502 -0.1088
25751W        W41220  10.188  14.487   4.301  0.3548 -0.0525 -0.0821
25752W        W41221   5.571  10.537  15.094  0.1437 -0.0780  0.1431
25753W        W41222  10.810   9.776  16.436 -0.0150  0.1190 -0.2932
25754W        W41223   1.488  11.995   4.482  0.0021  0.0667  0.4240
25755W        W41224  13.933  16.707   5.598 -0.0857 -0.3646 -0.3975
25756W        W41225   2.006   7.619   4.342 -0.3415 -0.0272  0.0698
25757W        W41226  15.534  16.301  14.861  0.3743  0.1982 -0.1550
25758W        W41227   5.869  10.712   1.464 -0.0030  0.2888  0.0744
25759W        W41228  17.688   5.237   3.813  0.0633 -0.0283  0.0892
25760W        W41229  11.929  12.188   6.010 -0.3390  0.0714  0.1488
25761W        W41230   4.620   2.552  12.480 -0.1791  0.1133  0.2289
25762W        W41231  17.517  17.538   3.713 -0.1283  0.0276 -0.1084
25763W        W41232   1.434   8.808   0.327 -0.2202  0.0106  0.0901
25764W        W41233   5.486   4.995  13.724 -0.2982  0.0944  0.1569
25765W        W41234  13.645   3.561  15.052 -0.1556 -0.2291  0.1111
25766W        W41235  12.684   4.339   3.371  0.0435  0.1442  0.0424
25767W        W41236   9.810   2.336  13.787  0.0032  0.0426  0.1809
25768W        W41237  16.496   3.858   0.675 -0.0132 -0.0823 -0.0398
25769W        W41238  12.382   8.610   4.809  0.0403 -0.0364  0.0558
25770W        W41239   8.037  16.347   6.321  0.0445  0.0304  0.1434
25771W        W41240   4.389   4.527  12.879 -0.3053  0.0572  0.2118
25772W        W41241   4.852  15.286   0.677  0.2615  0.0437  0.3416
25773W        W41242  11.712   4.372  13.223 -0.1629 -0.1756 -0.1659
25774W        W41243  10.602   6.807  13.143  0.0504 -0.0777  0.1820
25775W        W41244  12.650   6.014   2.917 -0.1796 -0.0784 -0.0467
25776W        W41245   1.671   4.414  14.542  0.0362 -0.2996 -0.0084
25777W        W41246  16.395   3.549  12.123 -0.2221  0.1912  0.0259
25778W        W41247   3.286   8.063   4.373 -0.0203  0.1033  0.0996
25779W        W41248  11.399   8.825  14.961 -0.3063 -0.1100  0.2461
25780W        W41249  15.414   4.290   4.365 -0.2435 -0.0104 -0.3427
25781W        W41250   0.412   1.528  13.178  0.4003 -0.1628 -0.1179
25782W        W41251   1.139   1.571   0.968  0.0369  0.2167  0.0833
25783W        W41252  11.726   1.630   1.459  0.1649 -0.1510 -0.1193
25784W        W41253  17.013   4.494   1.350 -0.0509  0.1102  0.1702
25785W        W41254   1.349  17.210  11.193  0.1052 -0.0199  0.0124
25786W        W41255  12.294  15.379   4.320  0.0003  0.0942  0.0984
25787W        W41256  11.927   0.696   1.171 -0.3898 -0.0680 -0.3312
25788W        W41257   0.852   9.745  16.719  0.0314  0.1698 -0.1052
25789W        W41258   3.413   3.366  12.080  0.3648 -0.1712 -0.3203
25790W        W41259  11.248  11.029   3.257  0.0467  0.1033 -0.0828
25791W        W41260   1.628  10.632   3.470 -0.1503 -0.1333 -0.1275
25792W        W41261   1.947   7.931   0.460  0.2578  0.2692 -0.5123
25793W        W41262   8.859   1.637   3.555 -0.1886 -0.0352 -0.2044
25794W        W41263  16.605  14.285   1.515 -0.2260  0.1546  0.1765
25795W        W41264  15.332   4.581  14.393  0.0049  0.0011  0.0078
25796W        W41265   7.904  13.221  13.067  0.2460 -0.0737  0.0004
25797W        W41266  17.773   5.387   2.863  0.2065  0.0295  0.3115
25798W        W41267   6.557   1.121  15.792 -0.0568  0.2683  0.0537
25799W        W41268   0.284  16.732   4.368 -0.1073 -0.0835  0.2781
25800W        W41269   0.758  17.535  15.270  0.2979  0.3860 -0.2542
25801W        W41270   1.267  15.831   2.480  0.0852 -0.0518  0.3403
25802W        W41271   1.972   0.421   2.640 -0.2511 -0.3238 -0.2630
25803W        W41272   3.382  12.592  15.428  0.0951  0.0887 -0.2964
25804W        W41273   4.784  13.847   2.946  0.2000  0.1669 -0.1062
25805W        W41274  14.604   2.745   5.816 -0.0685  0.1406  0.2324
25806W        W41275   7.795  12.531   3.980  0.0519 -0.0346  0.0484
25807W        W41276   9.453   3.301  16.136 -0.2097 -0.0108 -0.0352
25808W        W41277  17.735   5.157   5.324 -0.1165  0.0501 -0.2002
25809W        W41278   6.278   4.667   4.945 -0.0895 -0.0373  0.0728
25810W        W41279   2.977  12.730   3.993  0.1690 -0.3839 -0.0270
25811W        W41280  10.012   4.646  14.997  0.2114 -0.0753  0.2419
25812W        W41281  15.309  11.025  16.558  0.0481  0.2905 -0.0004
25813W        W41282   3.453  14.632  13.865  0.1044 -0.0717 -0.1856
25814W        W41283  10.206   4.783   1.381  0.0859  0.0807  0.1349
25815W        W41284   3.654   2.254   3.632 -0.1399  0.1615 -0.2441
25816W        W41285   0.434   4.480  15.513  0.1472  0.0901  0.2883
25817W        W41286  11.541   8.802  13.537  0.1436 -0.2240  0.1743
25818W        W41287  17.233   8.399  10.644  0.2613  0.1623  0.0010
25819W        W41288  11.353  10.052  14.125 -0.1614 -0.1046  0.2322
25820W        W41289  14.567  11.588   6.007 -0.1286 -0.2805 -0.2195
25821W        W41290   0.350  14.010  15.404  0.1001 -0.1605 -0.2436
25822W        W41291   8.600   6.067   5.043  0.2791 -0.0815 -0.0947
25823W        W41292  12.591   5.072  14.839  0.3189 -0.2092 -0.2416
25824W        W41293  11.982   6.735   0.313 -0.0914 -0.2119 -0.0331
25825W        W41294   8.045   0.664   4.128 -0.0388  0.2335 -0.2650
25826W        W41295   0.463  14.791   5.724 -0.2844 -0.3666  0.3766
25827W        W41296   6.862   2.039   4.548  0.1501  0.0932 -0.0845
25828W        W41297  11.952   7.230  12.497  0.0809  0.0601 -0.0328
25829W        W41298   6.965   6.899  15.298  0.0744 -0.0058  0.0834
25830W        W41299  11.960   3.745   1.651 -0.1558 -0.0151  0.4199
25831W        W41300   7.218   4.197   2.968  0.2559 -0.0645  0.0086
25832W        W41301  13.766  14.723  15.917 -0.1599  0.0248  0.0859
25833W        W41302  12.749   5.767  13.197  0.2697  0.2826 -0.0758
25834W        W41303  15.132  12.058   4.650 -0.1372 -0.1310  0.0212
25835W        W41304  17.270   3.018   4.203  0.2035 -0.0027 -0.2500
25836W        W41305   2.865   9.010  11.952  0.0244  0.2366  0.1872
25837W        W41306   5.568   3.829  14.741  0.0603  0.0310  0.0802
25838W        W41307   9.032   0.985  13.164  0.1391 -0.2809  0.0769
25839W        W41308   6.322   7.786  15.441 -0.0517  0.3497  0.1874
25840W        W41309  13.648  12.864   0.938 -0.2234 -0.2162 -0.2625
25841W        W41310  14.340   0.603   0.648 -0.0547 -0.0053  0.0492
25842W        W41311   9.241   7.542  11.924  0.2023 -0.0632  0.0741
25843W        W41312   8.867  13.481  14.847  0.1153 -0.0840 -0.1135
25844W        W41313  10.363   0.675  12.944 -0.2047  0.0370 -0.1305
25845W        W41314  14.025   1.700   5.055  0.0902  0.0106 -0.0508
25846W        W41315   5.661   3.668   2.153 -0.0273  0.0360  0.3425
25847W        W41316  13.499   5.270  15.144 -0.1117 -0.1936 -0.1037
25848W        W41317  11.523  12.216  14.048  0.0385 -0.2258 -0.0192
25849W        W41318   0.410  14.142  12.068 -0.0085  0.0054  0.0379
25850W        W41319  16.833   6.585  12.536  0.1816 -0.0958 -0.1699
25851W        W41320  12.366  11.323  15.863 -0.1973 -0.0545  0.3240
25852W        W41321   7.497   5.606  12.135 -0.1771  0.1618 -0.0145
25853W        W41322  14.787   4.124  12.624 -0.1311 -0.1323  0.0655
25854W        W41323  10.727  12.391  14.788  0.4274 -0.0479 -0.2153
25855W        W41324  11.836  17.126   2.874 -0.0411 -0.2395 -0.0997
25856W        W41325   5.957   1.727  11.693  0.2329  0.0701 -0.0133
25857W        W41326   2.308   0.373   2.061  0.3071  0.1117 -0.0288
25858W        W41327   2.246  11.896   1.706 -0.4036 -0.1184  0.1668
25859W        W41328  14.699  14.809   0.153  0.0980  0.1827  0.0380
25860W        W41329  15.495   1.990   5.252 -0.1850 -0.1768 -0.1716
25861W        W41330   6.330  15.786  12.832 -0.0583 -0.1655  0.2162
25862W        W41331  10.290  14.709   0.748 -0.0066 -0.1619  0.0450
25863W        W41332  14.619   7.610   4.019  0.1288  0.0541 -0.2601
25864W        W41333  13.761  12.340  14.526  0.0353  0.0035  0.0701
25865W        W41334   8.265   9.189  16.774  0.2270 -0.0643  0.1633
25866W        W41335  11.471   7.419   1.158 -0.2388 -0.1358 -0.3423
25867W        W41336  16.839  11.540   3.615 -0.1155  0.0264  0.0279
25868W        W41337   4.603   1.995  12.379  0.0997 -0.0506  0.1252
25869W        W41338   7.210   8.775   4.103 -0.1806  0.3904  0.1124
25870W        W41339  16.209   8.676   5.400 -0.3842  0.0059 -0.1515
25871W        W41340   0.745   1.158   0.279  0.2411  0.0303  0.2540
25872W        W41341   3.870   5.587  11.373  0.4321 -0.1334  0.0723
25873W        W41342   1.794  10.785   4.069 -0.2647  0.1075 -0.0162
25874W        W41343  10.835   4.846  16.670 -0.2269  0.2430  0.1019
25875W        W41344  10.331   6.660   3.538  0.0955  0.2232  0.0897
25876W        W41345  14.669   0.190   5.201 -0.0192 -0.0943 -0.1738
25877W        W41346   3.210   2.203   2.647 -0.0162 -0.0800 -0.0062
25878W        W41347  15.028  11.845  15.511  0.0339 -0.1789  0.0089
25879W        W41348  13.702  10.546  16.792 -0.1335  0.1967  0.0428
25880W        W41349   9.046  14.232   2.173  0.0188  0.1065 -0.1570
25881W        W41350   0.863   1.723   4.168 -0.2620 -0.1057  0.0338
25882W        W41351  13.884  10.193   3.934 -0.2284 -0.0337 -0.1802
25883W        W41352   9.022  16.813   5.220  0.3406 -0.0450  0.1222
25884W        W41353  13.842   2.669   0.410  0.2532  0.3673 -0.3493
25885W        W41354  10.800   8.230   6.095  0.2321  0.0707  0.0013
25886W        W41355   6.927   2.735   2.848 -0.2190 -0.0392 -0.0952
25887W        W41356   7.400   4.181  12.642 -0.0961  0.2854 -0.1409
25888W        W41357  17.677   5.747  16.374 -0.0194 -0.1042  0.1982
25889W        W41358  14.034   7.672   5.528  0.1670  0.0883 -0.3601
25890W        W41359   7.350   9.106  15.398 -0.2103  0.1176 -0.1070
25891W        W41360  12.149   9.668  11.257 -0.1121  0.1613 -0.2164
25892W        W41361   3.202   3.746   0.039  0.0224 -0.1046 -0.0462
25893W        W41362   1.992   1.667   3.156 -0.3969  0.1361 -0.1249
25894W        W41363   8.644  10.049   5.376  0.1488  0.0520  0.0180
25895W        W41364   4.093  10.271  11.139 -0.0809 -0.0443 -0.2744
25896W        W41365   8.662  17.667   1.722  0.1772 -0.1206 -0.1589
25897W        W41366   9.964   8.075  11.572 -0.3652  0.0320  0.2090
25898W        W41367   2.341   6.695   1.234 -0.1578  0.0924  0.3198
25899W        W41368   1.594   6.346   0.495 -0.2751  0.0380  0.5156
25900W        W41369  15.943   8.568   0.110 -0.0568  0.0138  0.0034
25901W        W41370  10.583   9.955   0.841 -0.1135 -0.0316  0.1513
25902W        W41371   2.154  15.484   3.994  0.0414  0.1181 -0.0658
25903W        W41372   1.018   7.277  11.082 -0.1841  0.3145 -0.1620
25904W        W41373  13.655   7.502  15.687  0.2714  0.0826  0.1678
25905W        W41374   2.626   3.419   1.355 -0.0549 -0.4160 -0.0964
25906W        W41375   4.499   1.077  16.342  0.0792 -0.2348 -0.3107
25907W        W41376   2.899   9.189   3.644  0.1720  0.0608 -0.0594
25908W        W41377   2.554  12.487  16.041 -0.0586  0.1483  0.1244
25909W        W41378  16.204   6.418  16.509  0.1960  0.2772  0.0708
25910W        W41379   1.366   5.320  15.042  0.0783 -0.0333  0.1003
25911W        W41380   5.884   3.307   3.918 -0.2911 -0.1127  0.3846
25912W        W41381   4.590   3.363  13.783 -0.0755 -0.0996 -0.0077
25913W        W41382   9.846  16.239  16.292 -0.0797 -0.2377 -0.1342
25914W        W41383  10.637  16.981   4.472 -0.0417  0.3148 -0.0047
25915W        W41384   3.264   9.386  14.564 -0.3638  0.1410  0.1527
25916W        W41385  11.425   6.989  13.230  0.1502 -0.3110 -0.1264
25917W        W41386  10.830  14.795  14.124 -0.0681 -0.1935  0.0743
25918W        W41387  15.931  16.552   4.951  0.1316  0.4778  0.2856
25919W        W41388  10.342   1.856  16.582  0.2019 -0.0415 -0.1965
25920W        W41389  11.369  13.297   1.229  0.0822 -0.3278 -0.1109
25921W        W41390  12.071  10.432  11.853 -0.1088 -0.2398  0.1351
25922W        W41391  12.375  15.389   1.986 -0.1089 -0.1655  0.0770
25923W        W41392  13.009   6.641  14.980 -0.0733 -0.0946  0.1339
25924W        W41393  16.137   8.110   4.603  0.0990  0.2113  0.0828
25925W        W41394   7.728  15.737  13.998 -0.2077  0.0442  0.1641
25926W        W41395   1.223  11.367  13.372  0.0857 -0.0666  0.0547
25927W        W41396  16.962   6.565   4.658  0.4110 -0.1265 -0.0952
25928W        W41397  12.045   5.585   1.508 -0.1742 -0.1759 -0.0773
25929W        W41398   4.750  14.934  12.348  0.1156  0.1626  0.0482
25930W        W41399   5.668  12.184  13.266 -0.2144 -0.1854  0.2234
25931W        W41400   6.989   4.358  12.134  0.3903 -0.1680 -0.3001
25932W        W41401  14.432  16.472  15.270  0.1127  0.0227  0.0422
25933W        W41402   2.990  17.551  14.600  0.2150 -0.1614 -0.1549
25934W        W41403   9.705  12.136   0.091 -0.1441  0.1475  0.2760
25935W        W41404   1.558  17.290   2.778 -0.1170 -0.0862 -0.1753
25936W        W41405   4.482   0.050   0.413 -0.1319 -0.3439 -0.0076
25937W        W41406  11.767   9.917   0.100  0.0013 -0.0713  0.3703
25938W        W41407  14.100   4.987  12.539  0.0952 -0.2338 -0.2457
25939W        W41408   8.080   6.735  16.255  0.0186 -0.0778 -0.1645
25940W        W41409   2.270  16.890   1.058 -0.0755  0.1230 -0.2816
25941W        W41410  13.531   9.379   3.887 -0.3077 -0.1855  0.0838
25942W        W41411   5.684  14.217  12.736  0.2806  0.1772  0.0884
25943W        W41412   5.769  15.376  16.049  0.1973  0.2588 -0.2575
25944W        W41413   0.735   7.172   2.484  0.2386 -0.0111 -0.1554
25945W        W41414  10.700  16.571   4.757  0.0651  0.0894  0.0630
25946W        W41415  16.577  13.182   3.079  0.5203 -0.0462  0.2306
25947W        W41416   6.180   8.364   6.333  0.0111  0.0117  0.1391
25948W        W41417  12.813  14.592   1.875 -0.0113  0.0245 -0.0238
25949W        W41418  11.329   4.732  15.617  0.0678 -0.2612  0.3355
25950W        W41419   8.001  15.537   2.385 -0.0770 -0.2110 -0.1661
25951W        W41420   2.643   0.779  15.919 -0.3243 -0.0033  0.0058
25952W        W41421  14.394   9.574  14.243 -0.1159 -0.2312 -0.1166
25953W        W41422   4.166   1.982  15.351  0.2089 -0.1029  0.0841
25954W        W41423   3.236   9.030   4.650 -0.2949 -0.0539  0.2040
25955W        W41424  11.705   8.953  16.672 -0.0213  0.0077  0.3096
25956W        W41425  16.898  11.317   2.592 -0.0398 -0.1375 -0.1908
25957W        W41426   5.971   8.911  11.457  0.0288 -0.1414 -0.1025
25958W        W41427  15.412  13.515  11.542 -0.1882 -0.0840  0.2349
25959W        W41428  12.978   9.383  14.634 -0.0588  0.1644 -0.1049
25960W        W41429  16.535  15.578  15.928  0.2607 -0.0504  0.0778
25961W        W41430   4.496  16.575  13.075 -0.0486 -0.1759  0.0211
25962W        W41431  17.206   8.794   4.476  0.1511  0.0299 -0.0945
25963W        W41432   8.320  16.726   4.682  0.0495  0.1117 -0.0125
25964W        W41433  14.789  17.620  15.878 -0.0790 -0.0536 -0.1197
25965W        W41434  12.210   7.486  15.712 -0.1504 -0.2274  0.0159
25966W        W41435  10.670   5.208   5.584 -0.0927  0.1959 -0.1925
25967W        W41436   8.848   2.341  15.733  0.0187  0.0049  0.1242
25968W        W41437  16.047  16.427  12.401 -0.0139  0.1446  0.0407
25969W        W41438  11.433  13.387   2.684 -0.3724 -0.0173  0.0444
25970W        W41439   8.362   7.861  11.904 -0.0610 -0.2358  0.0043
25971W        W41440  15.484   5.909  16.425 -0.4742  0.1667 -0.2467
25972W        W41441   7.318   5.192   1.168  0.2336 -0.0727 -0.0413
25973W        W41442   8.393   7.955  16.740  0.0743 -0.3300  0.2518
25974W        W41443  17.665   3.146  12.744  0.2573  0.1088 -0.0452
25975W        W41444  13.981   5.688   5.572 -0.0196  0.0069  0.2058
25976W        W41445   7.901   8.993   1.695  0.1621 -0.1262 -0.0146
25977W        W41446   9.965  15.618   4.388 -0.0605 -0.0714 -0.0670
25978W        W41447  17.037  13.954  16.584  0.1041 -0.3285  0.1922
25979W        W41448  13.378  17.525  11.463  0.2445  0.1679 -0.0994
25980W        W41449  16.064   4.674  14.949 -0.0219 -0.3522 -0.0532
25981W        W41450  16.022   2.001   2.547 -0.2309  0.1236 -0.0503
25982W        W41451   9.382  11.717  14.311  0.3665  0.1349 -0.0234
25983W        W41452   6.475   4.129  16.156 -0.0527 -0.0865 -0.2277
25984W        W41453   7.255  15.906   3.428 -0.1213 -0.0793 -0.0134
25985W        W41454   5.761   0.084  12.277  0.3535  0.0623 -0.2231
25986W        W41455   6.172  15.238  15.677 -0.2448  0.3466  0.2179
25987W        W41456   7.370  17.355   4.099 -0.0003  0.0371 -0.0552
25988W        W41457   8.668  16.719   5.595 -0.0493 -0.0416 -0.0671
25989W        W41458   7.200  16.739   5.345 -0.3312  0.4574 -0.1071
25990W        W41459   2.715   8.283  15.236  0.1460 -0.2115 -0.1334
25991W        W41460  16.186   2.600   6.034  0.1858  0.0572  0.2073
25992W        W41461   6.599   6.779   5.035 -0.2494  0.0732  0.1885
25993W        W41462  13.375  13.527  13.543 -0.1400 -0.2578  0.0420
25994W        W41463  14.823  11.423   3.410 -0.3362  0.0326  0.1146
25995W        W41464   9.111   2.377  16.171 -0.0488  0.1455 -0.0334
25996W        W41465   3.353   4.253  13.797  0.0893  0.1625 -0.0709
25997W        W41466  13.429   2.085   1.081 -0.0168 -0.2953  0.4415
25998W        W41467  16.200   9.180  15.325  0.1639 -0.0138 -0.3240
25999W        W41468   4.504   8.967   2.257  0.0488  0.4505  0.0102
26000W        W41469  12.714  13.794   1.026  0.1592  0.0579  0.0236
26001W        W41470   1.934   9.198   1.359  0.2738 -0.1447 -0.1631
26002W        W41471  17.091   7.596  15.392 -0.0183 -0.1581  0.0714
26003W        W41472  10.323  10.391   0.738  0.1516  0.1245  0.0185
26004W        W41473  17.437  13.476  15.529 -0.0868  0.0238  0.1015
26005W        W41474  15.937  12.333   2.028 -0.2117  0.1874  0.1063
26006W        W41475   9.457   9.374   3.947 -0.0498  0.0092  0.0447
26007W        W41476   0.476   7.494   2.167  0.2573  0.3772  0.2429
26008W        W41477  11.301   6.518  15.555  0.0388 -0.0100  0.2807
26009W        W41478   1.275   6.851   3.117 -0.1575  0.2790 -0.0703
26010W        W41479   8.523  16.236  15.458  0.2140  0.2238 -0.0234
26011W        W41480   4.370   0.319  14.233  0.0515 -0.0543 -0.3847
26012W        W41481   8.860   0.285   0.478 -0.1773 -0.0954 -0.1427
26013W        W41482   6.589   0.199  14.938 -0.0898  0.0234 -0.2099
26014W        W41483   9.267   8.724   1.988  0.0271 -0.0688  0.1214
26015W        W41484  13.632  10.465   6.262  0.1600 -0.0899 -0.0684
26016W        W41485  11.981  14.700   0.121  0.2672 -0.1110 -0.3171
26017W        W41486  15.015  13.680  13.905  0.1639 -0.0420  0.0250
26018W        W41487   1.421  10.206  16.373  0.0971  0.0019  0.0655
26019W        W41488  13.765  16.005  11.931  0.3641  0.1243 -0.0955
26020W        W41489   8.458  15.576   4.196  0.3256 -0.0280 -0.3606
26021W        W41490  11.634   0.967  12.762  0.0584 -0.0161  0.2027
26022W        W41491   5.970  15.484  12.955  0.2175  0.0255 -0.1772
26023W        W41492  13.781  15.149  16.640  0.0587 -0.0156 -0.1753
26024W        W41493   2.851   1.957  11.969 -0.0674  0.1550 -0.2344
26025W        W41494   6.176  16.588  12.393  0.4504  0.2955 -0.2683
26026W        W41495   5.380  14.123   1.315 -0.1629  0.1378  0.1406
26027W        W41496  12.817   2.357   3.689  0.0610  0.0897 -0.0286
26028W        W41497  15.429   6.328  12.946  0.2920 -0.0593 -0.0757
26029W        W41498  16.334  13.487   2.785 -0.0604 -0.1155  0.1731
26030W        W41499  11.447   2.862  13.289 -0.0908  0.1503 -0.1086
26031W        W41500   6.535  17.607   0.656 -0.1463 -0.0704  0.0449
26032W        W41501   4.683  15.539   4.270 -0.0770  0.0287  0.1899
26033W        W41502  16.606   9.500  15.457  0.0096 -0.2500 -0.0413
26034W        W41503   0.972  13.117   1.470 -0.1137 -0.2383  0.0632
26035W        W41504   6.370   2.622   3.606  0.1482 -0.0883  0.0935
26036W        W41505   4.536  13.594   2.586 -0.3640  0.0763  0.1601
26037W        W41506   4.087   7.632  13.179 -0.3555  0.0836  0.2307
26038W        W41507   8.897   2.152  16.681  0.0477 -0.2613 -0.0268
26039W        W41508   7.969   2.551   0.019  0.0251 -0.2712  0.1080
26040W        W41509  15.908  10.777  11.364  0.1276  0.3097  0.0412
26041W        W41510   6.929  12.477   0.786  0.5236  0.2316 -0.1778
26042W        W41511   9.949   5.079   0.686  0.2738 -0.2573  0.2015
26043W        W41512  14.231  10.502  15.951  0.0723 -0.2385  0.0415
26044W        W41513  11.823   8.408  14.299  0.1856  0.2549 -0.0892
26045W        W41514   9.022   2.407   4.397 -0.1088 -0.0286 -0.2795
26046W        W41515  11.711   7.978  16.128  0.2468  0.1067 -0.1692
26047W        W41516  10.574   9.597   5.726  0.1956 -0.0744  0.0282
26048W        W41517  13.861   2.205  13.058 -0.0343 -0.1339  0.1328
26049W        W41518   7.731  15.041  12.549 -0.0282  0.2281 -0.0773
26050W        W41519  11.221  15.262   4.394  0.0253  0.1360  0.1841
26051W        W41520   0.029   7.695  11.433  0.2933  0.0468  0.0655
26052W        W41521   8.513   3.907   0.119  0.0421 -0.1558 -0.3438
26053W        W41522  12.352  12.074  11.712  0.1498  0.0647 -0.1517
26054W        W41523   1.736  11.707   1.006  0.1225 -0.1826  0.0105
26055W        W41524  12.043   7.119   4.360  0.0727  0.1810  0.1666
26056W        W41525   4.725   5.122  14.366 -0.3023 -0.0036  0.0684
26057W        W41526  16.208   0.476  12.596  0.1001 -0.1182  0.0823
26058W        W41527   3.036  10.083   4.073  0.0748 -0.1494  0.1194
26059W        W41528  12.535  15.525   5.215  0.2026 -0.1574 -0.0686
26060W        W41529   2.775  13.547   1.076  0.3361  0.1498 -0.1019
26061W        W41530  14.857  13.234   2.100 -0.0295  0.2254  0.1893
26062W        W41531  10.116  14.750  12.618 -0.0989 -0.0549 -0.0790
26063W        W41532  17.585   3.442  15.887 -0.0984  0.1299  0.0276
26064W        W41533  11.316  16.388  11.839 -0.0793  0.0502  0.1664
26065W        W41534  13.073   7.169   0.528  0.1850  0.1593  0.2281
26066W        W41535   3.511   4.754   1.256  0.0960 -0.1422  0.1423
26067W        W41536   3.157  10.234  13.901 -0.2543 -0.0257  0.0820
26068W        W41537  15.913   1.462  15.593  0.0707 -0.1234 -0.0681
26069W        W41538   9.674  16.051   4.866 -0.1049  0.1447 -0.0507
26070W        W41539  11.942   7.182   5.400  0.0930 -0.0101  0.1762
26071W        W41540  14.742  14.082   1.445  0.2484 -0.2144  0.1502
26072W        W41541   3.965  12.073  12.845 -0.4605  0.1416 -0.1451
26073W        W41542  10.766  15.373  12.709 -0.1236 -0.4217 -0.3109
26074W        W41543   7.622  17.018   4.351  0.0250  0.0082 -0.2801
26075W        W41544  11.244   9.878  13.107 -0.0585  0.1971 -0.0259
26076W        W41545   0.930  15.158  15.889  0.2606  0.2407 -0.1842
26077W        W41546  10.411   6.739  16.834 -0.0540  0.0120 -0.3125
26078W        W41547   1.480   2.998   3.207  0.1642 -0.1819 -0.3409
26079W        W41548   3.962   4.461   5.503 -0.0291  0.0097 -0.2292
26080W        W41549   2.762  14.822  11.381 -0.1896 -0.0134 -0.0542
26081W        W41550   2.547   8.692   3.320 -0.0048  0.0490 -0.1434
26082W        W41551  12.736   5.023   4.011 -0.1821 -0.0643 -0.3261
26083W        W41552  17.088   8.830  12.495 -0.2276  0.1341  0.0144
26084W        W41553   4.015  13.229  11.905  0.1203  0.2133  0.1353
26085W        W41554   7.161  11.554  13.457 -0.1176  0.0693  0.3031
26086W        W41555  12.350  12.684  15.906  0.0319 -0.1168 -0.0581
26087W        W41556   3.534   7.802  15.697 -0.0019  0.0148  0.0967
26088W        W41557  12.125   5.505   5.064  0.1028 -0.3954  0.2260
26089W        W41558   3.111   4.114   0.435 -0.2327 -0.0261 -0.3110
26090W        W41559   2.013  12.582   4.555 -0.0961 -0.1702  0.0592
26091W        W41560  14.560   6.888   2.403 -0.2035 -0.3763 -0.0943
26092W        W41561  16.309   7.071  14.407 -0.0128  0.4555 -0.1107
26093W        W41562  15.089   3.510  13.674  0.2309 -0.0290  0.1980
26094W        W41563  14.556   2.487  13.004  0.0807  0.1161  0.0803
26095W        W41564  16.954   9.030  16.441 -0.2906 -0.3630 -0.1521
26096W        W41565   8.997   9.018   4.099  0.1719  0.0702 -0.4461
26097W        W41566   9.583   9.409  13.961  0.3088  0.0263  0.0221
26098W        W41567   7.177  15.768   2.359 -0.1579  0.2014  0.2250
26099W        W41568   6.855   6.416   5.288  0.3180 -0.0921 -0.0159
26100W        W41569  15.251  15.936   1.347 -0.1495 -0.2180  0.0453
26101W        W41570  16.865   3.356  14.983 -0.1040 -0.1143  0.1786
26102W        W41571  10.583  15.730  15.830 -0.2033 -0.0584  0.0992
26103W        W41572   2.595   8.009  11.064  0.1227 -0.0569  0.2158
26104W        W41573  15.680  10.779   2.339 -0.0913 -0.0638 -0.1215
26105W        W41574   6.419  16.453   3.251 -0.3078 -0.2438  0.0984
26106W        W41575  14.964  14.364   0.103 -0.1522  0.1617 -0.0137
26107W        W41576   8.958   3.351   1.132 -0.1186  0.3500  0.3644
26108W        W41577  15.646   0.122   3.573  0.2043 -0.2201  0.2428
26109W        W41578  12.844  13.819  16.018 -0.2621 -0.0124  0.2200
26110W        W41579   6.044  12.251   1.176 -0.2280  0.3384  0.1629
26111W        W41580  12.186  14.583   0.979 -0.2069  0.0835 -0.0397
26112W        W41581   8.012  10.741  15.576  0.1254  0.0223 -0.0445
26113W        W41582  16.309  12.147   5.284 -0.0483 -0.3571  0.1201
26114W        W41583  14.807   5.117  13.891 -0.1751 -0.1592  0.0233
26115W        W41584  15.336   0.619   5.325  0.1450  0.0836  0.2734
26116W        W41585  17.059   2.594  13.284 -0.0323  0.1661  0.0419
26117W        W41586   1.796  14.309   4.201 -0.1386  0.1251 -0.3665
26118W        W41587  13.168  14.776   0.298  0.1875  0.0435  0.0834
26119W        W41588   0.942   2.974  15.104  0.1314 -0.1662 -0.0266
26120W        W41589   8.522  10.412   5.010 -0.3493 -0.2461 -0.1499
26121W        W41590  12.108  11.946   3.363 -0.1838  0.3175 -0.1134
26122W        W41591  10.694  10.833   3.520 -0.0129 -0.1707 -0.3639
26123W        W41592   1.054   3.382  13.890  0.0141  0.1665  0.1494
26124W        W41593  13.808  17.587   5.372 -0.0816  0.3106  0.1550
26125W        W41594   0.920   3.432  11.722  0.1454 -0.0103 -0.1585
26126W        W41595   0.517   8.536   4.615 -0.0619 -0.1162  0.2446
26127W        W41596   0.512  13.569   5.361  0.3319  0.1410 -0.0700
26128W        W41597   2.297   2.258  13.147  0.1901  0.1986 -0.1531
26129W        W41598   3.496  10.980  16.153 -0.1939  0.0613 -0.1671
26130W        W41599  17.049   6.717   3.022 -0.0574  0.3277 -0.0224
26131W        W41600   4.723  12.249   1.420  0.1980  0.3807  0.0253
26132W        W41601   9.004   7.172   1.826 -0.0880  0.5382 -0.0427
26133W        W41602   9.283   1.920   4.508 -0.0587 -0.2547  0.0260
26134W        W41603  12.522   1.508   3.016 -0.1997 -0.0120  0.0009
26135W        W41604  15.171   4.753   2.410  0.0120 -0.0613  0.0452
26136W        W41605   4.094  14.562  16.515 -0.1184  0.0517 -0.0189
26137W        W41606   0.412   1.970  16.186  0.3635  0.1924 -0.2356
26138W        W41607  12.051   0.319   4.298  0.1762 -0.0179 -0.1128
26139W        W41608  13.304   2.651   2.774 -0.0579 -0.2305 -0.1067
26140W        W41609   8.922   8.382  14.677 -0.1015 -0.1425  0.0191
26141W        W41610   1.689   5.693   2.383  0.0575 -0.0655  0.2129
26142W        W41611  15.600   4.650   0.146  0.2121  0.3008 -0.1657
26143W        W41612  13.944   4.716  16.417  0.3988 -0.1487  0.3414
26144W        W41613   7.806   4.120   1.671  0.0666 -0.0890  0.0625
26145W        W41614   1.737   7.076  12.426  0.4024  0.1425  0.0109
26146W        W41615   0.590   4.771  11.633 -0.0897  0.0338 -0.1490
26147W        W41616   7.576  12.805  16.287 -0.2581 -0.1983 -0.3204
26148W        W41617   1.391  12.689  11.316 -0.2674 -0.4242  0.0039
26149W        W41618   3.035  11.716  11.471  0.1153 -0.2183  0.0393
26150W        W41619  11.051  10.907   1.386  0.3348 -0.0163 -0.0046
26151W        W41620   1.241   1.747  16.418  0.2841 -0.0797 -0.0866
26152W        W41621  17.072  14.109   5.786 -0.2142 -0.4605  0.0307
26153W        W41622   0.981   9.391  13.310  0.0603  0.0798  0.2468
26154W        W41623   6.162  13.575   1.122  0.0256  0.0855  0.1427
26155W        W41624  12.162  16.729   2.571 -0.2277 -0.0356  0.1392
26156W        W41625  13.101  13.883   5.966  0.0955 -0.0415 -0.1107
26157W        W41626   9.437   7.971  13.805  0.0885 -0.0802  0.0883
26158W        W41627  12.822   6.924  15.434 -0.2225  0.2649  0.0412
26159W        W41628  16.310   3.161  16.000  0.2344  0.0548 -0.0276
26160W        W41629   1.675  11.605   0.079 -0.2227  0.2543 -0.2229
26161W        W41630   5.378   2.269   5.573  0.0145 -0.2408  0.2391
26162W        W41631   6.452   6.343   1.078 -0.1544 -0.1055 -0.0563
26163W        W41632   0.667  11.268  15.273  0.3224  0.1693  0.0737
26164W        W41633   4.690   1.252  15.502  0.1739  0.1453  0.0526
26165W        W41634   0.599  16.677   4.972  0.0440 -0.1022  0.2347
26166W        W41635  13.405  12.358  13.632 -0.1730 -0.2424  0.1755
26167W        W41636   6.971   7.777  14.229  0.2813  0.4251  0.0548
26168W        W41637   7.175   9.294  14.388  0.2120  0.2807 -0.2064
26169W        W41638   2.884   5.151  15.038 -0.2086  0.2656 -0.1267
26170W        W41639  10.145   4.397  14.560  0.1051  0.1555  0.0165
26171W        W41640  10.697  13.982   2.351  0.1400  0.1356 -0.2631
26172W        W41641   8.084  12.784   4.927  0.3895 -0.0022 -0.0988
26173W        W41642   9.019  12.728   5.060  0.2678 -0.0392 -0.0409
26174W        W41643   1.609  11.477   4.614  0.4090  0.0237 -0.2479
26175W        W41644  11.821   1.562  15.089  0.1835  0.0184  0.0684
26176W        W41645   9.212  15.160  13.507  0.0798  0.0624 -0.3358
26177W        W41646   2.684  10.405  13.604  0.0934  0.1095 -0.3599
26178W        W41647   8.415   1.856  16.643  0.0035  0.0968 -0.1730
26179W        W41648   6.411  13.218   0.680 -0.0539  0.2274 -0.2984
26180W        W41649  11.974  13.149  14.568 -0.1988  0.2450  0.0195
26181W        W41650   7.459   6.520   5.153  0.1830  0.1409  0.0593
26182W        W41651   0.460   9.841  10.961  0.2059 -0.0185 -0.0568
26183W        W41652   7.245   9.787   3.661  0.0533 -0.0822 -0.2724
26184W        W41653   0.175  14.963  11.638  0.2172 -0.2317  0.1289
26185W        W41654  15.281   2.579   0.881 -0.3519 -0.0037  0.1564
26186W        W41655   9.725   7.453   4.258 -0.1719  0.0243 -0.2641
26187W        W41656  15.268  14.392  12.602 -0.0027  0.0637  0.0883
26188W        W41657   3.846   1.341   3.450 -0.1728  0.1232 -0.0765
26189W        W41658   5.687   8.630   1.773 -0.2254 -0.2333  0.2112
26190W        W41659  17.592  16.464   5.235 -0.1224  0.1936  0.0427
26191W        W41660   0.493   6.246  10.227  0.1218  0.0896  0.0337
26192W        W41661   4.680   4.752   5.659 -0.3025 -0.1049  0.2552
26193W        W41662   5.809   9.561  10.378  0.0211  0.1931 -0.1271
26194W        W41663  16.044  17.359   4.027  0.1284  0.2332 -0.1753
26195W        W41664   3.828  15.385  12.714  0.1166  0.0749 -0.1054
26196W        W41665  11.862   6.799   3.567 -0.2386  0.2906  0.0617
26197W        W41666   1.763   3.450   4.104 -0.1828  0.0517  0.0113
26198W        W41667   8.566   0.829  12.315 -0.2450 -0.2970 -0.4905
26199W        W41668  14.960  17.718  15.387  0.1301  0.1512 -0.0788
26200W        W41669   8.798   5.661   0.767 -0.1747  0.2188  0.1413
26201W        W41670   1.466  11.117  16.099 -0.2544 -0.1403 -0.0590
26202W        W41671   4.056   8.971  14.205  0.3014  0.4974  0.0267
26203W        W41672  10.414  14.322   0.247 -0.0251  0.1621  0.1284
26204W        W41673   7.959   8.928   2.183  0.3005  0.0395 -0.4344
26205W        W41674   6.552  12.508  15.461 -0.0951 -0.2345 -0.4226
26206W        W41675   1.987   7.739  12.309 -0.2146  0.0982  0.0346
26207W        W41676  13.380   1.690  14.431  0.0357  0.0504 -0.1046
26208W        W41677  14.288   4.052  15.645  0.0216  0.2522 -0.0088
26209W        W41678  15.650   2.785   2.807 -0.1318 -0.0352 -0.3376
26210W        W41679   3.976   5.144  11.560  0.4199  0.1038  0.1387
26211W        W41680  14.756   2.519   1.640 -0.1242  0.0761 -0.3013
26212W        W41681   5.488  12.857   2.998  0.0619 -0.1093 -0.0253
26213W        W41682  13.974  10.089  12.193  0.1327  0.1237 -0.2608
26214W        W41683   8.360   6.047  14.841  0.0402  0.0115 -0.3521
26215W        W41684   8.063  10.200   0.767 -0.0207  0.3096  0.1342
26216W        W41685  14.592  10.695   1.496  0.0675 -0.1577  0.0123
26217W        W41686  12.123   4.288   0.642 -0.2769 -0.3791 -0.0509
26218W        W41687  16.930   5.989  11.387 -0.2003 -0.4253 -0.1279
26219W        W41688   9.516  11.545   0.678 -0.0421 -0.2287  0.3710
26220W        W41689   3.141  11.515   1.463 -0.3542 -0.3526  0.0764
26221W        W41690  11.167   7.304  16.704  0.0803  0.0285 -0.1849
26222W        W41691   1.922  13.116   3.316 -0.2054  0.0840  0.2865
26223W        W41692   7.046   1.498   4.681 -0.0351 -0.1432 -0.0988
26224W        W41693   8.839   3.139   4.787 -0.0702 -0.1038  0.0257
26225W        W41694   8.372   2.721   3.058  0.2085 -0.1282 -0.1960
26226W        W41695   1.723   3.386   0.295  0.0405  0.0089 -0.3211
26227W        W41696  17.734   2.960   4.520 -0.2451 -0.1663 -0.1484
26228W        W41697  11.940  17.264  15.756  0.0837 -0.1889  0.1048
26229W        W41698  12.831   0.788   0.101 -0.1323  0.3443  0.2056
26230W        W41699  15.065  17.424  11.800 -0.1645  0.1045 -0.1304
26231W        W41700   9.957   1.959   3.163  0.4042  0.3260  0.2435
26232W        W41701  14.475   2.005  14.186 -0.1529 -0.2325  0.3273
26233W        W41702   3.186   3.420  11.207 -0.1239 -0.1280  0.1527
26234W        W41703   5.062  15.304  12.529  0.4980  0.1000  0.4286
26235W        W41704  10.810   5.023   0.382  0.1370  0.0266  0.2361
26236W        W41705  15.585  16.190   2.369 -0.0186  0.0542  0.0789
26237W        W41706   8.297  13.148  16.754  0.0472 -0.2260  0.2412
26238W        W41707  15.193   2.090   0.079 -0.1279  0.0200 -0.1176
26239W        W41708   6.220   2.065  13.097  0.0943 -0.1967  0.0483
26240W        W41709  17.386  16.255  13.158 -0.1273  0.0787 -0.1756
26241W        W41710   0.480   7.179   4.988 -0.3702  0.1276  0.0721
26242W        W41711   2.839   0.377   5.648  0.1070 -0.0771 -0.1975
26243W        W41712  16.331  14.491   2.458  0.0950 -0.3049 -0.0837
26244W        W41713  16.231  10.977  13.001  0.1242  0.1357  0.0470
26245W        W41714  16.582  17.480   0.600  0.0051 -0.0736  0.3025
26246W        W41715   4.323   4.191  13.238  0.0693 -0.5037 -0.0120
26247W        W41716  15.823  12.085  13.693  0.1390  0.2554 -0.1310
26248W        W41717   1.274   5.854  15.174  0.1901 -0.0749 -0.1234
26249W        W41718   2.342   8.482  14.993  0.0255  0.0812  0.0701
26250W        W41719   6.734   6.478   5.790  0.2894 -0.0699  0.0426
26251W        W41720   2.347  14.955  14.980 -0.1654 -0.0385  0.2712
26252W        W41721  14.598  11.170  13.423  0.1555  0.1167  0.2603
26253W        W41722   4.735  13.732  12.760  0.0399  0.0481 -0.1701
26254W        W41723  12.466  16.049   3.901 -0.2834 -0.0730 -0.0400
26255W        W41724  14.111  14.637   4.058  0.1121 -0.0777 -0.1193
26256W        W41725  16.175   8.050   4.066 -0.1550 -0.2738 -0.1197
26257W        W41726  10.688   9.278  12.285 -0.3043  0.0073  0.0254
26258W        W41727   8.204  15.206  12.462  0.0875 -0.1259  0.0887
26259W        W41728   7.421   3.504   1.798 -0.1104 -0.1103 -0.0938
26260W        W41729   1.211  10.347  12.635  0.0076  0.2072  0.4771
26261W        W41730  15.013   1.218  16.511 -0.0969  0.3292 -0.0395
26262W        W41731   7.517  17.157  16.712  0.1751  0.0732  0.0982
26263W        W41732   3.541  15.085   4.069 -0.0054 -0.1876 -0.1312
26264W        W41733   9.975  12.761  12.017  0.0097  0.1497  0.0576
26265W        W41734  12.831  10.787  12.408 -0.2180 -0.3452  0.2386
26266W        W41735   5.121   0.751  12.594 -0.1529 -0.1183 -0.0759
26267W        W41736  14.589   6.227  15.435 -0.1552 -0.1753 -0.1661
26268W        W41737   3.001  11.372   3.322  0.0189  0.2271 -0.0596
26269W        W41738   1.060  11.194   4.529 -0.0655  0.0811 -0.0911
26270W        W41739  17.441   0.908   2.582  0.2059  0.2731  0.1353
26271W        W41740   4.028   9.009  11.160 -0.0185 -0.0055 -0.2705
26272W        W41741  14.913   1.415  11.325 -0.0398  0.3319 -0.2719
26273W        W41742   9.258   9.359  12.194  0.1129 -0.2339  0.0892
26274W        W41743  17.190   0.232   4.275  0.1345 -0.1879  0.1957
26275W        W41744   9.721  15.054   2.103 -0.1200  0.1416  0.1614
26276W        W41745  12.929   3.418  16.044  0.0164  0.2632  0.0490
26277W        W41746  16.355   5.043  15.130  0.3805 -0.1303 -0.1330
26278W        W41747   4.636   4.275  12.082 -0.1548 -0.0564 -0.2920
26279W        W41748   5.292  15.014   2.656  0.0069  0.0144  0.2848
26280W        W41749  17.233  12.288  16.553 -0.1631  0.0263  0.0854
26281W        W41750  13.671   7.359   2.593  0.1811  0.0810 -0.0382
26282W        W41751   3.579   2.771   1.321  0.0766  0.2077  0.2207
26283W        W41752   7.075  15.086   3.846 -0.2683  0.0311  0.1146
26284W        W41753   5.532  15.388   1.785 -0.2877 -0.2323  0.4899
26285W        W41754  11.555   5.690  15.273  0.0005 -0.2178 -0.1298
26286W        W41755   0.202   6.976  16.211  0.1454  0.1999 -0.0202
26287W        W41756   3.787   7.873   2.533 -0.0334  0.1206  0.2847
26288W        W41757   1.065   7.856  15.146 -0.0478  0.0987  0.0488
26289W        W41758   3.498  10.119   3.836  0.1857  0.1173  0.1409
26290W        W41759   8.664  14.478   5.105  0.1013  0.0122  0.3362
26291W        W41760  12.400   5.970   1.484  0.0482  0.0185  0.2272
26292W        W41761   7.766  10.182   0.346  0.2449  0.3138  0.0500
26293W        W41762  12.017   1.718  16.196  0.0259 -0.1765  0.3571
26294W        W41763   5.144   5.509  12.208 -0.0934  0.3564 -0.2406
26295W        W41764   6.314   4.914  12.335  0.0776 -0.3086 -0.1978
26296W        W41765   2.581  12.399  11.880 -0.2051 -0.1792 -0.0917
26297W        W41766  16.300   1.972   2.047  0.0382 -0.2082  0.0188
26298W        W41767  10.075   4.772   3.534  0.0548  0.1843 -0.0192
26299W        W41768  17.634   9.551  10.986 -0.0154  0.1096 -0.1831
26300W        W41769  10.406   2.688  12.571  0.0364  0.0149  0.0862
26301W        W41770   3.029  10.334  16.050 -0.1237 -0.0250 -0.4504
26302W        W41771   4.989   8.371  12.670 -0.1343  0.0189  0.1020
26303W        W41772   0.340  15.773  12.298  0.1132 -0.2630 -0.0191
26304W        W41773   4.212   2.841   5.846  0.2250 -0.2177 -0.0171
26305W        W41774  13.482   0.924  16.068  0.1346 -0.0191  0.0856
26306W        W41775  14.109  12.100   1.089 -0.0187 -0.1637  0.1817
26307W        W41776  10.786   0.546   3.819 -0.0402  0.1689  0.0087
26308W        W41777  12.344   4.383   5.518  0.2387  0.0776 -0.2904
26309W        W41778  11.018  14.689  15.065  0.2778 -0.2416  0.0381
26310W        W41779  14.096   8.702  11.500  0.1212  0.0009 -0.0155
26311W        W41780   9.334  12.279   1.112 -0.1926  0.0897  0.2443
26312W        W41781   9.076  12.103   5.580 -0.1609 -0.0258  0.3347
26313W        W41782   7.538   3.212   4.737  0.2817 -0.2683 -0.1642
26314W        W41783   4.416   4.740   1.474  0.2685  0.0032 -0.0654
26315W        W41784   6.156  13.851  15.405  0.0250 -0.0536  0.0028
26316W        W41785  11.796  14.467  14.833 -0.0496  0.3275  0.0153
26317W        W41786  10.403  15.792   1.763  0.0099 -0.1522 -0.2079
26318W        W41787  17.102   1.640  13.625  0.1081 -0.0145  0.1833
26319W        W41788  12.912  11.721   1.622  0.0274 -0.0548 -0.2082
26320W        W41789  11.242  14.545   0.829 -0.0269 -0.3191  0.1839
26321W        W41790  13.598  14.366  13.753  0.0074  0.0393  0.3195
26322W        W41791   8.052   8.422   0.515 -0.1712  0.0465 -0.0098
26323W        W41792  16.365   4.455  12.100  0.2309  0.1909 -0.2424
26324W        W41793   4.287  13.947  11.294  0.0766 -0.0478  0.0833
26325W        W41794   0.026  12.515   2.713 -0.0259 -0.1091 -0.3668
26326W        W41795   7.609  10.419  14.382  0.3198 -0.0034  0.3158
26327W        W41796   6.646  17.718  16.722 -0.4600  0.0681  0.0232
26328W        W41797   8.368  13.692   6.743 -0.0488 -0.2468  0.0457
26329W        W41798  13.940   1.604  14.152  0.2256  0.0413 -0.0313
26330W        W41799   9.854  11.091   0.224 -0.2530  0.1109  0.0201
26331W        W41800  10.000   6.109  13.570 -0.0901  0.3354 -0.0088
26332W        W41801  17.014   2.057  16.621 -0.0058  0.1249 -0.2452
26333W        W41802  12.086  11.674   1.546  0.3132 -0.0003  0.0164
26334W        W41803   0.563  13.685  11.928 -0.2285 -0.0005  0.0341
26335W        W41804   8.018   8.300  14.803  0.1248 -0.0279  0.2747
26336W        W41805   0.698   4.342   2.087  0.0347  0.0007  0.0595
26337W        W41806  11.300  11.106  11.987 -0.0790  0.3037  0.1241
26338W        W41807   7.847  15.280   1.573 -0.2959  0.0820 -0.0582
26339W        W41808  14.395   8.885   6.476 -0.0380  0.0600  0.1130
26340W        W41809  14.180  15.708   3.169 -0.1838 -0.0317  0.1177
26341W        W41810  15.458   0.506  15.242 -0.0295  0.0356  0.0932
26342W        W41811   0.357   6.903   2.225  0.1331  0.0573  0.1057
26343W        W41812   1.942  13.156  16.173  0.2386 -0.2062  0.1762
26344W        W41813  11.197   5.581   4.179  0.2115  0.0716  0.0248
26345W        W41814   5.154   6.960   3.336 -0.0689 -0.3610 -0.0154
26346W        W41815   3.322   9.228  12.803 -0.0062 -0.3926 -0.2167
26347W        W41816   3.240   1.699  13.282 -0.2486 -0.1202 -0.0433
26348W        W41817   0.516  12.795  11.371  0.2535 -0.0946  0.2790
26349W        W41818   2.824   6.104  16.073  0.0011  0.1016 -0.4193
26350W        W41819  17.138   8.889   0.206  0.0528 -0.1987 -0.0837
26351W        W41820   0.607   6.850   5.344 -0.0408 -0.2244 -0.0933
26352W        W41821   8.702  17.080   1.382  0.1352  0.0560  0.0916
26353W        W41822   5.248  14.824  13.280  0.2510  0.2455  0.2094
26354W        W41823   2.204   2.217  14.343  0.2475 -0.1226  0.0895
26355W        W41824   9.594  13.178   5.829  0.1387 -0.1448  0.0656
26356W        W41825   8.702  14.176  13.782  0.0676  0.2696 -0.0704
26357W        W41826  11.501   5.335   2.312  0.2402 -0.0772  0.1079
26358W        W41827  16.184  12.170   2.472  0.3470  0.3007  0.1408
26359W        W41828  15.497   8.065  13.249  0.0880 -0.0193 -0.2553
26360W        W41829  12.900   8.405  13.203  0.2229 -0.0626 -0.1389
26361W        W41830   7.861   2.490   3.192  0.2737  0.1101  0.0425
26362W        W41831  12.916   8.429   4.924 -0.1468  0.1406  0.0222
26363W        W41832  10.824   1.917   3.280 -0.0161 -0.3285  0.0454
26364W        W41833  15.187   4.237  13.404  0.0406 -0.1436  0.0071
26365W        W41834   2.251  14.139   5.651  0.1066  0.0136  0.0779
26366W        W41835   4.692  13.784   1.425  0.1182  0.0754 -0.1325
26367W        W41836   0.018  14.927  15.569  0.1957  0.2196  0.2242
26368W        W41837   7.758   8.933   1.229  0.3246 -0.0725 -0.1049
26369W        W41838   2.235  14.457  13.488 -0.1595  0.0057 -0.1320
26370W        W41839  14.544  15.554   4.689  0.0804 -0.0921 -0.0315
26371W        W41840   9.216   1.948   3.142 -0.0961 -0.0660  0.5458
26372W        W41841  13.989  13.772   1.551  0.4631 -0.0453 -0.2375
26373W        W41842   3.852  12.557   4.398  0.0739 -0.0582 -0.1838
26374W        W41843   5.495  17.271  15.924 -0.3118 -0.1629 -0.2273
26375W        W41844   2.986  10.162  10.238  0.0748  0.2802 -0.3952
26376W        W41845  15.672  14.186  10.313  0.1428  0.3546  0.3552
26377W        W41846  16.871  10.568   1.120  0.1026  0.1761  0.7032
26378W        W41847  15.912   0.304   3.074 -0.0942 -0.0583 -0.1473
26379W        W41848   1.746   2.840  13.824 -0.0906  0.2968 -0.1987
26380W        W41849  11.981   6.733  12.348  0.0141  0.1520  0.4376
26381W        W41850  11.622   3.119  12.163 -0.1477 -0.0205 -0.0371
26382W        W41851   8.959  14.068   4.965  0.0847 -0.1182  0.3025
26383W        W41852  16.090  12.549   3.739  0.0662  0.3641  0.0892
26384W        W41853   3.272  12.586  16.593 -0.0026 -0.4124  0.4270
26385W        W41854   6.789  12.696   4.514 -0.2114 -0.0405 -0.3843
26386W        W41855  10.853  11.481  15.152 -0.0912 -0.1306  0.5542
26387W        W41856   3.514   4.534  13.243 -0.1738  0.0065  0.2467
26388W        W41857  17.571  11.540  12.720 -0.2913 -0.1396  0.1847
26389W        W41858  11.433  13.430  16.053  0.3255 -0.0762 -0.2511
26390W        W41859  12.065  12.376   0.678  0.2158 -0.1093 -0.3714
26391W        W41860   2.996  10.023  11.048  0.1712  0.0899  0.0182
26392W        W41861  14.284   6.340   3.306  0.1075 -0.0206  0.5011
26393W        W41862   1.186   2.946   4.663  0.0889  0.2179 -0.0240
26394W        W41863   6.686  10.200   4.683  0.1281  0.1149  0.0056
26395W        W41864  14.246  15.630  11.735 -0.1426 -0.0744  0.1237
26396W        W41865  16.108  16.360   0.024  0.1083 -0.1282 -0.4634
26397W        W41866   3.609  13.019  13.617 -0.2972 -0.0318 -0.0363
26398W        W41867  10.711   1.481  12.123 -0.3556 -0.0694  0.1568
26399W        W41868   1.703   2.689   0.382  0.0610 -0.0530 -0.0150
26400W        W41869   4.855   0.086  11.934  0.0552  0.2067 -0.1476
26401W        W41870  13.509   4.391   5.732 -0.0168 -0.0340  0.0586
26402W        W41871   1.201   6.507   0.838  0.0696 -0.0169 -0.0093
26403W        W41872  10.345   5.029  16.726 -0.0335 -0.1352  0.0379
26404W        W41873  11.527   2.397  13.558  0.2471  0.0009  0.0600
26405W        W41874   8.275   3.216  15.637 -0.3533  0.1857 -0.3574
26406W        W41875  13.807  12.778  11.953  0.4342 -0.1725  0.1026
26407W        W41876  10.050  12.736  14.346  0.0618  0.0692 -0.1533
26408W        W41877   0.112   3.732   3.723  0.1329 -0.0639 -0.1642
26409W        W41878   5.431   1.913  15.628 -0.0163 -0.3688  0.0479
26410W        W41879  13.316  16.868   1.178 -0.0018  0.0486  0.0047
26411W        W41880  10.499   8.323   0.087 -0.0427  0.0147 -0.0327
26412W        W41881   2.128   7.873  11.069 -0.0918 -0.2270  0.2034
26413W        W41882   8.768   3.093   0.101  0.3899  0.2106 -0.0037
26414W        W41883   6.844  16.852  16.759 -0.0574  0.0992 -0.3828
26415W        W41884  12.496   6.958  12.326 -0.0343 -0.0268 -0.0811
26416W        W41885  11.596  15.155   3.443 -0.0168 -0.4207  0.0764
26417W        W41886   9.611   0.185   5.397  0.1404 -0.3409  0.0846
26418W        W41887   9.219   9.937   6.130 -0.3977  0.1430  0.2171
26419W        W41888   8.810  12.377  11.677  0.1256  0.2702 -0.1021
26420W        W41889  16.579   9.497  13.514  0.0664 -0.0723  0.0987
26421W        W41890   6.800  11.249  16.603 -0.1912  0.0067  0.0626
26422W        W41891  14.461  17.533   2.324  0.0426  0.0844 -0.0364
26423W        W41892  10.600   9.912  14.511 -0.4129  0.1190  0.1308
26424W        W41893   5.160  17.114  11.463 -0.2116 -0.3952 -0.2498
26425W        W41894  15.719  16.736   0.152  0.1811  0.0445 -0.0296
26426W        W41895  14.279  16.240  14.809  0.2124 -0.0927 -0.0528
26427W        W41896  12.489  14.552   4.974 -0.2157  0.2607 -0.0793
26428W        W41897   2.568  11.093  14.639 -0.0513  0.0015  0.0203
26429W        W41898  17.033  14.085  10.995  0.2860 -0.2165 -0.2845
26430W        W41899   2.098   2.502  12.029 -0.1034 -0.0328 -0.1261
26431W        W41900  16.979  14.343   5.173  0.1519 -0.1216  0.0732
26432W        W41901  12.313  16.511   1.543 -0.5089  0.2165 -0.1009
26433W        W41902   6.803   7.608  15.612  0.0095 -0.1925  0.0733
26434W        W41903  12.541   4.844   5.416 -0.0917 -0.0717  0.0400
26435W        W41904  15.933   2.624   5.150  0.1643 -0.1649  0.0039
26436W        W41905   3.261  16.224   1.510  0.0348 -0.1447  0.2382
26437W        W41906  16.152  10.948   3.562  0.0754 -0.0542 -0.0651
26438W        W41907   6.555   2.697   2.202 -0.2027  0.0239 -0.0505
26439W        W41908   5.384  13.138  16.269  0.0445  0.1314  0.1758
26440W        W41909   8.674  14.470   6.307 -0.0038  0.0450 -0.1621
26441W        W41910  13.490  12.504   1.290  0.0794  0.0789  0.3553
26442W        W41911  10.791   2.354   4.956  0.2416 -0.1372  0.3469
26443W        W41912  16.589  13.034   2.238 -0.0570 -0.1924 -0.2457
26444W        W41913  17.294   0.484  10.926  0.4411 -0.0989 -0.2669
26445W        W41914  14.759   1.343  15.857  0.0346  0.0290  0.2623
26446W        W41915  14.850  17.629   4.225 -0.0845  0.1263  0.0630
26447W        W41916   4.897   8.819   3.877  0.0484 -0.3507 -0.1259
26448W        W41917  11.866  10.818   2.390 -0.1823  0.0842  0.2025
26449W        W41918   7.302   6.601  13.464  0.1385 -0.1190 -0.2186
26450W        W41919  16.112  15.323  13.764  0.0761 -0.0887 -0.1043
26451W        W41920  13.684  11.163  11.076 -0.1139 -0.1378  0.2275
26452W        W41921  17.261   4.172  11.198  0.2585  0.1749  0.2701
26453W        W41922   6.411  12.490  14.205 -0.0194 -0.1258 -0.1756
26454W        W41923   8.972  17.257   2.473  0.0837 -0.2837  0.0174
26455W        W41924  10.323   8.423   6.256  0.1867  0.1147 -0.0807
26456W        W41925  12.617   9.819  16.119  0.4012 -0.1537 -0.3598
26457W        W41926   3.241   2.243   0.114  0.1656  0.0184 -0.1503
26458W        W41927   7.198  17.105   0.272 -0.0004 -0.1036 -0.3674
26459W        W41928   1.719  14.676   3.896 -0.1786 -0.1661  0.2033
26460W        W41929   6.270  16.420   4.149 -0.0377  0.3121  0.0818
26461W        W41930  10.262   7.917  12.455  0.0446 -0.0092  0.2472
26462W        W41931   9.127  12.547   1.863 -0.0856 -0.1070 -0.1484
26463W        W41932  14.442   7.336  14.427  0.1653 -0.0767 -0.1980
26464W        W41933  11.972   7.736  11.401  0.1378 -0.2014 -0.1503
26465W        W41934   4.754   6.858   2.003  0.1779 -0.1146  0.1335
26466W        W41935   2.800   1.577   2.246 -0.2115  0.1984 -0.0404
26467W        W41936   4.205   0.591  13.814 -0.2707  0.1823 -0.3793
26468W        W41937  11.963   4.924   2.733 -0.1051  0.2161  0.0027
26469W        W41938   4.268  11.441   0.052 -0.0448 -0.0126  0.0255
26470W        W41939  16.309  17.341  14.640  0.1142 -0.0073 -0.0655
26471W        W41940  15.244  10.908   2.492 -0.2260 -0.0706 -0.0952
26472W        W41941  10.087  12.263  12.104  0.0234 -0.3197  0.0362
26473W        W41942   6.126   2.422   1.962 -0.3423 -0.0614  0.3653
26474W        W41943  14.365  16.718  14.396 -0.1919  0.1242  0.1377
26475W        W41944   5.166  11.730   0.568 -0.2760  0.3489 -0.1537
26476W        W41945   2.335   4.375  16.410 -0.1618 -0.0763  0.1118
26477W        W41946   1.539   3.270  12.617 -0.1224 -0.1714 -0.3625
26478W        W41947   9.764  17.404  13.025  0.0551 -0.0557 -0.1964
26479W        W41948   2.676   2.508  11.287 -0.0035  0.1736  0.2065
26480W        W41949   7.640   7.304   1.497  0.0534  0.1674 -0.2296
26481W        W41950   0.260   3.292   4.699  0.0400  0.1023  0.3399
26482W        W41951   0.566  16.807   1.943 -0.2730 -0.1633  0.0367
26483W        W41952   6.295   9.427   5.395 -0.0081  0.0524  0.2421
26484W        W41953  17.674   1.509  12.276  0.0148 -0.1585 -0.0468
26485W        W41954  13.858   1.860  16.619  0.1872  0.1690 -0.3331
26486W        W41955  15.852   3.550  11.869 -0.0108  0.3304 -0.0570
26487W        W41956  10.576   3.217   1.774 -0.1505 -0.0106 -0.0295
26488W        W41957  16.478   6.149  11.469 -0.1258 -0.0119 -0.0886
26489W        W41958  16.552   8.883   2.610  0.1181  0.0108 -0.1849
26490W        W41959  12.423   9.195  15.218  0.0274 -0.1031  0.0312
26491W        W41960  13.666   2.146   2.147 -0.0311 -0.1585  0.0532
26492W        W41961   8.669   9.025   0.714  0.1239 -0.0295 -0.1242
26493W        W41962  12.254   5.043   4.931 -0.1103  0.2653  0.3268
26494W        W41963   0.421  13.251   1.456 -0.2670  0.2587  0.1403
26495W        W41964   3.598   0.802  14.160 -0.0725  0.0347  0.0447
26496W        W41965  10.132   4.092   0.012  0.0322 -0.2454 -0.0156
26497W        W41966   0.748  16.823  12.891  0.1238  0.1890 -0.2247
26498W        W41967  15.215  13.953   1.649  0.0043  0.1752  0.3666
26499W        W41968  14.717   9.939   0.237 -0.2267 -0.0502  0.2292
26500W        W41969   3.419   9.795   3.495  0.0520 -0.3037  0.3059
26501W        W41970  12.188   1.932  16.612 -0.0583  0.3539 -0.2123
26502W        W41971  16.130   2.920   0.127  0.0126 -0.2760 -0.2113
26503W        W41972   8.663   2.895   3.546  0.0787 -0.0264  0.0788
26504W        W41973  15.603   3.781   0.463  0.0559  0.1643  0.2678
26505W        W41974  11.975  15.413   3.754 -0.2045 -0.2376  0.2651
26506W        W41975  14.495   8.495   3.076  0.1315 -0.0904 -0.1714
26507W        W41976   1.305   2.333   5.615 -0.1356 -0.0754  0.3728
26508W        W41977   3.638   1.976  13.247 -0.0571  0.0311 -0.0490
26509W        W41978   4.002  11.038  12.960 -0.0175 -0.0653 -0.0591
26510W        W41979   9.177  17.140  12.425  0.0601  0.0162  0.0783
26511W        W41980   9.863  15.170   5.707  0.1438 -0.1180  0.0722
26512W        W41981  17.156  11.600  13.969  0.1236 -0.0523 -0.0243
26513W        W41982   8.426   5.802   3.267 -0.0636 -0.0902 -0.2526
26514W        W41983   9.074   0.461  13.243 -0.1445  0.0157  0.0629
26515W        W41984  11.182   2.320  14.660  0.1235 -0.0987  0.2479
26516W        W41985   5.714   9.876  16.544  0.1496  0.1278  0.2017
26517W        W41986  13.270  14.496  15.005 -0.0471 -0.3962  0.2762
26518W        W41987  12.851   5.815  14.624  0.0103 -0.0855  0.0146
26519W        W41988  12.392   7.203  13.038 -0.1900  0.5058 -0.2879
26520W        W41989  15.587  13.766   5.528  0.0194  0.1643  0.1305
26521W        W41990   5.373  13.859   3.092 -0.4985  0.0423  0.1524
26522W        W41991  13.032   9.537   0.596  0.2165 -0.2464 -0.3138
26523W        W41992   7.637  13.918   6.061  0.0408 -0.1049  0.0041
26524W        W41993   4.031   6.204  12.471 -0.1704  0.2749 -0.0874
26525W        W41994  16.114  15.668   4.611 -0.1394  0.4748  0.1021
26526W        W41995   7.775   5.923  11.207  0.1566  0.0137  0.1275
26527W        W41996   3.656   6.086   5.594 -0.2698 -0.0598 -0.0652
26528W        W41997   4.707  17.329  16.272 -0.0025 -0.0985  0.0403
26529W        W41998   9.702  11.127  15.856  0.0455  0.2348  0.1076
26530W        W41999  16.618  15.446  15.413  0.0255  0.2039 -0.1789
26531W        W42000   2.481   5.150   3.324 -0.0692 -0.2104 -0.2853
26532W        W42001  12.816  15.041   4.930 -0.0279  0.2571 -0.1959
26533W        W42002  17.421  10.715  11.911 -0.1264 -0.0431  0.1337
26534W        W42003  11.619   3.716   3.657  0.0080  0.2509  0.1627
26535W        W42004   3.019   9.450   3.240 -0.0880  0.0145 -0.0640
26536W        W42005  10.645   9.918   1.458  0.2438 -0.0152 -0.1892
26537W        W42006  16.960  10.734   3.860  0.0539  0.3092  0.2050
26538W        W42007  15.523  12.225  11.597 -0.1927  0.0851 -0.1582
26539W        W42008  10.967  13.334   2.914  0.0623  0.0746  0.0696
26540W        W42009  11.910  13.560   4.774  0.1038  0.0968  0.3034
26541W        W42010   0.591   5.968  15.807  0.1689  0.1908  0.2187
26542W        W42011  14.224  17.232   0.309 -0.0052  0.0014 -0.0292
26543W        W42012   4.578  12.530  15.816 -0.0562  0.1634  0.0440
26544W        W42013  17.201   6.423  11.449 -0.0100 -0.0171  0.1572
26545W        W42014   3.634   6.527   0.520  0.3290  0.1663  0.3813
26546W        W42015   1.863   3.865  13.773  0.2747 -0.1152 -0.0503
26547W        W42016  12.887  13.635  14.988  0.1469 -0.2065  0.0465
26548W        W42017   6.051   0.124   2.975  0.0179  0.0053  0.2560
26549W        W42018   4.231  13.906  13.830  0.3012 -0.1709 -0.4093
26550W        W42019  10.973   8.263  16.536  0.0350 -0.0926 -0.0888
26551W        W42020   9.539   6.020   1.783 -0.3137 -0.0921 -0.1362
26552W        W42021   0.328  14.515   1.764 -0.2680 -0.1102 -0.3316
26553W        W42022  10.068   5.273   5.657 -0.1184  0.3928  0.0904
26554W        W42023   3.457   3.646  16.042 -0.0044  0.1000  0.0296
26555W        W42024  17.657  10.114   1.531 -0.1479 -0.0357 -0.0751
26556W        W42025  14.066  14.368  14.617 -0.1594 -0.4761  0.2522
26557W        W42026   6.124  17.588   5.664  0.1598  0.0789 -0.1943
26558W        W42027   7.894  11.475   4.352  0.0305  0.2389 -0.3886
26559W        W42028  17.055   4.558  12.883 -0.1911  0.0265  0.1763
26560W        W42029   3.773   2.841   5.624  0.0656 -0.0564  0.1861
26561W        W42030   3.036   5.153   2.433  0.2291 -0.1797 -0.4011
26562W        W42031  11.870   7.053   1.181  0.1254 -0.1609 -0.1320
26563W        W42032   8.317  11.956   1.729 -0.0658  0.1733 -0.1024
26564W        W42033  17.333   5.687  14.104  0.1261 -0.0181  0.1264
26565W        W42034  11.391   0.289   5.492  0.1555  0.1189  0.2526
26566W        W42035  17.290   7.568  11.137  0.1917  0.0885  0.1329
26567W        W42036  17.314   8.143   1.991 -0.0060  0.0402 -0.0326
26568W        W42037   1.979   5.277  15.448  0.2882 -0.0952  0.0584
26569W        W42038  11.257   3.586  14.140 -0.1417 -0.0894  0.0020
26570W        W42039   1.240  12.056   1.643  0.0282  0.2158  0.0435
26571W        W42040   4.047  14.054   1.308  0.0468 -0.0138  0.1578
26572W        W42041  14.316   6.647  16.104  0.0567 -0.1465  0.2150
26573W        W42042  15.793   0.377   2.509 -0.0380 -0.1065  0.1390
26574W        W42043   9.343   2.605  12.532 -0.0366  0.1998 -0.3032
26575W        W42044  10.973  16.310   3.922 -0.1490 -0.1153  0.3226
26576W        W42045   6.301   4.105   4.109  0.2943  0.2914 -0.2116
26577W        W42046  10.356  14.499   1.313  0.0066 -0.3448 -0.0042
26578W        W42047  16.940   9.595  16.514 -0.2583  0.0896  0.1337
26579W        W42048  13.605   2.365   3.949  0.3776  0.0106 -0.1135
26580W        W42049  14.511  10.734  11.150 -0.3976  0.0449 -0.1105
26581W        W42050  15.747   3.999  15.643 -0.0132 -0.0544 -0.0778
26582W        W42051  13.340  12.782  16.004  0.1979  0.1737  0.1299
26583W        W42052   5.664   7.333   2.265  0.0128  0.1584 -0.1126
26584W        W42053  12.547  14.169   0.648 -0.1743 -0.4735  0.1477
26585W        W42054   9.294   0.596   6.770 -0.2437  0.1545 -0.2467
26586W        W42055   2.982  12.177   2.339  0.0302 -0.0806 -0.1988
26587W        W42056  16.256   1.804   4.748 -0.1336  0.1045  0.0019
26588W        W42057   1.184   3.412   3.301  0.0649 -0.0847  0.2032
26589W        W42058   6.603  11.458  12.978  0.3694  0.0143 -0.2573
26590W        W42059  17.769  11.721  13.483 -0.0552  0.0003  0.0212
26591W        W42060  10.499  15.579  13.684  0.1573 -0.0989 -0.0830
26592W        W42061  17.764  11.157   2.899 -0.0171  0.0980 -0.2825
26593W        W42062  17.277  14.234  13.590 -0.0283 -0.1343 -0.1620
26594W        W42063   7.094   5.874  15.363 -0.1894 -0.2048 -0.0074
26595W        W42064  11.924   9.919   2.042  0.3729  0.1420  0.4120
26596W        W42065   2.608   9.578  15.934  0.0231  0.3267  0.1131
26597W        W42066   5.008  16.782  13.206  0.0753  0.2230  0.1635
26598W        W42067   7.069   0.159   4.701  0.0656 -0.2726  0.0239
26599W        W42068  11.132   7.513   0.846  0.0164 -0.1559 -0.1617
26600W        W42069   2.745  14.815  13.087 -0.0322  0.1127 -0.0374
26601W        W42070  12.574  15.553  13.268  0.3092 -0.1288  0.0351
26602W        W42071   3.899  14.548  15.275  0.1458 -0.0528 -0.1640
26603W        W42072   5.194   4.769   5.020 -0.3499 -0.0958  0.1782
26604W        W42073  10.495  11.778   5.113 -0.0288 -0.0005 -0.1459
26605W        W42074   8.517   1.953   3.643 -0.4732  0.1236 -0.0170
26606W        W42075   5.497   3.412   1.627 -0.1225 -0.2571 -0.0164
26607W        W42076   1.830  10.737  10.542 -0.0984 -0.0094  0.2512
26608W        W42077  15.180  12.916   4.538 -0.2200 -0.0484  0.0229
26609W        W42078  17.437  13.271   1.109  0.2820 -0.1505  0.0623
26610W        W42079   6.937   6.567   2.868  0.0645  0.2130  0.0176
26611W        W42080  12.609   8.254   4.516 -0.0393 -0.1458 -0.0718
26612W        W42081   7.061   6.922   4.365  0.2281  0.2782 -0.2197
26613W        W42082   8.291  14.009   2.192  0.0224  0.1406 -0.1026
26614W        W42083   8.466   8.964   2.060 -0.0249  0.0564 -0.0267
26615W        W42084   5.009  12.462   3.617 -0.1445 -0.0394 -0.2258
26616W        W42085   3.903   4.138   2.477  0.0289 -0.2000  0.1128
26617W        W42086   8.929  11.470  14.408  0.1285  0.1715  0.0792
26618W        W42087   9.733  15.949   1.843 -0.3214 -0.1149 -0.1730
26619W        W42088   6.150  11.285   5.760 -0.2879 -0.0567 -0.0382
26620W        W42089   8.161   0.141  14.036 -0.1196 -0.0562  0.0356
26621W        W42090   1.265  11.454  16.782  0.1056  0.1572  0.2006
26622W        W42091  16.204   8.982  10.528 -0.1206  0.1148  0.3258
26623W        W42092  13.172  15.926  16.567  0.1129  0.1437 -0.1443
26624W        W42093   8.523   0.835  14.001 -0.3416 -0.0198 -0.1433
26625W        W42094   1.273   5.597  16.509  0.2537  0.0427  0.2631
26626W        W42095   2.228   8.763  13.006  0.2242  0.0344  0.0930
26627W        W42096   1.684   1.235  12.421 -0.2328  0.0072  0.0054
26628W        W42097   8.708   3.141  15.393  0.1174 -0.1591 -0.0664
26629W        W42098   1.702  12.877  11.755 -0.2705  0.0301 -0.0883
26630W        W42099   9.858   4.177  12.023 -0.0122 -0.0525 -0.0846
26631W        W42100  16.525  11.172  16.501  0.1997 -0.1267  0.2056
26632W        W42101   8.904   2.824   5.157 -0.1099  0.1928 -0.1293
26633W        W42102  15.879   5.988   5.385 -0.2523  0.0490 -0.1701
26634W        W42103  15.985  14.802   1.390 -0.1356  0.0818 -0.0689
26635W        W42104   2.379   3.986  13.757 -0.0286  0.0189  0.3589
26636W        W42105  12.047  15.053   2.324 -0.0096 -0.2897  0.1162
26637W        W42106   5.235   2.067   6.036  0.0659  0.1365 -0.1824
26638W        W42107   2.018   8.738  10.669 -0.3514  0.0694 -0.0538
26639W        W42108   9.113  13.541   0.920  0.0211  0.1664  0.0565
26640W        W42109   8.774   3.378  12.097  0.3046  0.0264  0.2125
26641W        W42110  11.506   7.435   2.410 -0.0031 -0.3273 -0.0881
26642W        W42111   7.359  16.542  13.268  0.4068  0.1004  0.3385
26643W        W42112  10.727   1.421   3.273 -0.2099  0.0231  0.3004
26644W        W42113  12.290   6.584  14.200 -0.2375  0.0055 -0.0269
26645W        W42114  16.340  16.316   3.100 -0.3206  0.0291  0.0465
26646W        W42115   2.390   7.552  12.838 -0.0399  0.0500  0.0525
26647W        W42116   4.332   3.820   2.494  0.0206 -0.1029 -0.1323
26648W        W42117   8.912   2.581   1.985 -0.0941 -0.2248  0.0448
26649W        W42118  11.584   5.880  12.719 -0.1655 -0.0667  0.2206
26650W        W42119  11.509  15.997   1.971 -0.2151 -0.0707 -0.0579
26651W        W42120   4.034   3.493   1.799 -0.0288  0.1881  0.1527
26652W        W42121  16.653  17.546   5.237 -0.0980  0.1005 -0.1930
26653W        W42122  13.816   0.901   2.975  0.1532  0.3164  0.0247
26654W        W42123   9.006   4.655   5.538 -0.0707 -0.0291  0.2073
26655W        W42124   8.690   1.932   3.169  0.0998  0.2496 -0.0626
26656W        W42125  14.670  15.901  14.921 -0.0732  0.2487 -0.0085
26657W        W42126   2.495   0.471  16.574  0.2213 -0.0160  0.1097
26658W        W42127   9.356   8.140   3.825 -0.2075 -0.1645  0.0677
26659W        W42128   1.270  16.734  12.941 -0.0906 -0.0908  0.1386
26660W        W42129   9.073   6.791   0.614 -0.0834 -0.0216 -0.0475
26661W        W42130   4.891  10.921   0.192  0.1819  0.0708 -0.0154
26662W        W42131   6.479   6.655   2.263  0.0925  0.0614  0.2426
26663W        W42132   3.607   0.324   0.849  0.2442 -0.0188 -0.1767
26664W        W42133  14.038  12.098  16.417  0.3045  0.0782 -0.2792
26665W        W42134   4.550  16.170   4.999  0.0847  0.0581 -0.3512
26666W        W42135   1.290   3.523  14.452  0.0197  0.1231  0.1786
26667W        W42136   7.931   5.526  13.800  0.0778  0.1677  0.1355
26668W        W42137  16.747  10.892   5.086 -0.1529 -0.1941 -0.1272
26669W        W42138   7.447   9.699   0.364 -0.2075 -0.0152 -0.0411
26670W        W42139   9.220  13.690  12.875 -0.0070 -0.0200 -0.1229
26671W        W42140   0.405   3.932   2.066 -0.2552  0.1019  0.1892
26672W        W42141  14.958  11.301  16.216 -0.1164  0.0841  0.2403
26673W        W42142  10.923   3.894  14.417 -0.1904 -0.2157  0.0413
26674W        W42143   5.727   0.037  14.657  0.2431  0.1412 -0.0008
26675W        W42144   5.977   6.266  13.638 -0.3253  0.0527 -0.0015
26676W        W42145  14.550   9.829   1.724  0.1203 -0.0685  0.1970
26677W        W42146   3.214   2.911   2.953 -0.2624 -0.0010  0.2290
26678W        W42147  10.314  12.798   6.601 -0.0181  0.0004  0.2533
26679W        W42148  17.623  16.060   0.200  0.1532 -0.3164  0.1327
26680W        W42149   7.327   1.878   3.114  0.0912  0.2518  0.2376
26681W        W42150  12.724   1.377   5.150 -0.2569  0.0718  0.2585
26682W        W42151   0.856   4.244  13.563  0.0905  0.0739  0.0405
26683W        W42152   3.982   5.527  15.712  0.0651 -0.2911 -0.2777
26684W        W42153   1.724   2.454   1.272  0.3703  0.1293 -0.4710
26685W        W42154  15.030   8.362  16.276  0.2439  0.0364  0.3132
26686W        W42155  12.903   2.298   1.221  0.0436  0.1681 -0.0261
26687W        W42156  13.782   9.755  15.542 -0.3358 -0.2998 -0.0801
26688W        W42157   8.440  12.642   2.613  0.1191  0.2225 -0.0875
26689W        W42158  12.444   3.271  13.856 -0.0363 -0.0184 -0.0285
26690W        W42159  12.069   7.190   0.707  0.1946  0.0549 -0.0282
26691W        W42160   1.811   4.330  16.592  0.1509 -0.2161  0.1403
26692W        W42161   9.713   2.469   4.104 -0.4128  0.3502  0.0893
26693W        W42162  15.161  14.359  15.540 -0.1107 -0.2076  0.0015
26694W        W42163   9.606  16.564  14.955  0.0353  0.0626  0.2089
26695W        W42164   2.050   6.153  12.483  0.0404 -0.1462 -0.0355
26696W        W42165  13.072  12.345  11.869  0.1581  0.2646  0.0365
26697W        W42166  15.494  14.393   0.187  0.1901  0.1145  0.3112
26698W        W42167  14.063   2.031   2.856 -0.0574 -0.0381 -0.2329
26699W        W42168  15.499   7.132  15.355  0.1876 -0.1471 -0.4815
26700W        W42169   4.840   6.742  14.837  0.0190 -0.0635 -0.4494
26701W        W42170   5.188   4.148   4.178  0.1141  0.0740 -0.1828
26702W        W42171   7.160   1.763  16.002  0.1559  0.0557 -0.1866
26703W        W42172   1.824  10.802   4.997  0.0440  0.0346  0.3102
26704W        W42173  11.675   8.053   0.326  0.1414  0.1522  0.1989
26705W        W42174   4.179  14.978   1.947  0.2399  0.0483  0.1242
26706W        W42175  11.833   4.580   1.883  0.1791  0.0368 -0.3223
26707W        W42176   9.145   5.325   0.835  0.0687  0.1536  0.1408
26708W        W42177  11.024   0.476  16.330  0.0240 -0.2059  0.1411
26709W        W42178  16.522   7.210  13.236  0.0066 -0.4983  0.0293
26710W        W42179  16.873  11.858  14.343  0.3355 -0.3243 -0.1927
26711W        W42180   6.156   3.044  13.321  0.0794  0.0594  0.0103
26712W        W42181  14.197  13.623   5.812  0.2254 -0.0685 -0.3013
26713W        W42182   8.554   4.749   1.352  0.1357 -0.2515  0.1324
26714W        W42183   8.021  15.105   0.052  0.4376  0.0321 -0.1868
26715W        W42184  10.082  12.010   0.528 -0.4404  0.0317 -0.3226
26716W        W42185  10.611   5.387   2.182  0.3710  0.2319  0.3210
26717W        W42186   4.427  11.133  12.760  0.1706 -0.2505 -0.2206
26718W        W42187  15.134  15.507   1.811 -0.2431 -0.0612  0.0158
26719W        W42188  13.268   9.717   1.825  0.0432  0.0410 -0.0267
26720W        W42189  12.538   9.423   1.951 -0.1359 -0.1457 -0.2152
26721W        W42190  15.433   6.182  15.997 -0.0461 -0.1411 -0.2007
26722W        W42191   2.989   1.541   3.680  0.3530  0.2024  0.0193
26723W        W42192  10.553  17.486   0.314 -0.2057 -0.1534 -0.1627
26724W        W42193  14.540   4.082   2.191 -0.3773  0.0388 -0.2959
26725W        W42194  10.132  11.429   1.599 -0.1500  0.2375 -0.2231
26726W        W42195   2.060   7.984  16.347  0.2020 -0.0632 -0.2193
26727W        W42196  13.175   3.368  12.947 -0.3960  0.0497 -0.0118
26728W        W42197   6.922  16.835  13.102  0.0315 -0.1046  0.1996
26729W        W42198   9.628   7.360  16.683 -0.1216  0.1365 -0.1252
26730W        W42199  10.978   5.466   1.094  0.0346 -0.1054  0.3181
26731W        W42200  15.895   9.992   1.243  0.1958  0.0715  0.0507
26732W        W42201  11.560  16.879   2.264 -0.1916 -0.1349  0.0015
26733W        W42202   6.924   3.906  16.175 -0.1157 -0.2886  0.1233
26734W        W42203   9.377  16.838   3.429  0.1083 -0.2580  0.2661
26735W        W42204   3.264  14.157   4.771  0.1884 -0.0164 -0.1424
26736W        W42205   7.558   0.757   5.957  0.1075  0.2026  0.2589
26737W        W42206  10.024   7.656   2.168 -0.2519  0.1512  0.0199
26738W        W42207  12.378  13.404  15.321 -0.0724 -0.0687  0.0876
26739W        W42208   6.032  10.585   2.879  0.1343 -0.2568  0.0098
26740W        W42209   7.527   7.972   3.447 -0.0950  0.4105 -0.3491
26741W        W42210   6.858  17.759  15.274 -0.1260 -0.0165 -0.1255
26742W        W42211   9.258  17.029  13.713  0.0472  0.2338  0.3062
26743W        W42212   7.390   4.410   0.580 -0.0882 -0.1608 -0.1092
26744W        W42213   1.546  15.403   2.386  0.0413 -0.2950  0.0449
26745W        W42214   1.866   9.548  15.531 -0.1569 -0.0859 -0.3160
26746W        W42215  14.378  17.701   3.433  0.3062  0.0010 -0.1224
26747W        W42216   9.443   3.154  15.582  0.0997 -0.0077  0.2597
26748W        W42217  17.370   3.058  16.287  0.1941  0.3963 -0.0294
26749W        W42218   8.469   1.320  14.334  0.0280 -0.2270 -0.3558
26750W        W42219   9.059   7.280   3.614 -0.0516  0.1601  0.1660
26751W        W42220  10.888  16.769   2.033  0.1620 -0.3851 -0.1540
26752W        W42221   9.459   2.116   6.226 -0.0418  0.1984 -0.4316
26753W        W42222  12.100  11.338   6.298 -0.2170 -0.1586 -0.1251
26754W        W42223  14.535   7.107   2.840 -0.2232 -0.2130  0.1813
26755W        W42224   6.839   8.974   4.493  0.0072 -0.1382  0.2096
26756W        W42225   3.200  12.552   1.480 -0.2031  0.0328 -0.1679
26757W        W42226  14.277   0.498  16.104  0.0810 -0.1225 -0.4749
26758W        W42227  13.634   5.074  13.666 -0.0938  0.1650 -0.0184
26759W        W42228   5.111   5.450   2.064  0.2680  0.1775  0.1745
26760W        W42229  17.447  16.046   1.008 -0.3335  0.1027  0.1192
26761W        W42230   0.154   2.729   5.933  0.1422 -0.0807  0.1585
26762W        W42231  13.950  16.008   0.029 -0.2231 -0.2935 -0.1389
26763W        W42232  17.132   0.873  16.351 -0.0112  0.2717 -0.2374
26764W        W42233   3.588   4.784  11.562  0.2773  0.2754 -0.0540
26765W        W42234   5.333   2.679   4.537  0.0450 -0.2057 -0.0364
26766W        W42235   8.644  15.910  16.124 -0.0840 -0.6810 -0.0338
26767W        W42236  14.486  14.837   3.085  0.0118 -0.0796  0.3562
26768W        W42237   2.414   3.347   4.948  0.1448  0.1893  0.0235
26769W        W42238  16.317   5.692   4.366 -0.2280 -0.3186 -0.0221
26770W        W42239   7.101  16.936   4.282  0.3324  0.5198  0.1250
26771W        W42240  11.022  14.672   3.036 -0.1657 -0.2975  0.1309
26772W        W42241   2.868   6.838  10.993  0.0072 -0.0471  0.1513
26773W        W42242   1.641   5.322   4.986 -0.1187 -0.1516  0.3242
26774W        W42243  17.060   8.847  16.002 -0.1309  0.2945 -0.1353
26775W        W42244   9.146  14.225  12.981  0.0621 -0.2400 -0.1289
26776W        W42245   9.212   1.727  14.315 -0.0125  0.1818 -0.0769
26777W        W42246  10.653   7.590   1.261 -0.0663 -0.0995 -0.2113
26778W        W42247   8.425   3.378   0.884 -0.0084 -0.0326  0.2590
26779W        W42248   7.923   5.215  12.844 -0.2277 -0.2480  0.2010
26780W        W42249  13.493   9.533  15.110  0.0803  0.1873  0.1754
26781W        W42250   9.513   8.256   6.076  0.1491 -0.1810 -0.0622
26782W        W42251   0.079  13.866  12.349  0.1002  0.0317 -0.1484
26783W        W42252   6.103   9.232   4.052  0.2191 -0.0090  0.0184
26784W        W42253   7.560   0.029   0.873 -0.2865 -0.2033 -0.1247
26785W        W42254   2.408   6.440  11.087  0.0015 -0.0553  0.1610
26786W        W42255   5.130   7.600   4.590 -0.2463  0.0925  0.0373
26787W        W42256  10.619   4.520   0.206  0.1667  0.1500  0.1267
26788W        W42257  12.043   4.984   1.699  0.0384  0.2271  0.1109
26789W        W42258   3.325   5.312   4.853  0.1304 -0.0703 -0.3307
26790W        W42259   9.436   8.837   0.777 -0.0562 -0.1111  0.1478
26791W        W42260   6.991   8.485  14.014 -0.1098 -0.0377  0.2737
26792W        W42261   1.633  10.482  15.576  0.3169 -0.2088 -0.1602
26793W        W42262   7.306   6.605   1.988 -0.0560 -0.2203  0.1466
26794W        W42263   8.772   3.898   5.245  0.1285 -0.0130 -0.1293
26795W        W42264  14.789  16.656   5.475  0.4016  0.4491  0.2404
26796W        W42265  10.873  11.156   1.002  0.2158 -0.1105 -0.0488
26797W        W42266  11.691   2.057  13.976  0.2431 -0.0612 -0.2959
26798W        W42267  14.258   2.409  14.360 -0.4591  0.1583 -0.3680
26799W        W42268  16.773  10.714   0.594  0.1998 -0.1390  0.1111
26800W        W42269   6.454  13.009  13.190  0.0960 -0.1324 -0.3774
26801W        W42270  10.930  17.771  14.929  0.0042 -0.1154 -0.0765
26802W        W42271  15.020   7.618   5.433  0.3185 -0.1280 -0.0408
26803W        W42272   2.560   6.500   2.821 -0.0485  0.1126 -0.0246
26804W        W42273   9.579  13.058  14.327 -0.2248 -0.2648  0.0594
26805W        W42274  14.306   6.289   1.111 -0.0951  0.2042  0.0622
26806W        W42275   7.581   2.852   2.970 -0.0947  0.2074 -0.3941
26807W        W42276  13.376   4.347  15.315 -0.3366 -0.1004 -0.2299
26808W        W42277  12.193   4.612  15.104  0.2129  0.1131 -0.2437
26809W        W42278  16.464   1.819  14.584  0.0059  0.1293 -0.0220
26810W        W42279   5.200   0.490  14.110 -0.0428  0.1512  0.0945
26811W        W42280   8.238  11.904  11.803 -0.2872  0.0206 -0.2130
26812W        W42281  12.027   9.372   5.325 -0.2143 -0.1553 -0.1477
26813W        W42282  15.451   2.213   3.755  0.1683 -0.4129  0.0505
26814W        W42283  10.991  15.672  13.987 -0.0214  0.0468  0.0107
26815W        W42284  16.954   9.345  11.197 -0.0026  0.5294 -0.0158
26816W        W42285  15.849   9.241   3.133 -0.0224  0.1486  0.3711
26817W        W42286   5.816  15.599   4.199 -0.0442 -0.0472 -0.0038
26818W        W42287  17.386   2.918   3.527 -0.3558  0.1213  0.1149
26819W        W42288   2.104   8.410  11.957 -0.1472 -0.2959  0.3105
26820W        W42289   7.370   8.635   1.846  0.4165 -0.0753  0.3209
26821W        W42290   6.290   6.849   5.860 -0.1694 -0.1140 -0.2618
26822W        W42291  16.747   9.265   0.086 -0.0413  0.0764 -0.0207
26823W        W42292   2.980  10.032  12.876  0.3241  0.3112  0.0372
26824W        W42293  10.709  13.444   0.245 -0.1049  0.2386 -0.1670
26825W        W42294  16.297  17.657  14.223  0.5257 -0.1643 -0.2430
26826W        W42295  12.508   8.976  16.381  0.1911  0.3676 -0.1107
26827W        W42296   0.353   1.059   3.787 -0.1873  0.2025 -0.1866
26828W        W42297  14.357   6.318  12.340  0.0618  0.0898 -0.0572
26829W        W42298   0.008   8.867  15.499  0.0185  0.0333 -0.3073
26830W        W42299   5.734   8.991  15.382 -0.0679  0.1156  0.0074
26831W        W42300   3.188  14.646  16.033 -0.2888  0.2570 -0.0630
26832W        W42301   0.967   4.465   4.874  0.0488 -0.1006  0.0042
26833W        W42302   4.590  13.302   1.310  0.0614 -0.0596  0.0013
26834W        W42303   9.020   7.257  11.452  0.0967 -0.1297 -0.3157
26835W        W42304   4.661  16.617   3.167 -0.2358  0.3665 -0.1963
26836W        W42305  10.258   5.807   2.436  0.1183  0.2637 -0.1743
26837W        W42306   9.592  11.080   0.925 -0.0105 -0.2227  0.3443
26838W        W42307  10.846  13.435  12.057 -0.1025  0.0744  0.0877
26839W        W42308   9.477   6.225   3.946 -0.1418 -0.0104 -0.0823
26840W        W42309   4.484  10.183  16.765  0.0374 -0.1743  0.2026
26841W        W42310  12.430   7.476   4.146  0.2181 -0.1280 -0.0335
26842W        W42311   3.488  15.931   3.631 -0.3926  0.1055 -0.2162
26843W        W42312  17.282  15.162   2.203  0.2910  0.1038  0.0588
26844W        W42313   4.383  10.742   2.081  0.0122 -0.2282 -0.1369
26845W        W42314   7.530  17.768  11.920 -0.2774  0.1163 -0.0149
26846W        W42315  15.153   5.219  11.709  0.1690 -0.2355 -0.0311
26847W        W42316   6.588   6.158  15.499 -0.1272  0.2147  0.0335
26848W        W42317  15.152  16.281   4.329  0.1031  0.2478 -0.1169
26849W        W42318   6.616   1.531   5.107 -0.1717  0.2378  0.1034
26850W        W42319   4.504   6.644   0.758  0.0242  0.2369 -0.2422
26851W        W42320   1.788   8.557   4.395  0.0587 -0.2511  0.1211
26852W        W42321  17.628   6.099  13.792 -0.3725  0.2146  0.1916
26853W        W42322   1.969   3.244  16.754  0.1347 -0.0726  0.0697
26854W        W42323  17.554   3.271  12.241 -0.0183  0.0138  0.0904
26855W        W42324  12.094  16.997  12.087 -0.0818 -0.2132  0.1475
26856W        W42325  12.426  13.583   0.645  0.0205 -0.1675 -0.1112
26857W        W42326   0.595  16.220  16.358 -0.0884  0.0179 -0.1024
26858W        W42327  14.600   4.760  16.215 -0.1032  0.4784 -0.1197
26859W        W42328   4.922  15.866  16.614 -0.0782 -0.3244  0.0303
26860W        W42329  16.259   0.107  14.677 -0.1246 -0.0039  0.1635
26861W        W42330   3.645  12.928  11.850 -0.0389  0.0973  0.0903
26862W        W42331   9.709  12.919   4.502  0.0712 -0.0171  0.0799
26863W        W42332   4.150  16.623   1.172  0.1708  0.0969 -0.0209
26864W        W42333  10.447  14.526  13.894  0.0887 -0.2228 -0.1991
26865W        W42334   1.790   4.816  14.105  0.1522 -0.0378 -0.0050
26866W        W42335  14.757   4.519  13.153  0.1069 -0.0611  0.3365
26867W        W42336  14.951  17.231   4.632  0.1464  0.0939  0.0862
26868W        W42337  10.631   7.551  14.902 -0.0236 -0.0298  0.0786
26869W        W42338  15.257   7.548  15.036  0.1636 -0.2463 -0.1883
26870W        W42339   0.147  13.612  15.864 -0.2119 -0.0022 -0.2747
26871W        W42340  12.836   4.758  12.931 -0.0074 -0.0137  0.0260
26872W        W42341   6.018  11.593   5.315 -0.0401  0.2250 -0.1032
26873W        W42342   3.475   4.992   4.190  0.0249 -0.0359  0.0923
26874W        W42343   6.114   9.220  15.792 -0.2349  0.0584 -0.2191
26875W        W42344  15.606  14.275   3.660  0.0719 -0.1826  0.2022
26876W        W42345  16.490   9.383   2.653 -0.1504 -0.2856 -0.2957
26877W        W42346   1.926   4.498  12.197  0.0472 -0.0292  0.1136
26878W        W42347   3.476  15.034   2.686  0.0929  0.0110 -0.1057
26879W        W42348  13.584  17.282   3.189  0.1087  0.3299  0.0202
26880W        W42349  10.822   9.728  12.621 -0.2267  0.3218 -0.0083
26881W        W42350   7.338  16.226   2.379 -0.0458  0.5177 -0.1730
26882W        W42351   2.380  11.580  12.510 -0.0129 -0.1261 -0.1784
26883W        W42352  16.768   2.602  10.742  0.2863 -0.0297 -0.2397
26884W        W42353   1.006   9.838   4.227 -0.2052  0.0164  0.0011
26885W        W42354  10.478   6.459  16.398  0.1372  0.1041 -0.0797
26886W        W42355  14.041  16.497  16.650 -0.0775  0.0212  0.0463
26887W        W42356   7.740   2.009   1.916  0.3738 -0.1694 -0.2361
26888W        W42357  12.919   1.512  16.608 -0.0060 -0.4315  0.0427
26889W        W42358  15.166  16.373   2.780 -0.1078  0.1283  0.2344
26890W        W42359   6.501   0.408  15.912 -0.2149 -0.1598 -0.1002
26891W        W42360   1.861   1.089   3.639  0.2043  0.1533 -0.2291
26892W        W42361  13.210   2.651   3.674  0.2848  0.1864 -0.0952
26893W        W42362  15.810  11.778   4.210 -0.0100 -0.0007  0.3534
26894W        W42363   4.192   4.853  15.969  0.0023  0.5170 -0.0791
26895W        W42364   1.171   1.605  14.680  0.2135  0.2269  0.3314
26896W        W42365  17.471  16.411  14.994  0.1324 -0.0675 -0.1525
26897W        W42366   2.309   2.974  13.113 -0.1555  0.0855 -0.1778
26898W        W42367   0.086   4.472   1.889 -0.1498  0.1575  0.0844
26899W        W42368   8.361   3.302  13.987  0.1394  0.0401 -0.2030
26900W        W42369   8.571  11.774   2.158  0.0435 -0.0259 -0.1471
26901W        W42370   0.650  11.924   2.795 -0.1174 -0.0479 -0.0787
26902W        W42371  11.534   9.079  12.886  0.1500  0.3435 -0.0805
26903W        W42372  14.486   5.813   1.615 -0.0917  0.1380  0.0902
26904W        W42373  15.879   8.700  11.822 -0.1999  0.0827 -0.2187
26905W        W42374   0.387  17.527   5.440  0.1491 -0.0146 -0.0209
26906W        W42375   8.729   4.366   5.936 -0.5000 -0.1872  0.0154
26907W        W42376  17.072   2.687   2.014 -0.0777  0.1711 -0.0317
26908W        W42377   9.581  17.356  14.822  0.3156 -0.0391  0.0015
26909W        W42378   7.838   7.058  13.595 -0.2021 -0.1221  0.0050
26910W        W42379  11.080  17.367   0.372 -0.3032  0.1874 -0.3298
26911W        W42380   0.243  12.962   4.830 -0.0480  0.1488  0.1082
26912W        W42381   1.166   5.718   1.559  0.1622  0.2738  0.1573
26913W        W42382   8.665  14.809  12.726 -0.4917 -0.0332  0.1175
26914W        W42383   8.995   4.621  12.061  0.1304 -0.0006  0.1811
26915W        W42384   4.081   9.629   0.945  0.2148  0.0829  0.2424
26916W        W42385   7.491  13.127  11.798  0.2723 -0.2715  0.3438
26917W        W42386   3.969   7.787  16.060  0.0129  0.2158  0.1295
26918W        W42387   2.672   4.619  16.149 -0.0013  0.0524 -0.2207
26919W        W42388   5.076   7.520   5.559  0.0247  0.0356 -0.2114
26920W        W42389  13.309   9.655   2.953 -0.0359 -0.2847 -0.0030
26921W        W42390  15.139   4.300   2.150 -0.0729  0.0339  0.0268
26922W        W42391   3.816   9.314  14.517 -0.1883  0.2569 -0.1272
26923W        W42392  12.658   6.308  13.011 -0.0063 -0.0529  0.2138
26924W        W42393   6.021   3.339   1.492  0.1186 -0.3420  0.0593
26925W        W42394  17.124   8.096   0.180 -0.0434 -0.0782 -0.2338
26926W        W42395   5.346  15.454   6.401  0.1343 -0.0274 -0.2116
26927W        W42396  13.174  11.651   5.559 -0.1324 -0.0594 -0.3289
26928W        W42397  13.164   0.977   0.474 -0.1444 -0.2094  0.1782
26929W        W42398   8.898  13.219   5.338 -0.0391  0.1384 -0.0344
26930W        W42399   7.363   5.809   3.049  0.2995  0.0644  0.0847
26931W        W42400   4.224   1.978   3.919  0.1395 -0.3240  0.1137
26932W        W42401  17.515   3.044   2.692 -0.2553  0.4105  0.3818
26933W        W42402  11.276   2.392  15.415  0.1926  0.0751 -0.0226
26934W        W42403  13.766   3.946  12.662  0.1600  0.3451  0.2607
26935W        W42404   6.638   6.979   3.153 -0.0175  0.1045  0.0727
26936W        W42405   4.891   3.822   4.872  0.0373  0.3134 -0.3254
26937W        W42406   1.305   4.412  16.750 -0.2065  0.2273  0.0377
26938W        W42407  16.799  15.173   1.880 -0.1358  0.2473 -0.0796
26939W        W42408   4.753   9.509  12.655 -0.0238 -0.1468 -0.2050
26940W        W42409  17.134   7.204   2.226  0.3113  0.1259  0.0406
26941W        W42410  14.223   0.061   4.887  0.3172 -0.1841  0.0008
26942W        W42411   2.589  12.807  12.123 -0.0160 -0.0365 -0.3064
26943W        W42412   2.124   5.172   0.134 -0.3107  0.1856 -0.2691
26944W        W42413   3.129   1.722  10.687  0.1720  0.2456 -0.1604
26945W        W42414   1.999   3.036   4.929 -0.2117  0.0055  0.1297
26946W        W42415   4.699  11.808  12.244  0.0485 -0.1422 -0.0323
26947W        W42416   6.348  16.334  11.422  0.3507 -0.0615 -0.1856
26948W        W42417   1.986   9.936   5.364 -0.1000  0.1269 -0.1795
26949W        W42418  11.905   2.703   5.759  0.0990  0.2354  0.0584
26950W        W42419   4.303   5.274  15.286 -0.0854  0.0215 -0.0192
26951W        W42420  11.433  14.099  11.868 -0.0710  0.0921 -0.0236
26952W        W42421  17.754  12.259  11.795  0.2626  0.1523 -0.0939
26953W        W42422  10.740   6.276  15.047 -0.3958  0.0581 -0.0012
26954W        W42423  11.938  11.360   5.395  0.0168  0.0962 -0.0313
26955W        W42424  15.088   5.087  11.194 -0.0959 -0.3726  0.2948
26956W        W42425   7.765  15.415  11.895  0.2598  0.0648  0.0418
26957W        W42426   3.520  12.644   3.549  0.0177  0.2934 -0.0425
26958W        W42427   0.833   0.230   0.199  0.1377  0.1475 -0.1881
26959W        W42428   1.948   0.763   0.450  0.2245  0.3063 -0.0493
26960W        W42429  16.344   7.294   3.929  0.0183  0.1266 -0.3996
26961W        W42430   4.466  15.582  14.258 -0.1861  0.1872  0.0221
26962W        W42431  10.319   2.565   3.376  0.1111 -0.2618 -0.1711
26963W        W42432   9.448   1.378   6.442 -0.1065  0.0737  0.1135
26964W        W42433   3.449   4.178  16.822  0.2302 -0.1546  0.2072
26965W        W42434   1.851  16.650   4.971  0.0343 -0.2330  0.1526
26966W        W42435   7.608   8.468  11.700 -0.0930 -0.1390 -0.1986
26967W        W42436   4.486  16.852   0.857  0.2856 -0.0864 -0.4226
26968W        W42437   7.847  17.345   5.530  0.0344  0.1296 -0.0242
26969W        W42438   9.629   8.513  14.957 -0.1146  0.0785 -0.0033
26970W        W42439   2.898  12.513   1.935 -0.0031  0.0166 -0.0387
26971W        W42440  16.478   2.908   5.793  0.0395 -0.1446 -0.3870
26972W        W42441   9.251  13.905  14.913  0.0256 -0.0840 -0.0008
26973W        W42442   7.664   1.686  15.923 -0.1928  0.1713  0.0513
26974W        W42443  13.405  15.736  14.285 -0.0545  0.0229 -0.3072
26975W        W42444   6.578  17.613   5.352 -0.1915 -0.1329  0.0147
26976W        W42445  15.351  13.037  12.819 -0.2721  0.1561  0.2665
26977W        W42446  11.241  11.467   3.722 -0.0137  0.1805  0.1643
26978W        W42447  14.264  11.731   3.423 -0.2153 -0.1539 -0.0892
26979W        W42448   0.810   0.995  13.723  0.1165  0.2625  0.0839
26980W        W42449  11.683   3.337   0.413  0.1091  0.0378 -0.1663
26981W        W42450  16.301  10.788   0.976  0.0351 -0.4323 -0.0544
26982W        W42451  15.639   8.564  14.238 -0.0313  0.2692  0.0121
26983W        W42452  15.660   3.761   1.788 -0.1692 -0.0065  0.0631
26984W        W42453  16.787   3.667   1.020 -0.1232  0.1121  0.0813
26985W        W42454  17.109   9.811   2.866  0.2476 -0.1374 -0.1441
26986W        W42455  12.396  17.248  15.996  0.3381  0.3954  0.1031
26987W        W42456  10.066  13.813   3.692 -0.1081  0.0513 -0.0088
26988W        W42457  16.643  13.028  16.145  0.1810 -0.0645 -0.1634
26989W        W42458   7.902   7.187  15.145 -0.2379  0.1439  0.1486
26990W        W42459   7.548   9.134   1.961 -0.0446 -0.1023  0.0441
26991W        W42460   3.462  11.935   2.820  0.0037 -0.1841 -0.1774
26992W        W42461  13.947   2.937  14.170 -0.2124 -0.4021  0.0388
26993W        W42462   3.307   1.316   3.246 -0.0989 -0.1493  0.0723
26994W        W42463  11.560  10.297   2.979  0.1856 -0.0043 -0.1422
26995W        W42464   2.907  16.835   3.508 -0.0020  0.0150  0.2582
26996W        W42465   5.811   6.574   2.801  0.0046  0.0261  0.0105
26997W        W42466   2.089   0.226   5.170  0.0314  0.0448  0.3921
26998W        W42467  10.391   9.800  16.744 -0.1732 -0.0131 -0.1204
26999W        W42468  16.292   9.309  12.383  0.1075  0.0333  0.1424
27000W        W42469   8.637   7.343   2.067  0.1635  0.1445  0.0956
27001W        W42470   7.025  12.914   2.963 -0.0912 -0.1009  0.0096
27002W        W42471  11.891   3.863   0.772 -0.1132  0.0748 -0.0279
27003W        W42472  13.241  17.515  15.496  0.2626 -0.2163 -0.0197
27004W        W42473   7.368   8.477   2.723 -0.0554 -0.1859  0.1413
27005W        W42474   3.644  12.126   3.659  0.0458  0.0058  0.2200
27006W        W42475  13.450   0.487  13.984 -0.3462  0.0370 -0.1159
27007W        W42476   0.904   9.198  15.455  0.0136 -0.0492 -0.0764
27008W        W42477   9.613  15.105   4.636 -0.0481 -0.0932 -0.2581
27009W        W42478  10.895  12.530  12.832  0.1103  0.5358  0.1898
27010W        W42479  10.406  11.655   4.243  0.3123 -0.1694 -0.1512
27011W        W42480   9.041   5.045  13.379 -0.0213 -0.4369  0.1648
27012W        W42481   7.173  16.276  14.498  0.2614 -0.0887 -0.0173
27013W        W42482  10.585  14.533  12.408  0.0894  0.1480  0.3797
27014W        W42483  14.610  17.152   5.536 -0.3862 -0.0451 -0.0097
27015W        W42484   4.162  15.911  15.418  0.2032  0.0104 -0.1125
27016W        W42485  10.943   1.123  16.581  0.0843 -0.0666 -0.1236
27017W        W42486   2.120  16.365   0.956  0.1059 -0.1582  0.1234
27018W        W42487   4.674  15.500  16.246  0.2315 -0.1406 -0.0270
27019W        W42488   3.183  16.146   3.337  0.0399 -0.2008  0.3110
27020W        W42489   0.552  17.493  12.295 -0.3316 -0.0630  0.1666
27021W        W42490   5.174   0.235   5.533  0.2559  0.3856  0.2787
27022W        W42491  17.755  16.140  15.374 -0.0600 -0.0619  0.0978
27023W        W42492   4.339   2.628  15.449 -0.0040 -0.1122  0.1096
27024W        W42493   1.934   2.400  13.965  0.1816 -0.0920 -0.0689
27025W        W42494   7.935  12.510  16.047 -0.4094  0.0371  0.2044
27026W        W42495  13.197   9.437  10.728 -0.0211  0.1266  0.0473
27027W        W42496   6.916  13.487  15.145 -0.0794 -0.1771  0.1867
27028W        W42497   9.091  13.284   4.881  0.3021  0.2563 -0.2031
27029W        W42498   7.101  16.929   3.726 -0.1218 -0.0336 -0.0550
27030W        W42499  16.657   3.161   1.882 -0.2381 -0.2961  0.0408
27031W        W42500  10.789   9.751  10.867  0.0922 -0.0551  0.1404
27032W        W42501  17.523   0.222  16.420  0.2563 -0.1669  0.4271
27033W        W42502  11.735   3.488   5.088 -0.0542  0.2278  0.0700
27034W        W42503  15.956   7.470   1.441 -0.2880 -0.1984 -0.2074
27035W        W42504  17.731  14.425   3.698 -0.0535  0.1114 -0.0259
27036W        W42505  13.967  13.342   0.114  0.3632  0.2297  0.1415
27037W        W42506  15.027   9.260  13.804  0.0591  0.0422  0.0814
27038W        W42507   2.515  13.438   2.798  0.1346 -0.2142  0.0682
27039W        W42508  12.588   1.973   1.455  0.1325  0.3542  0.0196
27040W        W42509  14.173  16.452  11.516 -0.4464  0.0996  0.0374
27041W        W42510  16.204  14.204  11.245  0.0284  0.1671 -0.0636
27042W        W42511   8.317   3.182   2.521  0.2927 -0.2005 -0.1214
27043W        W42512   8.363  12.606  15.112  0.1605 -0.2365 -0.0942
27044W        W42513   9.703  14.043   0.322  0.1306  0.0366 -0.1219
27045W        W42514  15.889   2.406  13.279  0.0347  0.0060  0.1140
27046W        W42515   7.387  10.887  15.714  0.0308  0.0172  0.0009
27047W        W42516   4.455   3.487  12.732 -0.2112  0.0982 -0.0697
27048W        W42517   7.085   7.329   1.367  0.1590 -0.0808  0.0077
27049W        W42518  12.810  11.927  12.030  0.0759 -0.0647  0.1511
27050W        W42519  16.153   7.559   0.989 -0.3664 -0.1418 -0.1497
27051W        W42520   0.437   1.935   2.162 -0.1306  0.1393 -0.2895
27052W        W42521   8.686  14.711   3.938  0.0584 -0.0097  0.0480
27053W        W42522  12.857  13.614  13.804 -0.3706  0.1233  0.4394
27054W        W42523   7.954  13.268   4.548 -0.0688 -0.0111 -0.0504
27055W        W42524   3.333   5.227  12.772  0.0666 -0.1991 -0.0874
27056W        W42525   4.090   5.935  14.138 -0.0900 -0.2010 -0.0720
27057W        W42526   4.990   5.092   0.256  0.1284 -0.0680  0.2128
27058W        W42527   1.666   8.001  15.987 -0.4150  0.0999  0.1808
27059W        W42528  16.722   7.891   0.432 -0.2396 -0.0171 -0.0860
27060W        W42529   6.474  14.439   0.051  0.2684 -0.2369  0.1427
27061W        W42530   5.854  14.470  10.838  0.0210  0.2522  0.0147
27062W        W42531  17.351   1.020   3.088  0.3158 -0.3076 -0.1853
27063W        W42532  16.717   7.234  14.734 -0.1393  0.3441  0.0712
27064W        W42533  15.930   7.220  11.587 -0.1917  0.1017 -0.2151
27065W        W42534   3.910   7.362   2.774 -0.0158  0.0558 -0.2235
27066W        W42535   1.411  11.980   4.974 -0.0962  0.2055 -0.1099
27067W        W42536   5.621  17.040   1.677 -0.1193 -0.2302 -0.3002
27068W        W42537  14.942  15.008   5.558  0.0750 -0.5985 -0.1125
27069W        W42538  15.409   8.556  11.589  0.1358 -0.4006 -0.0595
27070W        W42539  15.841  11.044   1.809  0.0372 -0.3068  0.1173
27071W        W42540   7.830  14.207   3.182  0.0074  0.1114  0.2269
27072W        W42541  10.088  11.485   3.909  0.0458  0.1811  0.2744
27073W        W42542   9.659  12.742   1.958  0.1476  0.1896 -0.1169
27074W        W42543  11.994   6.215  11.695  0.1317 -0.0940  0.0082
27075W        W42544   5.442   5.457   1.673 -0.0735 -0.0395 -0.2029
27076W        W42545  10.916  17.372   4.339  0.0519  0.0092 -0.3548
27077W        W42546   9.296   0.236   0.134 -0.1512 -0.2269  0.1523
27078W        W42547   1.361   3.946   3.253  0.0140 -0.1997 -0.1293
27079W        W42548   4.645   1.720  11.666 -0.0534 -0.3163 -0.0483
27080W        W42549   1.954   5.217  10.998  0.0611  0.2112 -0.2541
27081W        W42550   6.980   5.857   2.218  0.1182 -0.0676 -0.3832
27082W        W42551   5.642   1.775   4.265  0.3992  0.0696  0.0396
27083W        W42552  10.155   5.307   2.411  0.1102 -0.0456  0.2127
27084W        W42553  17.214   7.804  12.861 -0.0285 -0.1854  0.2370
27085W        W42554   5.967   2.970   2.773  0.1014 -0.1484  0.0688
27086W        W42555   7.097   2.622  12.040 -0.2178  0.0892  0.1674
27087W        W42556  12.106   4.040  12.045 -0.0447  0.0076 -0.0626
27088W        W42557   2.549   4.354  13.447  0.0553 -0.2145 -0.0815
27089W        W42558  10.062   2.800  13.483  0.2418 -0.0470  0.0059
27090W        W42559   0.076   2.543  13.278  0.0093  0.1201 -0.0494
27091W        W42560   3.153  11.477   4.677  0.1062  0.1044 -0.1870
27092W        W42561   0.532   3.186   1.609 -0.1382 -0.1741  0.1263
27093W        W42562  10.205  17.247   6.455  0.2380 -0.0385  0.1941
27094W        W42563   7.375   0.376  13.219  0.1517  0.1548  0.2259
27095W        W42564   2.547  15.358   3.154  0.1149  0.0641  0.1168
27096W        W42565   9.103   0.986   3.056  0.0072 -0.2434 -0.0219
27097W        W42566  11.577   8.364  14.755 -0.0100  0.3336 -0.0933
27098W        W42567   6.564   1.565   4.626 -0.0424  0.1315 -0.0988
27099W        W42568  14.748   3.309  11.620 -0.6258  0.0188 -0.2407
27100W        W42569   4.415   8.910  14.939  0.2605 -0.1405 -0.0888
27101W        W42570  13.804  16.588   0.291 -0.2334 -0.0166 -0.0232
27102W        W42571   0.071   5.641   2.472 -0.0579  0.0245  0.0855
27103W        W42572   8.746   6.461   0.341  0.2222  0.0402 -0.3770
27104W        W42573  14.846   0.782   1.545 -0.2521  0.2111  0.3321
27105W        W42574  11.399   2.560   1.627 -0.1403 -0.2475 -0.0569
27106W        W42575   6.552   7.231  11.848 -0.0957 -0.0922 -0.0577
27107W        W42576   5.289   0.315   1.053  0.1521  0.1559  0.0143
27108W        W42577   7.110  17.540   2.662 -0.0488  0.0149 -0.2473
27109W        W42578   3.411   4.366  14.399 -0.4444  0.0403 -0.4295
27110W        W42579   7.494  13.980  14.493  0.0109  0.2214  0.0232
27111W        W42580  11.546  15.760  12.542  0.1468  0.2576 -0.2583
27112W        W42581   8.655  17.179   5.381 -0.3087  0.1852 -0.3507
27113W        W42582  17.754  11.470  16.035  0.0110  0.1337  0.1923
27114W        W42583   2.667   6.373  11.964 -0.0749  0.1241 -0.3002
27115W        W42584   7.658   3.320   2.621  0.0714 -0.1698  0.1481
27116W        W42585  16.947   6.065   0.683 -0.1449  0.1101 -0.3058
27117W        W42586  12.428  12.797   5.991  0.3213  0.1387 -0.0962
27118W        W42587   9.064   3.734   6.461  0.0100 -0.1383  0.0976
27119W        W42588   5.447   4.294  14.960  0.5999  0.2226  0.3762
27120W        W42589  10.238   0.175  15.015  0.2415 -0.2622 -0.4199
27121W        W42590   6.928   9.699   5.502  0.1001  0.0170 -0.2714
27122W        W42591  12.833   0.982  14.587 -0.0916 -0.0281 -0.0726
27123W        W42592  16.320   4.102  14.218 -0.1623 -0.0917  0.0995
27124W        W42593   4.007   2.005   1.760  0.1363  0.1703 -0.2544
27125W        W42594  14.135  13.533  14.031 -0.2026  0.2098  0.2995
27126W        W42595   2.044  16.906  15.282  0.2210  0.2928  0.4047
27127W        W42596  10.528   3.868   1.241 -0.3225  0.1907 -0.3936
27128W        W42597   0.882   5.843   1.125 -0.0332 -0.0209  0.2217
27129W        W42598   5.313  11.267   1.820  0.2177  0.1938 -0.0933
27130W        W42599  12.223   1.966  11.847  0.0231 -0.1042  0.1985
27131W        W42600   6.527  12.878  16.458 -0.1462 -0.1145  0.0958
27132W        W42601  14.327   0.576   4.979  0.1258  0.3465 -0.1301
27133W        W42602  11.230  10.884  11.475  0.2276  0.1016  0.0648
27134W        W42603   7.863   7.357  16.267  0.2366 -0.2893 -0.0840
27135W        W42604  15.047  12.092   1.180  0.1621  0.2338  0.0846
27136W        W42605  17.282   5.519  16.721 -0.0813  0.1854  0.0640
27137W        W42606   9.206  15.103   0.148 -0.0332 -0.0678  0.1220
27138W        W42607   3.683   2.041   2.700 -0.2198 -0.0978  0.2437
27139W        W42608   1.828   7.769  14.888 -0.1234 -0.0254 -0.0106
27140W        W42609   0.499  10.368  11.893  0.0172  0.1345  0.0784
27141W        W42610   9.420   6.879   1.780 -0.1665  0.2175  0.0886
27142W        W42611  16.869  14.713  11.444  0.0995  0.0629  0.1489
27143W        W42612   7.804   7.769   1.110  0.0596  0.1786  0.1312
27144W        W42613   3.409   9.615  11.162 -0.2325  0.1716  0.0907
27145W        W42614   0.962  17.742   1.012  0.0095  0.1333  0.0728
27146W        W42615  12.822  10.939  11.528  0.2332  0.0114 -0.2747
27147W        W42616   2.039   3.503   4.709 -0.1520 -0.2593  0.2494
27148W        W42617   3.599  13.358   2.591  0.2715  0.3703 -0.0990
27149W        W42618  11.328   7.123   0.280  0.0340 -0.0216  0.0985
27150W        W42619   6.953  17.350   6.381 -0.2086  0.2907  0.0292
27151W        W42620  13.489  13.865   3.533  0.0927  0.2082 -0.0811
27152W        W42621   9.954  17.337  14.165  0.0858  0.0826 -0.0714
27153W        W42622  14.244  12.318   5.548  0.1291 -0.1679  0.0190
27154W        W42623   8.020  15.590   0.272  0.2120  0.2737 -0.1383
27155W        W42624   5.168  15.019   4.744 -0.1932  0.1742 -0.1162
27156W        W42625  12.660   1.094   2.285  0.3874  0.0786 -0.1033
27157W        W42626   8.006   9.865  12.110 -0.1288  0.1556  0.0041
27158W        W42627   2.063  11.828  14.969 -0.1513 -0.2167 -0.1046
27159W        W42628   5.377   6.031  13.596  0.3268 -0.3306 -0.0046
27160W        W42629  13.696  11.743  11.622 -0.0345 -0.0780 -0.2306
27161W        W42630  15.096   0.275   1.675 -0.0145 -0.1787 -0.0208
27162W        W42631  16.518  10.700  10.683  0.0015  0.0085  0.0914
27163W        W42632  11.969  14.124   0.886  0.2909 -0.1368 -0.1552
27164W        W42633   5.749   9.601  14.524  0.3243 -0.0210 -0.1008
27165W        W42634   6.468   5.752   4.920  0.0500 -0.2249 -0.1138
27166W        W42635  13.413  12.731  14.644  0.0942  0.2443 -0.0559
27167W        W42636  15.324  11.589  14.358  0.0877  0.1506 -0.1025
27168W        W42637  11.163   7.651  15.168  0.1831  0.2580  0.5238
27169W        W42638   6.880   6.909  13.424  0.3668 -0.1953  0.5050
27170W        W42639  14.074  16.414   4.891 -0.0086 -0.3060 -0.3393
27171W        W42640   1.257   6.922  16.185  0.0055 -0.1324  0.2259
27172W        W42641   7.021  11.686   5.428 -0.0184 -0.1584 -0.0621
27173W        W42642   4.099  12.994  15.960 -0.1456  0.2507  0.1714
27174W        W42643  11.887  10.091   4.045 -0.0244  0.0873 -0.0674
27175W        W42644   8.208   2.887   2.136  0.0271 -0.1231 -0.1647
27176W        W42645  15.065  13.837  12.709  0.5432  0.1999 -0.0990
27177W        W42646  16.773   0.103  16.123 -0.2054 -0.1181  0.1034
27178W        W42647   8.623   4.172  13.871 -0.0935 -0.2589  0.1622
27179W        W42648  17.608   3.859  12.155  0.2704  0.2117  0.2310
27180W        W42649  10.209   3.789  13.198  0.4290  0.0733  0.3728
27181W        W42650   7.362   8.172  13.515 -0.3597 -0.0347  0.2773
27182W        W42651   3.373  17.733  14.093 -0.0419 -0.3174 -0.1157
27183W        W42652  15.266  17.550   3.369  0.0972  0.1811 -0.1276
27184W        W42653   4.035  15.806  13.312  0.4126 -0.3665 -0.1245
27185W        W42654   1.530  13.567  10.805  0.0527  0.0264  0.1790
27186W        W42655   2.302   0.805   0.095 -0.4363 -0.0711 -0.1085
27187W        W42656   0.065   0.370  15.445 -0.0438 -0.1859 -0.0441
27188W        W42657   7.050   9.059   4.924 -0.1502 -0.2164 -0.3456
27189W        W42658   3.819   4.479   2.100  0.1932 -0.1530 -0.0977
27190W        W42659  11.365  14.609   3.865 -0.2137  0.1099  0.0729
27191W        W42660  10.675  11.222   3.880  0.3237 -0.1063  0.1200
27192W        W42661   7.925   9.588   5.906 -0.0252 -0.2461  0.1423
27193W        W42662   1.169   4.503  14.613 -0.1048 -0.0796  0.2036
27194W        W42663   0.708   1.732   0.241  0.1516  0.0172 -0.3015
27195W        W42664  10.249   0.555   3.944  0.0796  0.0548 -0.1225
27196W        W42665   1.195   0.782  15.075  0.0070  0.0971 -0.3686
27197W        W42666   0.829  15.823  14.909 -0.1938  0.0964 -0.2039
27198W        W42667  12.218  14.544   2.309  0.1974  0.0481  0.1172
27199W        W42668   6.896  16.072   1.211 -0.0572  0.0869  0.3553
27200W        W42669   3.062   6.332   3.926 -0.0447  0.2585  0.2297
27201W        W42670   8.020   3.821  15.687 -0.0372  0.1662  0.1585
27202W        W42671   4.946  11.041  11.510 -0.2028  0.2390 -0.0153
27203W        W42672   7.396   2.880  15.281 -0.1396  0.1430  0.1662
27204W        W42673   2.165   1.519   3.800 -0.2849 -0.0313 -0.0615
27205W        W42674  10.960  14.583  16.719  0.1453  0.3122  0.2771
27206W        W42675  12.323  13.172  12.232 -0.1381 -0.3616  0.0269
27207W        W42676  13.358  10.380   5.811 -0.0956  0.1505  0.1587
27208W        W42677  12.554   7.813  12.105 -0.0631  0.3976  0.3090
27209W        W42678  13.915   1.418  13.653  0.1174  0.0711  0.1727
27210W        W42679  15.308   4.477   3.108  0.0917  0.1872  0.3858
27211W        W42680   8.466  15.332   0.126  0.3119  0.1808  0.0653
27212W        W42681  14.706  12.016   5.524  0.0320  0.0909 -0.0355
27213W        W42682  11.870  16.707   1.792  0.1455  0.0001  0.3101
27214W        W42683  11.203  17.642  12.555 -0.0207 -0.2392 -0.0693
27215W        W42684  12.236  16.253   4.444  0.0443  0.0543  0.0466
27216W        W42685  11.325   1.186  13.033  0.0222 -0.0490 -0.1021
27217W        W42686  11.511   0.814   5.637  0.2303 -0.0173  0.0979
27218W        W42687   5.236   0.684   1.479 -0.1234 -0.1435  0.1332
27219W        W42688  11.624  11.858  13.141  0.0301  0.0551 -0.1036
27220W        W42689  12.230   8.427   1.837  0.1291  0.1789  0.1602
27221W        W42690   2.963  15.961  10.538  0.2299 -0.2895  0.0330
27222W        W42691   9.005  12.939  12.401 -0.3076  0.0824 -0.0763
27223W        W42692   6.687  16.423  14.523 -0.0810 -0.0986  0.1279
27224W        W42693  15.833  11.982  16.528  0.2093  0.0953 -0.2426
27225W        W42694   8.999   7.863  14.008 -0.2590 -0.0415  0.0792
27226W        W42695   5.851   6.628  16.322  0.1760 -0.0154  0.0705
27227W        W42696   2.579   7.179  14.614 -0.2051  0.5780 -0.0044
27228W        W42697   7.340   3.366   5.778  0.2073  0.0711 -0.1908
27229W        W42698  16.028  16.740  15.955  0.2505 -0.2622 -0.0963
27230W        W42699  14.915  17.647   1.510  0.1448  0.0078 -0.0962
27231W        W42700   7.872   4.133  13.477 -0.2829 -0.1902  0.2238
27232W        W42701  10.767   9.381  16.732 -0.1876  0.0851 -0.1337
27233W        W42702   3.415   1.539  16.154  0.0558 -0.5080  0.0303
27234W        W42703  12.878  10.889  15.197 -0.0369  0.2068 -0.1004
27235W        W42704   2.128   2.762  15.897 -0.0194 -0.4175 -0.0453
27236W        W42705  12.199   9.071   2.248  0.4229  0.4009  0.1028
27237W        W42706   7.944   7.700  15.433  0.0141  0.1558  0.0875
27238W        W42707   7.376  14.715  13.780  0.0781  0.1230  0.1030
27239W        W42708   3.347   7.535   4.331  0.2274  0.1439  0.0661
27240W        W42709   3.219   0.465  11.060 -0.0055 -0.0733 -0.0465
27241W        W42710   6.839   4.937   1.010  0.0902 -0.0788  0.1568
27242W        W42711   3.316   7.950  13.526  0.0162  0.2595 -0.0591
27243W        W42712   8.281  16.772   3.257 -0.0487  0.1441 -0.0228
27244W        W42713   9.820   5.923   0.606  0.2752 -0.3503  0.0115
27245W        W42714  17.120  16.136  12.718  0.1016 -0.2249  0.2495
27246W        W42715   2.518  14.049  12.747 -0.0896  0.1767 -0.0357
27247W        W42716   7.656  14.752   1.731  0.0855 -0.0666 -0.2064
27248W        W42717  14.825   4.176   0.381 -0.1453  0.1869 -0.0555
27249W        W42718   6.447   5.504  13.024  0.0733 -0.2522 -0.0009
27250W        W42719  12.515  12.288   5.145  0.4022 -0.1859 -0.1785
27251W        W42720   2.598  10.351   2.420  0.0873 -0.2195 -0.0436
27252W        W42721  17.675  10.172  13.077  0.0656 -0.1653 -0.0685
27253W        W42722   3.119   7.939  14.158 -0.1654 -0.4430  0.3033
27254W        W42723   7.991  13.928   4.066 -0.0745  0.1390  0.2028
27255W        W42724   0.888   5.429  16.815  0.2155 -0.0168  0.1046
27256W        W42725   8.416   9.882  11.650 -0.2218  0.0633  0.2446
27257W        W42726   0.918   6.851  14.994  0.5022 -0.0981  0.3340
27258W        W42727  16.247   8.262   2.069 -0.0549  0.3089  0.0260
27259W        W42728   2.920  15.629  15.020 -0.0330 -0.0486  0.0253
27260W        W42729   0.427  17.604   0.857 -0.2919 -0.0728 -0.0970
27261W        W42730   3.713   1.583   2.330  0.0875 -0.0990  0.3080
27262W        W42731   3.521   9.065  16.321 -0.0275  0.0785 -0.0960
27263W        W42732  10.438   7.100  14.802 -0.0621  0.0936  0.1748
27264W        W42733   0.736   9.669   1.573  0.1804  0.0776  0.0832
27265W        W42734  13.382  10.261   5.327 -0.0225 -0.2097  0.2434
27266W        W42735  12.836  15.369   3.527 -0.0948 -0.1296  0.1598
27267W        W42736   7.774  12.635  13.749 -0.1818 -0.1110 -0.3034
27268W        W42737   4.120  11.089   3.500  0.1459  0.0433  0.1897
27269W        W42738  12.578   8.301   2.798 -0.1403 -0.2403 -0.0466
27270W        W42739   2.433   9.060   3.608  0.0065  0.3075 -0.0584
27271W        W42740   7.721  15.065   3.137  0.1084  0.1983 -0.1798
27272W        W42741  17.697   9.457   3.568  0.0789 -0.2706 -0.1106
27273W        W42742  10.876   9.765  15.014  0.2745 -0.3826 -0.0351
27274W        W42743   7.153   4.991  12.879  0.3654 -0.0113 -0.1138
27275W        W42744   5.927  13.244   0.236  0.4288  0.0863 -0.0029
27276W        W42745   6.924   2.147   3.014  0.0989  0.1838 -0.1488
27277W        W42746   3.771  16.574  11.293 -0.1998  0.1588 -0.1450
27278W        W42747  11.123   5.136   0.772  0.0668  0.0675 -0.4299
27279W        W42748  13.463  12.286   3.286  0.1279 -0.0388 -0.2323
27280W        W42749  17.115  15.857  14.535 -0.3402  0.0878 -0.1514
27281W        W42750  14.093  15.899   0.513 -0.0494  0.2348  0.1044
27282W        W42751   7.920  16.884  16.679 -0.0152  0.2057  0.1106
27283W        W42752   5.367   4.521  11.815  0.0713 -0.0917 -0.1600
27284W        W42753  10.537  12.968  12.101  0.0907  0.0343 -0.1259
27285W        W42754  11.524   7.592  15.508 -0.1281 -0.1252  0.0984
27286W        W42755  11.938  13.438  16.639 -0.1848  0.4969 -0.1243
27287W        W42756   7.577  15.800   0.459 -0.1776 -0.0422  0.0662
27288W        W42757  17.073   0.999   1.857  0.1474  0.0493 -0.3317
27289W        W42758   5.121   8.427  11.711  0.1429  0.0358  0.2499
27290W        W42759   5.451   7.285  14.508  0.0751 -0.0766  0.2167
27291W        W42760  10.577   7.149   2.648 -0.1557 -0.0700  0.0452
27292W        W42761  13.470   9.697   0.806 -0.1788 -0.2783  0.1588
27293W        W42762  16.505   5.762  12.682 -0.1182 -0.1079 -0.0425
27294W        W42763   8.358  11.118  16.607  0.1387 -0.0816 -0.0609
27295W        W42764   6.224   0.477   1.510 -0.0300 -0.3228 -0.0366
27296W        W42765   8.070   6.521   5.719  0.0279 -0.2002 -0.1605
27297W        W42766  16.385   2.405  13.276  0.2504  0.0046 -0.1899
27298W        W42767  12.505   6.009  15.348  0.0051  0.2566  0.0286
27299W        W42768   0.109  12.251  15.921  0.1124  0.1940  0.0447
27300W        W42769  10.793   0.506   6.221  0.1908  0.1097  0.0494
27301W        W42770   7.405   2.942   1.697 -0.2782 -0.0105 -0.2049
27302W        W42771  13.841   2.933   6.483  0.1793  0.1605 -0.1444
27303W        W42772  16.343  11.930  14.289 -0.0471  0.1492  0.0657
27304W        W42773   1.672   7.460   1.060 -0.1561  0.0202  0.0552
27305W        W42774   2.756   8.747  14.032 -0.3429  0.0973 -0.2154
27306W        W42775   7.877   6.697   0.269 -0.0057 -0.0358 -0.0332
27307W        W42776  10.871  11.344   3.434  0.0905  0.2234 -0.0394
27308W        W42777   7.549  13.161   2.749 -0.2904  0.1363 -0.0877
27309W        W42778   4.252  11.685   0.985 -0.1731 -0.0127 -0.0618
27310W        W42779   9.147  11.802  16.600 -0.0001 -0.3891  0.0163
27311W        W42780  12.232   3.500  13.359  0.1970  0.0752  0.0316
27312W        W42781  17.323  16.626   1.118  0.2577  0.0814  0.0166
27313W        W42782  17.740  12.749  13.970  0.2193  0.0071  0.0481
27314W        W42783  12.110  15.726   2.813  0.2000 -0.2343 -0.1424
27315W        W42784  16.061   6.585   1.140  0.0380 -0.4204 -0.1022
27316W        W42785   5.710  17.183  13.722 -0.1519 -0.1467  0.0676
27317W        W42786  10.810   7.081  14.455 -0.0659  0.1643  0.0669
27318W        W42787  14.752   2.175  12.645 -0.2070  0.0462  0.0546
27319W        W42788  10.244   8.532  15.355 -0.2728  0.0907 -0.0341
27320W        W42789   2.893   3.722  15.097 -0.1504 -0.1798 -0.4388
27321W        W42790   7.312   6.076   1.237  0.0498  0.3191  0.0998
27322W        W42791   4.309   2.930  14.119 -0.0956  0.2877  0.1499
27323W        W42792   3.189   1.291   2.320  0.0425  0.0480 -0.1963
27324W        W42793   5.000  15.271   3.076  0.1676 -0.0961 -0.2229
27325W        W42794   0.268  16.485  11.508  0.1428 -0.3309 -0.0685
27326W        W42795   3.381  14.860  14.860 -0.2099 -0.1774  0.2843
27327W        W42796   5.745   1.751  16.172  0.0465 -0.2186 -0.0066
27328W        W42797   0.017   7.749   3.717 -0.0318 -0.0380 -0.0132
27329W        W42798   9.589  17.181   4.159  0.2042 -0.0935 -0.4582
27330W        W42799   4.271   9.490  15.408 -0.1471  0.0065 -0.0343
27331W        W42800   5.380   2.677   0.903  0.2679  0.1285  0.0675
27332W        W42801   6.315   3.740   1.511 -0.1239  0.1261 -0.0447
27333W        W42802  13.473  10.522   4.899  0.2577 -0.0130 -0.0516
27334W        W42803   6.365   7.922  13.165  0.4048 -0.2201 -0.2077
27335W        W42804   0.202  16.163   0.885 -0.0108 -0.2754 -0.1439
27336W        W42805   8.625  10.030   0.035 -0.1483  0.0348  0.0138
27337W        W42806   8.154   4.209  11.387 -0.0242  0.0931 -0.0130
27338W        W42807   7.903  17.015  13.729  0.0801  0.1062  0.2543
27339W        W42808   6.871   0.677   4.600 -0.1245  0.1067  0.0237
27340W        W42809   0.198   5.460   0.690  0.0044  0.0596 -0.0055
27341W        W42810   7.072  13.089   3.740 -0.3952  0.0490  0.1401
27342W        W42811  14.011   2.391   1.024  0.0125  0.2380 -0.1014
27343W        W42812  15.158  14.261   1.159 -0.0837  0.0921 -0.6038
27344W        W42813  11.938  10.300  16.509  0.0406  0.0390  0.1072
27345W        W42814  10.873  10.133   2.424 -0.0099  0.0658  0.2473
27346W        W42815   1.931  17.100  12.478  0.1805  0.2367 -0.1274
27347W        W42816   3.819   6.439   0.051 -0.2503 -0.1696 -0.3283
27348W        W42817  15.352   8.903   5.349  0.0813 -0.1418  0.0727
27349W        W42818   6.675  10.025  14.307  0.1466  0.0616  0.1384
27350W        W42819  14.671  15.938   0.513  0.0169 -0.0405 -0.0687
27351W        W42820   3.358   1.947   4.560 -0.0381  0.1750 -0.0666
27352W        W42821  16.128   3.096   4.427  0.2358  0.0715  0.2386
27353W        W42822   8.479   7.746   1.246 -0.3039  0.2152 -0.1700
27354W        W42823  10.471   6.353  14.374 -0.0741  0.2750  0.0583
27355W        W42824   4.202   6.462  14.035  0.2415 -0.0475 -0.2197
27356W        W42825   1.082   6.830  13.093 -0.1170 -0.2150  0.0607
27357W        W42826  14.579  10.614   4.370 -0.1381 -0.2827 -0.0764
27358W        W42827   4.835   1.832  16.382 -0.1125  0.1361 -0.0901
27359W        W42828   0.380   8.586  10.466 -0.0114  0.0774  0.3375
27360W        W42829   5.413  12.888   4.391 -0.0970 -0.0464 -0.1258
27361W        W42830  11.323  10.150   5.511  0.0802 -0.1287 -0.0249
27362W        W42831   5.312   7.951  11.513 -0.0782  0.1264  0.0258
27363W        W42832   9.674  17.737   0.695  0.0759  0.2073 -0.0985
27364W        W42833   2.911   9.851  15.458  0.0082 -0.0467 -0.0565
27365W        W42834  13.521   0.626  10.588 -0.1210  0.3248  0.0298
27366W        W42835   0.997   3.731   5.432  0.0461 -0.0032 -0.1910
27367W        W42836   7.278  15.540  15.797  0.0597  0.0534  0.2309
27368W        W42837   3.407  13.766   2.476  0.0523  0.1000  0.1466
27369W        W42838   9.283  16.565   2.563 -0.0181  0.0270  0.3777
27370W        W42839   7.090  16.250   4.624  0.1118  0.0368 -0.0813
27371W        W42840  15.830   4.224   4.036 -0.2781  0.0998 -0.4925
27372W        W42841  11.588   4.361   2.259  0.2686 -0.0819 -0.2248
27373W        W42842  12.118   8.675   3.506 -0.1119  0.5662  0.1403
27374W        W42843   3.402   7.119  12.918  0.1014  0.1068 -0.1835
27375W        W42844   5.863   4.006   6.365  0.1205 -0.1829 -0.1156
27376W        W42845   1.079   2.655  10.929 -0.0729  0.2271 -0.0515
27377W        W42846   9.010   7.317   0.644 -0.2475  0.2626 -0.0148
27378W        W42847  14.068   5.967   0.104  0.0297 -0.0531  0.1832
27379W        W42848  15.749   1.018  13.339  0.0391 -0.1685  0.3544
27380W        W42849   1.172  15.389  13.286 -0.2804 -0.1177  0.1580
27381W        W42850  17.566  12.967  11.168  0.1342  0.0772  0.0492
27382W        W42851   9.825   7.897  13.424  0.1138  0.2799 -0.0491
27383W        W42852   6.314   0.672   2.179 -0.0233  0.0493  0.1253
27384W        W42853   8.805  10.813   5.029 -0.2604 -0.0093 -0.0009
27385W        W42854  14.756   6.639   5.270  0.0970  0.1667  0.1783
27386W        W42855   4.603  16.214   2.354 -0.3334 -0.1033 -0.2137
27387W        W42856   7.848   3.804   0.327 -0.1758 -0.0826 -0.2474
27388W        W42857   3.569  14.897  15.875 -0.2338 -0.0985 -0.1507
27389W        W42858  11.685  13.113  13.804 -0.0451  0.1641  0.0046
27390W        W42859   0.837  13.450  12.259 -0.2096  0.0473 -0.1331
27391W        W42860  11.367   9.901   2.119 -0.0322 -0.0582  0.1313
27392W        W42861   4.965   5.688  13.715 -0.0144  0.3239 -0.1507
27393W        W42862  17.333   3.537   5.213  0.1875  0.1401  0.3528
27394W        W42863  11.258   3.699   0.358  0.0063  0.1332  0.0033
27395W        W42864  15.101   0.083  13.345 -0.0873 -0.0251 -0.1671
27396W        W42865  10.167  16.868  14.328 -0.2197 -0.0275 -0.1779
27397W        W42866   8.129   3.961   3.525 -0.0867  0.0940 -0.0496
27398W        W42867  12.424  11.436   2.835  0.2955  0.2582  0.0495
27399W        W42868   3.340   6.502   3.548 -0.1499 -0.0666  0.0473
27400W        W42869  15.205   4.763  13.126 -0.1769 -0.1079  0.0635
27401W        W42870  17.586  16.246  14.076  0.2522 -0.1010 -0.0554
27402W        W42871  14.175  10.959  15.748 -0.0464  0.1580 -0.2241
27403W        W42872  17.516   2.418  15.308  0.2040  0.2565 -0.1162
27404W        W42873   1.186   4.960   4.179 -0.1234  0.0132  0.4356
27405W        W42874   3.228   0.845   3.130  0.1082  0.0539 -0.0222
27406W        W42875   0.000  15.126  11.207  0.2324  0.0380 -0.0266
27407W        W42876  11.844   5.839   0.009 -0.0882 -0.1282 -0.0011
27408W        W42877   9.795   7.438  13.621  0.1496  0.2308 -0.0126
27409W        W42878  16.869  12.684  13.202  0.1744  0.2170  0.1975
27410W        W42879   3.948  10.384  16.526  0.1490 -0.0225 -0.4325
27411W        W42880   5.044   0.648   3.595 -0.0517 -0.0513  0.1847
27412W        W42881  17.047   4.154   4.045 -0.1101 -0.1700 -0.2262
27413W        W42882  13.175  14.417  13.423 -0.2564  0.0189 -0.0147
27414W        W42883   7.169  15.954  13.251  0.0579 -0.0054  0.0310
27415W        W42884   7.872   4.220  16.366 -0.1613  0.1369 -0.1066
27416W        W42885   8.580   5.263   3.403  0.0738 -0.1499 -0.2623
27417W        W42886  13.347   3.438  15.485  0.1888  0.1209  0.2951
27418W        W42887   8.742  13.229  14.324 -0.1668 -0.0676 -0.2892
27419W        W42888   3.121   1.808   0.461  0.0562 -0.0555 -0.0488
27420W        W42889  15.485  10.344  11.258  0.0547  0.2113  0.1481
27421W        W42890  14.833   3.170   5.519  0.0122  0.2850  0.3412
27422W        W42891   8.168  12.423  13.374  0.0622 -0.0158 -0.2878
27423W        W42892  16.186  17.209  15.765  0.0422 -0.3448 -0.2879
27424W        W42893  14.120   5.613   2.172  0.5367  0.0669  0.0594
27425W        W42894   0.652   4.074  14.307 -0.1513  0.1876  0.2184
27426W        W42895  12.021   7.852   3.670 -0.1885  0.0805 -0.1209
27427W        W42896   4.859  12.382  14.543 -0.2416  0.1342 -0.1849
27428W        W42897  13.850  15.498  13.103  0.0161 -0.1876  0.0448
27429W        W42898   2.214  10.590  11.238  0.2359  0.4374 -0.1448
27430W        W42899  13.034   9.257   3.690  0.2343  0.0431  0.0044
27431W        W42900   3.026  12.693  14.403 -0.0209  0.1879  0.1708
27432W        W42901  11.253   9.064   3.142  0.2606  0.3843 -0.0194
27433W        W42902   5.892  11.890  12.387  0.0964  0.2349  0.2057
27434W        W42903   8.813  17.227   1.927  0.3575 -0.2037  0.1934
27435W        W42904   0.238   3.087   2.839 -0.1027 -0.3332  0.0376
27436W        W42905   3.775  15.987   1.325  0.1204  0.0823 -0.0836
27437W        W42906   9.788  13.708   4.153 -0.0632 -0.2141 -0.2517
27438W        W42907  13.057  14.357   0.626 -0.0769 -0.0106  0.1036
27439W        W42908  12.491   2.694   0.229  0.1612  0.2453 -0.1785
27440W        W42909  14.968  11.893   2.556  0.3868  0.1064  0.0471
27441W        W42910  10.731   4.506  13.453 -0.1392 -0.1615  0.0101
27442W        W42911   2.463  17.493  15.803  0.0402 -0.0040  0.2608
27443W        W42912   2.504  13.132   5.532  0.2255 -0.1968  0.2387
27444W        W42913   1.669   5.013  10.616 -0.1559  0.1459 -0.1904
27445W        W42914   1.857   7.496  10.860 -0.0810  0.0249  0.0869
27446W        W42915  12.042   8.169   2.400 -0.2686 -0.0862  0.0982
27447W        W42916  16.607   2.045   1.094  0.1851  0.2636  0.1192
27448W        W42917  17.087   1.527   4.377 -0.0361 -0.1248 -0.0177
27449W        W42918   3.255   7.214  11.148  0.2214 -0.0073 -0.2108
27450W        W42919   5.941   5.225   1.298 -0.1562 -0.0399 -0.2852
27451W        W42920   2.123   8.041   5.115 -0.0560  0.0240 -0.1586
27452W        W42921   0.766  16.230  13.668 -0.0788 -0.1427  0.2024
27453W        W42922   0.472  14.830   3.198 -0.3198 -0.1157  0.0501
27454W        W42923  12.080   1.126  11.774  0.2066  0.0889 -0.0530
27455W        W42924   3.650   9.203   5.440 -0.0863 -0.1587 -0.1664
27456W        W42925  17.564   7.444   4.026  0.1897 -0.2671  0.3140
27457W        W42926  16.967   8.003  11.334 -0.2112  0.1552  0.1380
27458W        W42927   0.001  14.409  16.359 -0.0518  0.0313  0.0366
27459W        W42928   7.832   9.363  13.687  0.0770  0.0689 -0.1540
27460W        W42929  11.135  12.257   5.832  0.0998  0.0184 -0.1761
27461W        W42930  15.981   1.146   0.827  0.2111 -0.3292  0.4299
27462W        W42931   1.351  12.214  14.500 -0.0268  0.2886  0.2925
27463W        W42932   2.612  13.208  12.458 -0.0216  0.0420  0.4517
27464W        W42933  17.181   9.191  12.072  0.1553 -0.0208 -0.1253
27465W        W42934   6.979  11.726   4.890  0.0198 -0.3949  0.2765
27466W        W42935   5.525  16.470  12.649  0.3834  0.1773  0.0711
27467W        W42936  11.514  17.498  16.221 -0.0182  0.1348  0.1993
27468W        W42937  15.540  10.609  16.385 -0.1154 -0.3699 -0.0759
27469W        W42938   3.899  15.042  11.790  0.0299 -0.5194  0.0910
27470W        W42939  13.165   8.160   1.030  0.2108  0.0578  0.1224
27471W        W42940   3.275   6.900  14.827 -0.1353  0.1970 -0.1526
27472W        W42941   8.798   2.466  11.918  0.2219  0.1002  0.0996
27473W        W42942   0.690  16.968  12.292 -0.1203  0.2006 -0.2583
27474W        W42943  13.172  10.274  13.009  0.0980  0.1458  0.1264
27475W        W42944  12.050   8.660  13.671  0.1085  0.2656 -0.2791
27476W        W42945  16.763   3.061  16.354  0.2081  0.1553  0.1589
27477W        W42946  16.158   6.029  14.121 -0.1968 -0.1919 -0.2097
27478W        W42947  14.649   1.604   4.800 -0.5385 -0.3935  0.2615
27479W        W42948   9.193  12.941   2.140 -0.0248  0.0882  0.0001
27480W        W42949  10.787  14.321   0.625 -0.0759 -0.4605  0.0928
27481W        W42950  16.259  14.706  16.548  0.1517 -0.0786  0.2747
27482W        W42951  15.763  13.257  13.837  0.0954 -0.0155  0.2997
27483W        W42952   9.646  11.880   0.976  0.0123  0.1038 -0.2347
27484W        W42953  13.796  17.208  12.741  0.0990  0.1806 -0.0961
27485W        W42954  12.257  17.655  13.259 -0.0344  0.2420  0.4355
27486W        W42955   9.664   4.348   0.349  0.2085  0.0770  0.1502
27487W        W42956   6.530  10.135  13.550  0.3947 -0.1742 -0.1139
27488W        W42957  10.111  10.049   4.085 -0.1457  0.0229  0.0590
27489W        W42958   5.160   3.528  14.411  0.0918  0.0120  0.1008
27490W        W42959   9.738   7.041  14.065 -0.1069  0.0952  0.1617
27491W        W42960   3.773   0.778  14.718  0.0093 -0.0082 -0.1794
27492W        W42961  16.398   1.943  13.194 -0.0703 -0.1865  0.0272
27493W        W42962   4.072  13.301   0.202  0.0588 -0.1114  0.1291
27494W        W42963   7.629  12.383   4.922 -0.0044 -0.0174 -0.0023
27495W        W42964   7.531  12.933  12.787  0.0012  0.0951 -0.0078
27496W        W42965   4.291   8.695  13.846 -0.0628  0.1297  0.3257
27497W        W42966  14.179   1.481   0.009  0.2632 -0.0236  0.1201
27498W        W42967  15.287   4.922   2.904  0.0157  0.3286 -0.2209
27499W        W42968  14.000  11.298   2.472 -0.0918  0.1289 -0.2439
27500W        W42969  11.177   2.661   3.635  0.1124  0.0587  0.0076
27501W        W42970  16.111   0.606   0.693  0.1019  0.0561 -0.0014
27502W        W42971  17.145   7.555   5.420 -0.2943  0.2562  0.0099
27503W        W42972   3.300  11.338  12.523  0.1122  0.0296  0.1583
27504W        W42973  16.240  16.987  16.699  0.1317  0.0058 -0.0156
27505W        W42974  15.995  13.688   1.347  0.0764  0.1456  0.1806
27506W        W42975  14.045   6.230  15.487 -0.0090 -0.0149  0.0269
27507W        W42976   8.954  13.725   1.573  0.1354 -0.1995  0.4171
27508W        W42977  13.498   0.719  11.480  0.1348 -0.0277  0.3860
27509W        W42978   7.116  15.533   3.709  0.0625  0.0980 -0.4658
27510W        W42979   9.488  15.751   2.724  0.2703 -0.1048  0.0259
27511W        W42980   2.942  12.814  15.756  0.2978  0.0972  0.2606
27512W        W42981   2.272   9.440  13.790 -0.0677  0.2190  0.1957
27513W        W42982   7.381   0.570   2.280  0.0877 -0.3421 -0.0101
27514W        W42983  15.288   0.288   4.952  0.4953 -0.2344  0.0298
27515W        W42984  13.021  17.362  12.075  0.1902 -0.1285 -0.0742
27516W        W42985  11.896   8.828  13.190  0.0488  0.0985 -0.0510
27517W        W42986   5.911   6.063   0.341  0.0416  0.0866 -0.1228
27518W        W42987  12.928  15.878  13.634 -0.0804 -0.0148 -0.3280
27519W        W42988   9.153  16.431  16.561  0.0220  0.1191 -0.0030
27520W        W42989  17.091  11.078  11.793  0.1187 -0.2626  0.0318
27521W        W42990   8.348  12.178   1.259  0.1254  0.0413  0.0707
27522W        W42991   3.162   8.552   4.843  0.0839 -0.3072 -0.0169
27523W        W42992  12.193  16.402   5.695  0.0124  0.1717 -0.1145
27524W        W42993   0.246   0.160   2.351  0.1394 -0.0852 -0.2616
27525W        W42994   2.004  14.587   5.427  0.0522 -0.1574  0.1877
27526W        W42995  15.005  16.240   5.319  0.2236  0.1265 -0.0986
27527W        W42996   7.725  14.616  15.495 -0.3697 -0.1148 -0.0289
27528W        W42997   6.830   4.861  12.207 -0.0176  0.0188  0.1333
27529W        W42998  16.227   6.241   5.660  0.0764  0.0953 -0.0483
27530W        W42999   5.217   6.187   5.111 -0.0149  0.2875 -0.1159
27531W        W43000   6.109  14.827  14.307  0.0302 -0.1982 -0.2367
27532W        W43001   8.707   0.611   3.454 -0.5081  0.0959  0.1246
27533W        W43002  11.238   9.260  12.393 -0.1727  0.0019 -0.0318
27534W        W43003   4.588  12.768   1.339 -0.0674  0.2474  0.0378
27535W        W43004  14.935  12.221   2.969 -0.2006 -0.2942  0.1513
27536W        W43005   9.380  16.889   4.869 -0.1404  0.2682 -0.0422
27537W        W43006   1.385   2.403   2.485  0.3849  0.1339  0.3558
27538W        W43007  12.240  10.140  16.130 -0.3645 -0.0341  0.0283
27539W        W43008   0.885  10.071  16.299 -0.0706 -0.3222  0.1233
27540W        W43009   5.693  16.788   1.171 -0.1886 -0.5361  0.6534
27541W        W43010  14.515   5.860   5.548  0.1901  0.1213  0.0376
27542W        W43011   5.603   9.792   4.873  0.1175 -0.2342 -0.0033
27543W        W43012  14.637  12.319  15.772 -0.0205  0.0439 -0.0056
27544W        W43013   3.578   3.245  16.268 -0.0473 -0.2362  0.1054
27545W        W43014  14.417   4.279   1.392  0.1577  0.1816 -0.1600
27546W        W43015  13.686  14.405  13.124 -0.0103  0.0659 -0.0212
27547W        W43016  11.083   6.596   0.652  0.5944 -0.0159  0.3396
27548W        W43017  17.211  10.066  15.298  0.2977 -0.0528 -0.0980
27549W        W43018   7.723  17.514  15.882 -0.1522  0.0883 -0.1528
27550W        W43019  11.275   8.990  14.348  0.0299 -0.0437  0.0984
27551W        W43020  16.002   2.472   0.305  0.2096 -0.2533  0.3111
27552W        W43021  10.084   2.196  14.254  0.0666 -0.2325 -0.1173
27553W        W43022  14.597   0.293   3.190  0.2288 -0.1481  0.0051
27554W        W43023  14.868   2.242   5.906 -0.0581  0.0920 -0.2788
27555W        W43024   1.507   2.031  11.464 -0.0930 -0.2381  0.4477
27556W        W43025   5.084   6.538  13.538 -0.0828 -0.3083  0.1219
27557W        W43026   0.045   1.052   3.427 -0.0708 -0.3154  0.0438
27558W        W43027  12.101   9.599  14.438  0.1345  0.2023 -0.1868
27559W        W43028   3.714  11.487  15.473 -0.0747  0.1768  0.0309
27560W        W43029   7.447   1.201  14.709 -0.1467  0.0091 -0.1024
27561W        W43030  17.246  14.244   1.750  0.1355 -0.2341  0.1559
27562W        W43031   4.748  11.643   3.144 -0.1065  0.0344 -0.0188
27563W        W43032   3.347   3.470   3.484  0.0329 -0.0341 -0.3884
27564W        W43033   5.912   2.659  15.051  0.0091 -0.0427  0.4233
27565W        W43034   6.611   1.177  15.229 -0.6720  0.0128 -0.0322
27566W        W43035   9.130  15.615  15.101 -0.1750  0.0761 -0.1338
27567W        W43036   3.382   1.685  13.781 -0.4264  0.0445 -0.1765
27568W        W43037  15.647   6.466   0.199 -0.0975  0.0754 -0.0393
27569W        W43038   3.897   5.123   1.676 -0.1158 -0.0885 -0.0235
27570W        W43039   3.479   9.377  12.142 -0.0327 -0.1305  0.3349
27571W        W43040   4.182   8.282  15.988 -0.1426 -0.1275  0.0769
27572W        W43041  13.372  13.011  13.766 -0.0019 -0.0689 -0.2938
27573W        W43042   4.439   0.170  12.210  0.0198  0.1581  0.3137
27574W        W43043   6.945  10.398   6.133  0.2833 -0.1768 -0.2000
27575W        W43044   8.117  17.216  15.136  0.0504 -0.3044 -0.0336
27576W        W43045   2.842   5.533   3.607  0.1559 -0.0250  0.1708
27577W        W43046  17.300  10.319  13.342 -0.0679 -0.3303 -0.1160
27578W        W43047  15.660   6.850   4.450 -0.1658 -0.0924  0.0587
27579W        W43048   6.090   5.450  11.501 -0.0697  0.0240  0.2456
27580W        W43049  15.132  15.576   3.361  0.1462 -0.1832 -0.0024
27581W        W43050  17.771  13.790   9.990  0.0965 -0.1271  0.0368
27582W        W43051  11.567  15.122   0.820 -0.0209 -0.0640 -0.1778
27583W        W43052   1.258  11.865  13.123 -0.1432 -0.0472 -0.1558
27584W        W43053  12.492   6.052  11.814 -0.1246 -0.0881  0.3252
27585W        W43054  16.677   0.914   0.413 -0.1235  0.0665  0.2610
27586W        W43055  10.834  13.630   5.573  0.5321 -0.2100 -0.0357
27587W        W43056   6.683   9.843   0.001 -0.0871 -0.0261 -0.1586
27588W        W43057   3.632   2.943  11.380  0.1749  0.1171 -0.0170
27589W        W43058   6.714  12.797   3.932 -0.2130  0.2840  0.2166
27590W        W43059   3.834  11.316  13.883  0.2575  0.1177  0.0871
27591W        W43060   9.523  10.385  16.542 -0.1166 -0.0812 -0.2156
27592W        W43061  10.906   6.634   2.716 -0.1510  0.3740 -0.2231
27593W        W43062   2.827  15.835   1.563 -0.3382  0.1073 -0.0709
27594W        W43063   8.962  10.067  13.109 -0.0107  0.2032  0.2458
27595W        W43064  11.023  13.880   5.107  0.2930 -0.1374  0.4273
27596W        W43065  17.363   1.384  12.644 -0.0736  0.0791  0.3378
27597W        W43066  17.328  13.461  12.958 -0.3408 -0.1684  0.2159
27598W        W43067  15.090  10.567  16.599 -0.1893  0.1904 -0.2475
27599W        W43068   1.390  13.388   3.199 -0.2326  0.0866 -0.0108
27600W        W43069  13.362  13.341   0.845  0.0766 -0.0992  0.0649
27601W        W43070   8.152  17.074   1.272 -0.0775  0.1050 -0.0586
27602W        W43071   3.086  12.231   0.371 -0.1074 -0.1503  0.1381
27603W        W43072   6.182  14.940  12.739 -0.0537 -0.0442  0.0953
27604W        W43073   0.732  17.120  16.003  0.0116 -0.2063 -0.1240
27605W        W43074  10.035  10.043  12.892  0.1352  0.0392 -0.0603
27606W        W43075   2.357   0.170   2.579  0.1540  0.0176  0.0513
27607W        W43076   7.130   2.148   1.777  0.2293 -0.0400 -0.2530
27608W        W43077  12.119  16.248   2.683 -0.0842  0.2716 -0.1760
27609W        W43078   5.313   5.179  15.255  0.0167  0.0510 -0.0738
27610W        W43079  12.696   8.202  16.302 -0.0542  0.1954 -0.0218
27611W        W43080  17.182  12.054  10.871 -0.0598  0.0261 -0.4156
27612W        W43081  12.766   1.192  14.113 -0.3602  0.1224  0.1655
27613W        W43082  12.760   7.533  13.629 -0.0384 -0.0998 -0.1033
27614W        W43083   7.842  10.601  12.672 -0.0234  0.0481 -0.0655
27615W        W43084   5.025   3.215  14.065 -0.0855  0.0156  0.0752
27616W        W43085  10.990   6.482  12.515 -0.0222  0.2713 -0.2202
27617W        W43086  13.386  10.801  15.350  0.0248  0.5200  0.0034
27618W        W43087   7.410  17.489  13.927 -0.0440  0.1701 -0.2360
27619W        W43088   5.702  12.730   5.993  0.2635 -0.0333  0.0047
27620W        W43089  14.283  11.548  12.980  0.2893  0.0814 -0.1542
27621W        W43090   8.213   5.353   4.740  0.1018  0.0828 -0.1446
27622W        W43091   4.782  16.233  12.513  0.1677  0.0038  0.1189
27623W        W43092  11.512  14.200   3.539  0.4051 -0.2256 -0.2709
27624W        W43093  14.049   9.792   1.848 -0.3474  0.1457  0.1663
27625W        W43094   6.081  10.291  13.324  0.0125 -0.0295  0.0974
27626W        W43095   4.392   5.545  16.491  0.1437 -0.2721 -0.0310
27627W        W43096  13.833  16.744  14.295 -0.2339 -0.3679  0.2130
27628W        W43097   8.091   4.296   6.067  0.2504 -0.2278  0.0014
27629W        W43098   7.454   6.052  12.010  0.3090  0.1455 -0.3094
27630W        W43099   7.950  10.473   3.870  0.0215 -0.3046  0.3482
27631W        W43100   4.508   6.618  12.069  0.1679  0.1395  0.0518
27632W        W43101   9.531   2.096  14.714 -0.3007  0.3835  0.0454
27633W        W43102  16.168   7.504  14.553 -0.2587  0.1268 -0.2846
27634W        W43103  12.861   0.870   4.510  0.4002 -0.0725  0.0862
27635W        W43104  11.310  16.662   1.202  0.0398 -0.2435  0.0512
27636W        W43105   4.344   1.038   3.174 -0.0482 -0.1351 -0.0125
27637W        W43106   8.768   9.651   4.523  0.1191  0.0545  0.1064
27638W        W43107   4.109  13.056  12.345  0.0899  0.0355 -0.2045
27639W        W43108   0.852   2.665  11.437 -0.0060 -0.2649  0.2635
27640W        W43109  17.142  11.507   0.297 -0.1917 -0.1645  0.2158
27641W        W43110   3.134  17.631   0.179 -0.1135 -0.0911  0.0406
27642W        W43111  14.385  10.049   3.749  0.0107  0.0501  0.1411
27643W        W43112   4.047   7.413  15.001  0.1884  0.4328 -0.1364
27644W        W43113   3.947   2.866   0.117  0.3657 -0.3795 -0.0101
27645W        W43114  17.492   4.706   4.392  0.0123 -0.1839  0.1570
27646W        W43115   9.344  13.428   1.337 -0.0965 -0.0894 -0.1456
27647W        W43116   7.541  11.807   4.286  0.1075  0.0336  0.0201
27648W        W43117  17.634  10.297   5.101 -0.2121 -0.0213 -0.0194
27649W        W43118  17.421   4.497   2.706  0.1383 -0.1994 -0.0602
27650W        W43119  13.090   9.942   0.052 -0.0556 -0.0397 -0.1370
27651W        W43120  17.322   3.230   0.446  0.4161  0.1478  0.4212
27652W        W43121   6.354  12.588   3.672  0.0147 -0.1774  0.2957
27653W        W43122  13.740   3.837   4.119  0.1257 -0.0309 -0.0175
27654W        W43123  15.699  11.027  11.780  0.1386 -0.2238 -0.1770
27655W        W43124   6.473   8.220   0.659  0.1151 -0.2621  0.0958
27656W        W43125  15.746   1.611  16.637 -0.0853  0.0643  0.0768
27657W        W43126  10.418  11.477  15.507 -0.0701 -0.0188 -0.2120
27658W        W43127  17.105  16.650  15.250  0.1155 -0.1155 -0.1403
27659W        W43128  14.251   4.438  13.290  0.1885 -0.1028  0.0637
27660W        W43129   6.871   4.322   2.653 -0.0365 -0.0827 -0.1077
27661W        W43130  10.238  10.518   4.363  0.0304  0.3031  0.1107
27662W        W43131  12.532   0.962  16.540  0.2031  0.0444 -0.0625
27663W        W43132   0.156   5.090   3.382 -0.2462 -0.0678  0.3627
27664W        W43133   4.047  14.368  12.970  0.2144  0.0195 -0.0883
27665W        W43134   3.658   1.441  16.609 -0.1158 -0.1497  0.2055
27666W        W43135   4.477   1.194   1.871  0.1361  0.2734 -0.1038
27667W        W43136   4.545   3.105   4.155  0.0827 -0.1997  0.0810
27668W        W43137   0.482   3.453   3.514 -0.2304 -0.2635 -0.1504
27669W        W43138  15.757   1.039   2.993  0.0865 -0.1670  0.1869
27670W        W43139   7.888  17.051   3.372  0.4096 -0.0092 -0.3542
27671W        W43140   5.787   0.763  16.268  0.1832  0.1459  0.1163
27672W        W43141   2.027   2.265  14.814  0.2083 -0.2143 -0.1546
27673W        W43142   0.721  16.204  12.402 -0.0099 -0.0200 -0.1361
27674W        W43143   4.674   4.910  13.720 -0.1921 -0.0274  0.0094
27675W        W43144   2.638   9.066  14.522  0.0999 -0.0616  0.1350
27676W        W43145   8.557   9.796   4.089  0.0120 -0.0157 -0.0761
27677W        W43146   0.109   2.939  16.483  0.0730  0.0881 -0.3534
27678W        W43147   1.192   0.277  15.140  0.2169 -0.2044  0.0180
27679W        W43148   9.106   6.581   4.716 -0.3901 -0.0177  0.1695
27680W        W43149   4.559   7.137  14.641 -0.0429 -0.0923  0.1176
27681W        W43150   7.769   5.314   4.541 -0.0775  0.0369 -0.1196
27682W        W43151   4.101   3.489   3.179 -0.0612 -0.1236  0.2121
27683W        W43152   4.130  10.171  15.136 -0.0650 -0.1493  0.3472
27684W        W43153  17.038   0.152  15.670 -0.1424  0.2423  0.2393
27685W        W43154  12.314   2.937  15.169  0.4344  0.0818 -0.0241
27686W        W43155   4.538   6.815   0.270  0.0434 -0.1324  0.2016
27687W        W43156  14.435   1.066   5.776 -0.0983 -0.2571  0.0736
27688W        W43157  15.529  10.561   4.886 -0.2941  0.0741  0.1173
27689W        W43158   6.531  14.364   5.917  0.1338 -0.0340  0.1030
27690W        W43159  16.492  13.293   4.732  0.1446  0.1842  0.0799
27691W        W43160   2.798  11.165  14.140  0.0398 -0.0434 -0.2732
27692W        W43161  13.237   8.744   2.538  0.0533 -0.0652  0.0622
27693W        W43162   5.935   6.584   5.164  0.3247 -0.0329  0.2460
27694W        W43163   0.507  11.059   4.318  0.0368 -0.2182  0.1100
27695W        W43164   3.556   0.087  13.151 -0.0966 -0.0531  0.0359
27696W        W43165   9.991   2.727  15.075  0.0093  0.1575 -0.0567
27697W        W43166   9.969   9.970  16.436  0.0663  0.2012 -0.1195
27698W        W43167  11.264   5.043   6.558 -0.0784 -0.0012  0.0200
27699W        W43168  15.852  14.683  16.153  0.0204  0.0033  0.2193
27700W        W43169  15.000   9.191  14.840  0.3038 -0.4734 -0.0785
27701W        W43170   5.006   9.224   4.125 -0.3382 -0.2204 -0.1963
27702W        W43171   3.757   5.332  15.309  0.0208  0.1578  0.2648
27703W        W43172   5.462  13.993   5.631  0.2815 -0.2151  0.1071
27704W        W43173   2.847  16.612   4.842  0.0399  0.0359 -0.3863
27705W        W43174  16.387  14.635  12.101 -0.2554 -0.2450 -0.1479
27706W        W43175  10.674  15.382   0.294 -0.0842 -0.2409 -0.1135
27707W        W43176   4.317  12.230  12.188  0.2904  0.0252 -0.0655
27708W        W43177  13.491  14.196  16.677  0.0460 -0.0496  0.0427
27709W        W43178   4.659   4.264  14.692  0.0958 -0.1490  0.2534
27710W        W43179  13.183   8.562  14.930  0.5368  0.1914  0.1035
27711W        W43180  13.374   2.619  11.947 -0.1035 -0.0230 -0.2971
27712W        W43181   5.261  16.264   1.649  0.1767  0.0481  0.1181
27713W        W43182   2.212   7.272  16.231  0.0163  0.0341 -0.0546
27714W        W43183  13.803   7.861   0.825 -0.2697 -0.0366  0.0256
27715W        W43184   4.168   7.380  13.996  0.0044 -0.2324  0.0790
27716W        W43185   3.491  14.934   3.580  0.2076 -0.0540 -0.0693
27717W        W43186  17.482  14.994  13.713 -0.0868  0.1036 -0.0093
27718W        W43187  14.754  10.481  10.821  0.2233  0.2206 -0.1692
27719W        W43188   5.475   7.950  16.199 -0.2279  0.1597  0.2105
27720W        W43189  12.580   4.208  15.935  0.0054  0.0415  0.2428
27721W        W43190   8.902  10.866   2.656  0.0431  0.2136  0.3524
27722W        W43191   9.692   4.819  10.832  0.1579  0.2104  0.0226
27723W        W43192  10.812  15.866   2.177 -0.0180  0.1083  0.0077
27724W        W43193  17.220   9.797  11.191 -0.0380  0.2756  0.2931
27725W        W43194   1.652   2.238   5.179 -0.1039 -0.3131  0.0475
27726W        W43195  11.109   2.454  10.718 -0.1100 -0.0097  0.1018
27727W        W43196   4.241  16.207   1.362 -0.0410  0.2333 -0.0104
27728W        W43197  13.981  11.074   3.042 -0.2493 -0.1708  0.2227
27729W        W43198   0.304   9.460   1.411  0.1871  0.0973  0.1008
27730W        W43199  10.451  15.184   0.673  0.2127  0.0036  0.1021
27731W        W43200  15.739   7.952   1.037  0.2072 -0.0019  0.2718
27732W        W43201   8.275   8.038   0.885 -0.0703  0.2551  0.1474
27733W        W43202   2.203   9.489   2.297 -0.1478  0.2638 -0.0378
27734W        W43203   6.046  12.613   5.490 -0.2241 -0.0314  0.2916
27735W        W43204  11.154  10.979   5.594  0.0239  0.1474  0.0577
27736W        W43205   3.807   5.619   4.854  0.2068  0.1624 -0.0386
27737W        W43206  16.608   3.107  12.309 -0.1082  0.0202  0.2758
27738W        W43207  13.832   6.469  15.898 -0.2748 -0.2554 -0.2074
27739W        W43208  17.552  11.242  15.624  0.0163 -0.1932 -0.0078
27740W        W43209  11.984  15.635  16.292 -0.2535 -0.3258  0.1533
27741W        W43210   6.551  13.739   1.876  0.0817  0.0523 -0.1567
27742W        W43211   0.556  10.318   0.983 -0.1234 -0.2288  0.2171
27743W        W43212   8.109   8.217  15.278  0.1717 -0.0185 -0.0108
27744W        W43213   6.497   5.759  10.673 -0.3651 -0.0952  0.0503
27745W        W43214   2.618   5.437   1.247  0.4686 -0.0661  0.1313
27746W        W43215   2.038  11.607   2.762 -0.0331  0.0072  0.1605
27747W        W43216   8.559   2.080   5.947 -0.2592 -0.3174 -0.0152
27748W        W43217  17.183  10.258  14.733 -0.0661  0.0000 -0.2696
27749W        W43218  11.186  14.225   3.166 -0.1592  0.0980 -0.2769
27750W        W43219  15.776   9.072  13.928  0.0444  0.2861 -0.2747
27751W        W43220  13.790   5.623   3.158 -0.2366  0.2646  0.0412
27752W        W43221   5.334   4.203  13.175  0.1990 -0.1909 -0.1034
27753W        W43222  17.058   8.084   2.399  0.1988 -0.1681 -0.1202
27754W        W43223   6.299   8.767  14.578  0.1664 -0.0377 -0.0287
27755W        W43224  13.136  11.267  15.498  0.1006  0.0855  0.1559
27756W        W43225   9.199  13.435  12.350 -0.1880  0.2136  0.1981
27757W        W43226  12.487   2.179  12.905 -0.0130  0.5694  0.1155
27758W        W43227   8.633  10.674  11.979  0.0015 -0.1177 -0.0694
27759W        W43228  13.535  17.755  14.013 -0.2356  0.2035  0.1024
27760W        W43229   2.513  14.523   4.963 -0.1539  0.1348  0.2591
27761W        W43230  15.383  11.015  15.197  0.0269 -0.0688  0.1278
27762W        W43231   7.087  16.446  16.562 -0.1466 -0.0597 -0.0078
27763W        W43232   0.773   6.271  14.441 -0.2105 -0.1452  0.1363
27764W        W43233  12.037   1.137  15.399  0.1429 -0.0324 -0.2002
27765W        W43234   7.106  13.934   1.627 -0.1577  0.1632  0.0212
27766W        W43235   9.015  10.685  15.510 -0.3748  0.4258 -0.0235
27767W        W43236   8.177   7.542   0.686 -0.0324  0.1466 -0.3321
27768W        W43237   1.130   9.833   0.342 -0.4027 -0.2222  0.1666
27769W        W43238  14.506   8.730   0.378 -0.0940 -0.0955  0.2812
27770W        W43239  13.992  10.658   5.944 -0.0903 -0.0756 -0.1361
27771W        W43240   2.345  13.150   2.359  0.0626 -0.1592  0.3132
27772W        W43241  10.767   0.221  12.422 -0.0332  0.3980 -0.0669
27773W        W43242  10.760   5.479   5.020  0.0479 -0.2615 -0.0388
27774W        W43243   2.548  16.742   4.413  0.1632  0.2095  0.1580
27775W        W43244   8.562   7.376   0.340  0.2215 -0.0658 -0.0631
27776W        W43245  14.358   8.236   1.615  0.0383  0.2323  0.0629
27777W        W43246   2.268   6.176  15.524 -0.0067  0.4146  0.1541
27778W        W43247   9.511  16.496   2.105  0.2106  0.0561  0.0636
27779W        W43248   8.553  15.538   2.446 -0.1666 -0.2132 -0.1042
27780W        W43249   7.647  16.009   6.068 -0.0418 -0.2463  0.0424
27781W        W43250   6.597   8.627  16.635 -0.1538  0.2585  0.0820
27782W        W43251  11.278   8.673   0.146  0.0150  0.0405  0.3964
27783W        W43252   9.130   2.248  12.923  0.0507  0.2609 -0.1942
27784W        W43253   9.427   2.460  12.066 -0.1913  0.0554 -0.2162
27785W        W43254   3.920  14.659   3.823  0.1904  0.1629 -0.2115
27786W        W43255   2.157  12.023  14.515  0.0463  0.1851 -0.2310
27787W        W43256  17.554   5.221   0.226  0.0429 -0.1482 -0.0770
27788W        W43257  17.767   8.345  10.690 -0.1905  0.2217 -0.2019
27789W        W43258   6.970   7.471   4.511 -0.0702  0.1064 -0.0032
27790W        W43259  12.515   0.303  15.736 -0.3532 -0.0072 -0.0855
27791W        W43260   9.111  15.237  15.566  0.0147  0.1838  0.1610
27792W        W43261   3.540   4.190   4.214  0.1211 -0.2678 -0.4507
27793W        W43262   7.292  17.240   5.445 -0.1142 -0.2177 -0.1294
27794W        W43263   2.789   4.294  13.878  0.0004 -0.0618  0.1125
27795W        W43264   1.658  15.020  12.594 -0.1843  0.1719  0.3257
27796W        W43265   9.949  11.875   3.677 -0.3081  0.1428 -0.2642
27797W        W43266   2.368  16.554  13.054  0.1466  0.2360  0.1691
27798W        W43267  16.223   3.096   1.614  0.1618 -0.0634 -0.0124
27799W        W43268   7.140  10.923  15.284  0.1524  0.2033 -0.0145
27800W        W43269   9.351  14.001  15.401  0.2456  0.4555  0.0876
27801W        W43270  13.359  12.672   2.920 -0.0878  0.0105  0.2916
27802W        W43271   9.977   1.672   3.700 -0.0423  0.0121 -0.0560
27803W        W43272  14.864   5.921  12.816  0.0139 -0.3326  0.0774
27804W        W43273  12.930  10.505   3.008  0.0307 -0.0082 -0.1389
27805W        W43274  14.164   3.729   2.097  0.1617 -0.2137  0.1286
27806W        W43275  15.602   9.048  14.541  0.0177  0.0659  0.1600
27807W        W43276   9.297  12.555   5.398  0.0963  0.0925  0.0501
27808W        W43277  15.015   6.316  15.099  0.1346 -0.0265  0.1282
27809W        W43278  14.514  13.290   2.856 -0.0155  0.3837  0.1075
27810W        W43279   2.089   3.443   5.861  0.0565 -0.1023 -0.0871
27811W        W43280   1.301  13.280   1.010 -0.0897 -0.1031 -0.0889
27812W        W43281  15.612   7.705   2.897 -0.1415  0.2844  0.0892
27813W        W43282   6.389   6.521   3.168 -0.0755 -0.1669  0.0413
27814W        W43283   6.693  11.743   1.757 -0.0382 -0.0605 -0.3020
27815W        W43284  11.724  10.468   0.170 -0.1940 -0.2328 -0.2065
27816W        W43285   4.646   8.063  15.146 -0.4660  0.1172  0.1944
27817W        W43286   5.422   8.047   5.726  0.0656 -0.0959  0.0237
27818W        W43287   2.374  13.900   0.814 -0.1600 -0.1215  0.2156
27819W        W43288  16.617  12.499   1.082 -0.2702  0.0210 -0.0817
27820W        W43289  10.493  10.847   0.841  0.0270 -0.3881  0.0342
27821W        W43290  16.506   6.452   3.202 -0.0532  0.2346 -0.2303
27822W        W43291   5.331   3.123  12.088 -0.4804  0.1092  0.1102
27823W        W43292  11.200   1.045  15.978  0.0440 -0.2402 -0.1509
27824W        W43293   7.973   4.698  14.893  0.3266  0.0531  0.1078
27825W        W43294  14.355  11.041  14.356  0.0947  0.1146  0.0938
27826W        W43295   8.135  15.231   3.942 -0.1324 -0.0471  0.0764
27827W        W43296  15.958  13.747   0.818 -0.4190 -0.3560  0.2174
27828W        W43297   7.498   6.299   3.341  0.0675  0.0433 -0.0179
27829W        W43298   8.778  12.878  14.859 -0.2831 -0.0533  0.0180
27830W        W43299  13.250   6.172   2.378 -0.2222  0.2378 -0.0769
27831W        W43300   0.760   1.138  15.638 -0.0576  0.1288 -0.0944
27832W        W43301   7.648   4.745  16.602  0.0708  0.2083 -0.0409
27833W        W43302  13.731   4.894  11.577  0.0343  0.1000  0.1797
27834W        W43303   6.552  13.833   3.487 -0.0755  0.0029 -0.0745
27835W        W43304  17.020  14.879  15.362 -0.2167  0.1268 -0.0935
27836W        W43305   0.420   1.907  15.634 -0.0202 -0.0377  0.1678
27837W        W43306   9.666   5.927   5.097  0.0356 -0.2108  0.0186
27838W        W43307   6.543   7.111   5.463  0.0446 -0.0674  0.0653
27839W        W43308  13.983  14.371  15.483 -0.2508 -0.3900 -0.1057
27840W        W43309   6.682   0.508   1.274  0.0528 -0.1194 -0.0341
27841W        W43310   4.338  17.000   4.361 -0.2175 -0.2020  0.1897
27842W        W43311   5.166   1.620  15.359 -0.0356  0.1034 -0.2023
27843W        W43312   9.407   9.875   3.210 -0.1132  0.0600 -0.1446
27844W        W43313  10.364   8.512   1.110  0.1845  0.4219 -0.0711
27845W        W43314  10.792   5.891   4.068  0.2766 -0.0369 -0.1693
27846W        W43315   1.778   2.908  11.438  0.2397  0.1425 -0.1143
27847W        W43316  13.302   0.357   2.274 -0.0368 -0.1812 -0.2110
27848W        W43317  13.082  10.739  13.214  0.1823 -0.2118  0.2199
27849W        W43318   2.202   3.660   1.208  0.0426 -0.2339  0.4297
27850W        W43319   9.087   9.977   1.053  0.0807  0.0365  0.1646
27851W        W43320   9.707   7.535   2.520  0.1054  0.1194  0.2614
27852W        W43321  10.459   4.391  14.993 -0.0407 -0.0173  0.3134
27853W        W43322   5.450   7.900   4.325  0.0179 -0.0810  0.1055
27854W        W43323   8.741  11.600   4.124 -0.1041  0.2638 -0.1560
27855W        W43324   1.911   0.684   4.336  0.0234 -0.0543  0.1162
27856W        W43325  12.705   1.892  11.738  0.0822  0.0217  0.2479
27857W        W43326   7.694   8.761  12.133  0.2558  0.0020  0.0995
27858W        W43327  13.851   8.721  16.160 -0.0798 -0.3113  0.0099
27859W        W43328   0.717   5.510   1.529 -0.0548 -0.1287 -0.2604
27860W        W43329  13.137  16.215  12.856  0.2920 -0.1562 -0.1862
27861W        W43330   0.855   1.604   5.344 -0.0427 -0.1123 -0.0159
27862W        W43331  17.558   0.961   5.888 -0.0389  0.0033 -0.0300
27863W        W43332  14.420  13.797   2.977 -0.0096 -0.2756  0.0905
27864W        W43333  11.840  14.751   3.672 -0.0172  0.0342  0.3362
27865W        W43334  11.285   6.572   1.889 -0.0648 -0.1603 -0.1647
27866W        W43335   8.633   8.955  11.890  0.0525  0.2881 -0.1299
27867W        W43336   5.737   9.987  11.796 -0.0442  0.0725  0.2655
27868W        W43337   7.896   8.793   5.436 -0.1393  0.2963  0.2071
27869W        W43338  15.177   2.828   0.337 -0.0355  0.1786 -0.2810
27870W        W43339   3.043   8.490   3.043 -0.3080  0.0743 -0.1230
27871W        W43340   8.281   4.271   0.442 -0.1088  0.0654  0.1269
27872W        W43341  15.741  13.138   2.649  0.1165  0.0257 -0.1208
27873W        W43342   0.790   3.420   0.266  0.0002  0.0526  0.0932
27874W        W43343  10.691  13.359   2.512  0.1383  0.0765  0.2869
27875W        W43344   4.741   6.040  12.975 -0.2047  0.1578  0.0813
27876W        W43345  13.411  13.405   4.791 -0.3651 -0.0850  0.0751
27877W        W43346   6.896   4.816   3.505  0.3053  0.2466 -0.2486
27878W        W43347  17.154   0.773   0.401  0.0967  0.3409  0.0690
27879W        W43348  16.733  12.902   3.447  0.3117  0.2881  0.2216
27880W        W43349   3.828   4.991   2.179  0.2258  0.0388  0.0105
27881W        W43350  17.405  15.527  13.653 -0.0404 -0.2287  0.0950
27882W        W43351  12.568   6.990  14.060 -0.0829 -0.0177 -0.0874
27883W        W43352   0.227  15.878   1.352 -0.0611 -0.0674  0.1797
27884W        W43353  16.933   9.659   5.249  0.0536 -0.0681  0.1061
27885W        W43354  17.493  14.983   5.398  0.0566 -0.2354  0.1026
27886W        W43355   8.869   9.150  14.393 -0.1174  0.2442  0.1628
27887W        W43356  10.760   2.204  15.410 -0.1786 -0.4101  0.2619
27888W        W43357   7.588   3.709  11.042  0.2662  0.0733  0.3848
27889W        W43358   0.374   2.257  14.112 -0.0694  0.0233 -0.1210
27890W        W43359  17.253  13.924  14.469 -0.4549  0.2037 -0.0582
27891W        W43360   1.492  16.723  14.703  0.1352  0.1460 -0.0160
27892W        W43361   0.308   5.537  16.143  0.0935 -0.1125  0.2614
27893W        W43362  14.707   5.787  14.747 -0.1017 -0.1338 -0.1753
27894W        W43363   9.048   8.764  13.436  0.1169  0.6067 -0.0977
27895W        W43364  12.764  16.828  14.607 -0.1007  0.4403 -0.2557
27896W        W43365   8.976  15.076  15.080 -0.0038  0.1020 -0.1947
27897W        W43366   0.421  10.234   3.276  0.2451 -0.1660  0.1057
27898W        W43367   9.591   1.841   4.108 -0.1828 -0.2426 -0.0663
27899W        W43368  10.849   6.683   1.050  0.1515  0.0199  0.2443
27900W        W43369   9.200  10.672   0.053  0.0213  0.0299  0.1730
27901W        W43370  17.383   7.390   1.805 -0.0186 -0.2747 -0.3148
27902W        W43371   1.370  16.484  11.109  0.0144  0.0689  0.1443
27903W        W43372   8.796  15.216   4.061  0.1260 -0.2146 -0.2719
27904W        W43373   2.240   4.520   3.495  0.1149  0.0982  0.0538
27905W        W43374  15.154  10.720  15.565 -0.0725 -0.2485 -0.0706
27906W        W43375   0.060  10.626  14.797  0.1073  0.1259  0.2751
27907W        W43376   2.242   7.396  11.252 -0.1597  0.2504 -0.2234
27908W        W43377   1.751  17.645  12.599 -0.3280  0.1460 -0.1352
27909W        W43378   0.155   6.695   4.213 -0.0009 -0.1760 -0.1584
27910W        W43379   2.530   9.027   2.472  0.3013 -0.0920  0.1006
27911W        W43380   9.200   7.620  13.532  0.1194  0.0650 -0.3066
27912W        W43381   4.404  15.150  12.079  0.1224  0.1234 -0.3099
27913W        W43382   5.487   9.402  16.329 -0.0844  0.0619 -0.1649
27914W        W43383   5.342   9.945  15.534 -0.2917  0.2192  0.1983
27915W        W43384  14.325   8.264   3.451  0.0678  0.1576 -0.2725
27916W        W43385   4.175  11.319  11.210 -0.1851  0.0721  0.1381
27917W        W43386  13.399  17.082   2.224  0.0349 -0.0231  0.0390
27918W        W43387  16.807   5.890  15.199 -0.0152 -0.0453 -0.1454
27919W        W43388  11.102  10.047   1.706 -0.2746 -0.3236 -0.1903
27920W        W43389   2.007   0.153   4.303  0.0591  0.2202 -0.0379
27921W        W43390  14.626  15.625  16.051 -0.1727 -0.2261  0.0894
27922W        W43391   9.005   5.891   4.720  0.0316 -0.0668  0.1756
27923W        W43392  17.052   9.618  11.675 -0.0876 -0.0670 -0.0862
27924W        W43393   5.449   4.872  15.692 -0.0603 -0.0072 -0.2039
27925W        W43394   3.973   7.341   0.727  0.2611  0.0611 -0.0122
27926W        W43395   1.016   1.993   0.533  0.2375  0.0063 -0.0996
27927W        W43396  13.002  13.816   3.606 -0.0486 -0.2189 -0.2054
27928W        W43397   0.628   7.992  13.320  0.1494 -0.1651  0.0214
27929W        W43398  17.068   2.719  16.091 -0.0279 -0.0168 -0.2619
27930W        W43399   8.404   2.831  16.611  0.1118  0.1702  0.1362
27931W        W43400  10.882  16.278   5.146 -0.1391 -0.2784  0.0592
27932W        W43401  16.876  10.359   0.271  0.1847 -0.2401 -0.3136
27933W        W43402   5.675  16.007   1.378  0.1939  0.0549 -0.1128
27934W        W43403   5.243  11.895   0.067  0.2515  0.0020 -0.1938
27935W        W43404  14.043  17.646   2.647  0.2519 -0.0190  0.0663
27936W        W43405   8.376   7.309  12.683 -0.1306  0.1041  0.1486
27937W        W43406  10.897   6.859  16.410  0.2327  0.1753 -0.2181
27938W        W43407   9.201   3.389  12.290  0.0706  0.3400  0.0672
27939W        W43408   7.663   2.371   6.234 -0.3452 -0.0934 -0.0362
27940W        W43409   3.045   7.070   2.350 -0.0229  0.2173 -0.3267
27941W        W43410   6.232   3.697   6.442  0.0900 -0.2729 -0.1958
27942W        W43411  10.100   9.172   1.726 -0.0487 -0.1356 -0.1397
27943W        W43412  10.641  13.461  15.661  0.1589 -0.0393  0.0538
27944W        W43413  11.130   0.159   1.008  0.2144 -0.1436  0.0779
27945W        W43414   6.345   9.167  14.303  0.0054 -0.0105  0.0966
27946W        W43415  13.239   2.369   4.451  0.0335 -0.2206 -0.3155
27947W        W43416  11.166  12.947  15.545 -0.1483  0.0041 -0.0573
27948W        W43417   0.098  16.477   2.883 -0.1102 -0.0091 -0.3188
27949W        W43418  15.864   2.641  11.293 -0.0301 -0.2073 -0.1142
27950W        W43419   1.540  16.689  12.442  0.0790  0.0102 -0.0624
27951W        W43420   2.174  17.028  14.362 -0.4166 -0.2595 -0.2332
27952W        W43421  16.993   3.238  15.952  0.2796 -0.1615  0.3381
27953W        W43422  15.779  12.454   2.620  0.0462  0.2412  0.2470
27954W        W43423   2.973   5.222  15.572  0.0339 -0.2690 -0.1019
27955W        W43424   6.651   0.073   1.571 -0.0804  0.2215 -0.1633
27956W        W43425   0.979   0.903  12.128 -0.0278  0.0355  0.0784
27957W        W43426   8.804  10.478   1.258  0.4971 -0.2781 -0.1569
27958W        W43427  12.252  16.241  14.025 -0.1963 -0.2237 -0.0558
27959W        W43428  13.882   2.981   3.345 -0.0149 -0.0339  0.0593
27960W        W43429   2.773   0.846   5.894 -0.2730  0.2622  0.1642
27961W        W43430   8.661   2.061  16.254  0.1577  0.0223 -0.0401
27962W        W43431  14.142   1.442  16.261 -0.0390 -0.2017  0.1226
27963W        W43432  11.118  13.171   5.434  0.0072  0.2297  0.0629
27964W        W43433   2.411   5.448  15.006  0.2896 -0.1170  0.0119
27965W        W43434   2.085   9.145  13.383 -0.3697  0.0668 -0.2955
27966W        W43435   7.853   9.848   4.088  0.1196 -0.4344  0.2000
27967W        W43436  15.137  13.057  11.554  0.1829  0.0583 -0.0359
27968W        W43437  16.380  11.331   3.292  0.1224  0.0985 -0.1014
27969W        W43438  16.481   1.968  16.480  0.2320 -0.1743  0.0635
27970W        W43439   1.866   3.812   2.545 -0.1458 -0.0487  0.0115
27971W        W43440   7.674   5.828  13.463 -0.1725 -0.2371  0.1470
27972W        W43441  12.326   2.438  12.130 -0.1687  0.1445 -0.2323
27973W        W43442   1.786  16.469   2.476  0.0804 -0.0204 -0.1222
27974W        W43443   4.791   4.870  16.584  0.3068  0.0474  0.1006
27975W        W43444   6.384  10.634  12.247 -0.0849 -0.2102  0.0667
27976W        W43445   6.056   8.309   3.697 -0.0790 -0.0860 -0.1939
27977W        W43446   3.830   5.624   3.436 -0.2445 -0.2657 -0.2391
27978W        W43447  14.701   8.651   1.267 -0.2728  0.0078  0.3827
27979W        W43448  15.609  10.474   3.540 -0.1136  0.0624  0.0927
27980W        W43449  14.418  12.629   0.677 -0.1112 -0.0219  0.0108
27981W        W43450   7.047   9.336  13.881  0.1651 -0.0555  0.1032
27982W        W43451   6.924   2.619  13.631 -0.2198  0.0006  0.2559
27983W        W43452   0.166  13.197  14.189  0.2457 -0.2642 -0.0153
27984W        W43453   4.729   4.512   2.637  0.1705  0.3157  0.0476
27985W        W43454  15.591  11.141  13.413  0.3634  0.1268  0.2620
27986W        W43455  16.192   2.245  12.859 -0.0039  0.1901 -0.0832
27987W        W43456   7.571  10.879   1.150  0.0468  0.0301 -0.4208
27988W        W43457   4.885   8.442   2.874 -0.0958  0.0966 -0.2639
27989W        W43458   0.525   5.921   4.341  0.2869 -0.0794 -0.0796
27990W        W43459  13.693   9.061   5.206 -0.3262 -0.4489 -0.0979
27991W        W43460  17.299   1.980   4.409 -0.0125  0.1850 -0.0988
27992W        W43461  11.081   4.647   4.625 -0.0285  0.1203  0.1138
27993W        W43462  13.272  16.661  13.033 -0.1869 -0.3918 -0.0955
27994W        W43463   4.897  15.671   5.433  0.3418  0.1303 -0.3540
27995W        W43464  17.779   5.760   0.334 -0.1115  0.0007 -0.0112
27996W        W43465  15.677   7.799   0.516 -0.0336 -0.2199 -0.0444
27997W        W43466  10.928  13.330  15.251 -0.1570 -0.2255 -0.0471
27998W        W43467   7.634   6.394  14.341 -0.0002  0.0359 -0.0102
27999W        W43468   7.274   8.918  14.035  0.1838 -0.0305 -0.2252
28000W        W43469   4.829  14.837   2.930 -0.0196 -0.3145 -0.2535
28001W        W43470  12.880   3.058  10.955  0.3213  0.0756 -0.0321
28002W        W43471   1.766  15.800  11.345 -0.0443 -0.0468  0.0167
28003W        W43472   3.702  12.771  12.378 -0.2014 -0.1034  0.2512
28004W        W43473  15.295   9.265  16.179 -0.0212 -0.4120  0.1187
28005W        W43474   0.502  11.114   2.791  0.1179  0.0019 -0.0501
28006W        W43475  17.210   0.600  14.941 -0.1005 -0.0064 -0.1036
28007W        W43476   3.404  12.546   4.703 -0.0547 -0.0733 -0.3308
28008W        W43477  12.300  15.164   5.643 -0.0240  0.1916  0.1816
28009W        W43478  13.233   3.715   3.572  0.0792 -0.0238  0.1745
28010W        W43479   2.811   1.822   1.828 -0.0556 -0.1637  0.2029
28011W        W43480   5.484  11.152   1.318  0.0536 -0.1596  0.4095
28012W        W43481   2.473   3.950  13.199  0.2730  0.0740  0.0459
28013W        W43482   8.295   0.683   2.262 -0.0263  0.0288 -0.1057
28014W        W43483   9.213  13.243   0.023 -0.3998 -0.0007 -0.0649
28015W        W43484  15.948   6.421  13.859  0.2796 -0.1965 -0.0056
28016W        W43485   6.349  16.091   4.578  0.0257 -0.0413  0.0988
28017W        W43486   2.774   0.293   2.879  0.0015  0.2008 -0.1605
28018W        W43487  17.639  14.846  10.787 -0.1299  0.4300 -0.0695
28019W        W43488  12.068   2.966   2.049 -0.0879 -0.1632  0.0730
28020W        W43489   2.640  10.636   1.350  0.1923  0.2027 -0.0917
28021W        W43490   8.553   4.683  12.866  0.2330  0.2255 -0.0395
28022W        W43491  11.532   3.909   2.062  0.2320 -0.2730  0.0020
28023W        W43492   9.237  17.497   1.749  0.0961 -0.1398  0.2039
28024W        W43493   6.480   3.874  14.161  0.1452 -0.0342 -0.2783
28025W        W43494   4.882   2.961   1.653  0.0238 -0.1237  0.0375
28026W        W43495  13.564  17.058  15.363 -0.0679  0.0422 -0.0173
28027W        W43496  17.643   3.916  16.028 -0.2010 -0.3482  0.2283
28028W        W43497   1.554  12.210  12.635  0.0720 -0.1286 -0.0737
28029W        W43498   3.772   6.631  12.846 -0.0636 -0.0663 -0.0837
28030W        W43499  16.166   1.065  13.767 -0.3336  0.0952 -0.0073
28031W        W43500   5.538  11.893  13.956 -0.0682 -0.1821  0.0321
28032W        W43501  16.045   5.325  15.379  0.1873  0.0253  0.1608
28033W        W43502  10.650  12.482  11.798 -0.1873 -0.2437 -0.1182
28034W        W43503  13.502  16.612   2.480  0.1054  0.0498 -0.1001
28035W        W43504   3.376  12.549  13.586 -0.1159  0.2310 -0.1013
28036W        W43505   3.775   3.200  12.421 -0.1743  0.2515  0.1294
28037W        W43506   2.742   2.436   1.223 -0.0745 -0.3500 -0.1857
28038W        W43507  17.137   7.025   4.858  0.2516 -0.1699  0.0367
28039W        W43508   0.731  15.149  16.668 -0.2365 -0.1116  0.0712
28040W        W43509  11.702  15.693   6.030  0.2227  0.0489  0.2241
28041W        W43510   7.006   8.005  13.757 -0.2382 -0.0885  0.0473
28042W        W43511  17.655   7.997  13.211 -0.1242 -0.2222 -0.0138
28043W        W43512   7.436  12.323   3.563  0.1517 -0.2083 -0.1648
28044W        W43513   6.481  16.346  13.721  0.1184  0.1080 -0.1169
28045W        W43514   5.144  15.512  14.840  0.0795  0.0054 -0.1902
28046W        W43515  13.816  15.879   2.088 -0.0260  0.0383  0.3420
28047W        W43516   0.895  10.449   1.820 -0.0081  0.1170 -0.0990
28048W        W43517  15.225  14.140   4.015 -0.0040  0.1280 -0.0078
28049W        W43518   8.481  15.438  16.372 -0.1887 -0.2599  0.1543
28050W        W43519   8.046   4.829   4.631  0.0169  0.0885 -0.1511
28051W        W43520   5.562   7.434   5.591 -0.3895  0.0785  0.1988
28052W        W43521   6.896  11.296  11.827  0.2805  0.1289  0.1485
28053W        W43522   1.698  14.169  11.914  0.2878 -0.1397 -0.4671
28054W        W43523  11.710   1.153  12.231  0.0807 -0.1618  0.1948
28055W        W43524   3.562   5.085   3.360  0.0975  0.1585  0.1030
28056W        W43525   6.757  12.463   3.341 -0.2903 -0.1845 -0.1092
28057W        W43526  16.078  15.954   2.863 -0.1003 -0.2205 -0.2268
28058W        W43527  13.182  10.765  16.700  0.0713  0.0785  0.0478
28059W        W43528   0.267   1.124  14.898  0.0049  0.1574  0.0207
28060W        W43529   4.162   4.709  13.424  0.0864  0.0823  0.4479
28061W        W43530  15.866  12.986  12.713  0.2082 -0.0267  0.0893
28062W        W43531   2.194   4.686  14.365  0.0490 -0.1635 -0.0077
28063W        W43532  13.645  16.145  14.361  0.1637 -0.5640  0.1862
28064W        W43533   9.783  15.494  15.557  0.0765 -0.0394  0.2139
28065W        W43534   2.887  10.861   2.057 -0.2210  0.2454 -0.1990
28066W        W43535   6.961   8.206  11.928  0.1923 -0.3530  0.0077
28067W        W43536   3.233  14.098  15.099 -0.2279 -0.1244 -0.1931
28068W        W43537  14.632   2.137  13.704  0.1936  0.2090 -0.3194
28069W        W43538   0.758  16.568   4.225  0.1031 -0.3753  0.0562
28070W        W43539   1.638   7.820  11.156  0.2505  0.1674 -0.1965
28071W        W43540  13.043  13.525   1.216 -0.4485 -0.0028  0.2496
28072W        W43541  13.767   7.488   1.214  0.4039 -0.0263 -0.0546
28073W        W43542   3.323  17.446  15.484  0.3017 -0.1679 -0.1399
28074W        W43543  14.538  11.316  13.878 -0.1208  0.1242  0.1910
28075W        W43544  12.866  16.091   3.015  0.0783  0.0278  0.4303
28076W        W43545   9.676  10.251  12.551  0.2059  0.0173 -0.3012
28077W        W43546  14.856   9.097   4.577  0.1444 -0.2413  0.0475
28078W        W43547   9.057   0.840  16.509 -0.0273 -0.2323  0.1222
28079W        W43548   1.944   5.968   0.713  0.0443  0.3082 -0.0295
28080W        W43549   5.429  15.557  12.296 -0.0819  0.0751 -0.1419
28081W        W43550  11.449  17.300   3.190  0.0888 -0.2019  0.0602
28082W        W43551   4.581   6.262  11.698 -0.0966  0.1982 -0.2867
28083W        W43552   2.378   7.498  11.838  0.2279 -0.2030 -0.0680
28084W        W43553   1.750  11.873  11.786 -0.2715  0.0551  0.0073
28085W        W43554  13.998  13.153  13.268  0.0952  0.2545  0.0435
28086W        W43555   6.579   0.487  16.407  0.3886 -0.1831  0.0804
28087W        W43556   2.466  15.735  14.695 -0.0340 -0.2950  0.0740
28088W        W43557  10.548   5.054  13.515 -0.0495  0.0061 -0.0467
28089W        W43558  10.661  17.531  12.606 -0.3540 -0.0519  0.2187
28090W        W43559  10.350  12.751   5.387 -0.3783 -0.0795  0.0784
28091W        W43560  10.964  14.937   3.927 -0.4911  0.0928 -0.0580
28092W        W43561  16.216   4.350  11.499  0.0246 -0.0440  0.0166
28093W        W43562   3.832   7.075   5.045 -0.0802  0.2694  0.0221
28094W        W43563  12.094   2.086   5.125  0.0134 -0.0022 -0.3666
28095W        W43564  14.801  10.459   2.400  0.0373 -0.2083 -0.0684
28096W        W43565   7.129  13.398  12.509  0.5278 -0.1597  0.3712
28097W        W43566   7.859   1.962  15.542  0.0749  0.1384 -0.1812
28098W        W43567   1.260  10.346   0.394  0.1628  0.1006 -0.3551
28099W        W43568   5.330  11.618   4.150  0.0726  0.2696 -0.0569
28100W        W43569   5.689   6.527  15.004  0.0700 -0.0929 -0.1497
28101W        W43570   6.510   2.164   3.380 -0.1250  0.2689  0.0119
28102W        W43571   0.178  13.471   1.095 -0.0705 -0.0046 -0.0840
28103W        W43572   8.423   4.772  14.034  0.4423  0.0193  0.0691
28104W        W43573   4.860   7.693   1.807  0.0748 -0.2446  0.1391
28105W        W43574   9.537  14.738   0.749 -0.1148 -0.3233 -0.2052
28106W        W43575  10.200   7.716   0.515  0.2343  0.0424 -0.0913
28107W        W43576  13.233   6.236   0.661  0.1435  0.1903  0.1580
28108W        W43577   7.992   9.486  15.884  0.1359  0.1230  0.1667
28109W        W43578  14.941   6.863  13.901 -0.0027  0.1007 -0.3139
28110W        W43579  10.225   4.477  13.570  0.1063 -0.0951 -0.1825
28111W        W43580   9.462  13.389   2.104  0.0291  0.0805 -0.0134
28112W        W43581  13.947   0.652   2.045 -0.0434  0.0340 -0.0837
28113W        W43582   2.134   8.464   4.818  0.3973  0.1119  0.1217
28114W        W43583   8.048   5.662  15.936  0.1385 -0.0852 -0.0736
28115W        W43584   5.888   7.763   5.348 -0.1867  0.2952 -0.1790
28116W        W43585  16.128  10.940  10.894 -0.2066 -0.0166  0.0567
28117W        W43586   2.916   9.720  16.516 -0.1871  0.0220 -0.1416
28118W        W43587  14.523   0.714  12.323  0.2454  0.3014 -0.0955
28119W        W43588   0.418   5.624   3.314  0.4531  0.0644 -0.2817
28120W        W43589  11.111  16.832  12.041  0.2322 -0.0867  0.0116
28121W        W43590  13.895   2.959  13.606  0.0577 -0.1765 -0.0558
28122W        W43591   6.615   5.984   0.166 -0.4206 -0.1498  0.0184
28123W        W43592   5.226  14.517   0.670  0.1841  0.1320 -0.2615
28124W        W43593  10.754  11.186  14.088  0.2523  0.0414 -0.0075
28125W        W43594  14.762  10.812   3.537  0.2173  0.0301  0.0276
28126W        W43595   2.738   7.334  11.083 -0.0863  0.2536 -0.2274
28127W        W43596  13.736   2.464  13.583  0.1627 -0.0161 -0.2845
28128W        W43597   3.613  11.786  12.563 -0.0618 -0.0594 -0.0351
28129W        W43598   0.495   3.725  11.781 -0.2489  0.0317 -0.3105
28130W        W43599  16.929   8.351   1.698  0.3675  0.2415 -0.0444
28131W        W43600  10.111  17.620   3.036  0.1459  0.2168  0.1338
28132W        W43601   2.930   9.730  12.340 -0.1495 -0.1535  0.1251
28133W        W43602   0.949  12.126  15.668  0.4081 -0.2713 -0.3243
28134W        W43603  10.455  12.826  16.313  0.3964 -0.0039 -0.0151
28135W        W43604   5.459  10.269   0.854  0.0619  0.0255  0.3678
28136W        W43605   5.266  10.035   3.514 -0.0271  0.0740 -0.1160
28137W        W43606   2.480  12.332  12.422  0.0420 -0.0297  0.0584
28138W        W43607  12.536   6.547   0.433  0.0904 -0.2781 -0.4000
28139W        W43608   6.727   3.801  15.338  0.0518  0.0451  0.1281
28140W        W43609   6.054  11.962  13.471  0.0464 -0.2422 -0.1397
28141W        W43610  16.984  13.858  13.688  0.0430  0.0626  0.4379
28142W        W43611  13.124  17.609   0.913 -0.1200  0.1325 -0.3058
28143W        W43612  17.485   7.735  16.802  0.0395 -0.0492 -0.1093
28144W        W43613   4.855  17.314  14.160  0.1777  0.0542 -0.1083
28145W        W43614   1.523   6.868   1.734  0.0430  0.0706  0.1712
28146W        W43615   9.706   1.522  14.081 -0.1222 -0.1578  0.2981
28147W        W43616  17.608  16.164  11.258 -0.3117 -0.1976 -0.1037
28148W        W43617   9.615   7.048   2.507 -0.1465 -0.0200 -0.0446
28149W        W43618  11.267   5.988   4.465  0.1950  0.3740 -0.2924
28150W        W43619   6.191  12.766  11.234 -0.0166 -0.0367  0.1873
28151W        W43620  10.837  16.053  16.380 -0.4471 -0.0295 -0.0687
28152W        W43621  17.337   8.503  16.261 -0.0821 -0.0973  0.0153
28153W        W43622  17.283  10.275   2.758  0.0758  0.0776 -0.2827
28154W        W43623   7.725  12.760   4.606 -0.2366 -0.4428  0.1917
28155W        W43624   2.572   2.647  13.608 -0.0340  0.2603  0.2588
28156W        W43625   1.913  17.739   2.358 -0.1061  0.1596  0.0070
28157W        W43626   7.273   7.633  13.583  0.0854 -0.0619  0.0375
28158W        W43627  10.393   7.672  11.926 -0.1510  0.0271  0.0384
28159W        W43628   3.321   9.442  13.580  0.0992 -0.0816 -0.1189
28160W        W43629  16.671   4.195  15.607  0.1518  0.2171 -0.0794
28161W        W43630  15.923   0.056  13.494 -0.1515 -0.0920  0.0218
28162W        W43631   9.155   6.578   1.084  0.3734 -0.3792 -0.1743
28163W        W43632   8.099   7.574   5.264 -0.3664  0.2117  0.0042
28164W        W43633  12.820  12.485  10.770 -0.0011  0.0486 -0.0281
28165W        W43634  10.835  14.179   0.109  0.3754 -0.1164 -0.1198
28166W        W43635   1.825  14.637   2.857  0.0672 -0.1201  0.1619
28167W        W43636  10.891   7.813   5.719 -0.1802 -0.2212 -0.0718
28168W        W43637  10.468   7.178  15.392 -0.0477 -0.0331  0.2798
28169W        W43638   4.259   0.091  16.468  0.0204  0.2442 -0.0301
28170W        W43639  10.082   9.703   3.432 -0.1883  0.0803  0.1434
28171W        W43640  11.060  14.964  12.236 -0.4745 -0.0211 -0.1862
28172W        W43641   3.348   0.036   4.508  0.0662 -0.2706  0.1026
28173W        W43642  14.882  14.589   5.329  0.1256 -0.2254  0.0057
28174W        W43643   6.960   3.853  14.453 -0.0831  0.1532  0.0129
28175W        W43644   8.891   1.256   5.443 -0.1819  0.1627  0.0970
28176W        W43645  13.265   5.415   2.323  0.1574  0.0509 -0.1072
28177W        W43646   2.283   6.586   3.604  0.0391  0.0184 -0.2631
28178W        W43647   0.329  11.053  12.396 -0.2223 -0.2329  0.0518
28179W        W43648  14.326   9.605   0.333 -0.0238 -0.1933 -0.0327
28180W        W43649  11.257  17.414   5.879  0.1795  0.1750  0.0491
28181W        W43650   7.174  12.411  13.063  0.2059  0.1507 -0.1535
28182W        W43651   6.517  12.070   3.534  0.2530  0.1691 -0.1231
28183W        W43652  11.285   9.268  13.327 -0.3073  0.0281 -0.1417
28184W        W43653   0.784  14.907   4.853 -0.0334  0.1662 -0.1561
28185W        W43654   6.448  12.805   0.966  0.1030  0.1457 -0.2352
28186W        W43655  11.668   8.966   3.735 -0.1902 -0.1824 -0.0256
28187W        W43656  14.754  14.106   5.292 -0.2052  0.1802  0.2433
28188W        W43657   7.881  11.706  13.908 -0.0559 -0.1021  0.2879
28189W        W43658   7.124  11.268   2.821  0.0607  0.1486 -0.0166
28190W        W43659  10.339   5.262   5.248 -0.0396  0.1047 -0.0203
28191W        W43660  12.286   7.408   5.032 -0.0301  0.1608 -0.0440
28192W        W43661   5.777   2.111  14.331 -0.1714  0.0834  0.1092
28193W        W43662   9.957   0.477  16.377 -0.1406  0.1127 -0.1320
28194W        W43663   0.920  10.974  13.623  0.1187  0.1611 -0.1154
28195W        W43664   2.875   0.875  16.608  0.0140  0.2132  0.0460
28196W        W43665   5.620   1.454   1.135  0.0726  0.1033  0.0473
28197W        W43666   1.014   1.118  11.628 -0.0402  0.1274  0.1922
28198W        W43667  11.711   2.744  16.375  0.0435  0.0260  0.1511
28199W        W43668  15.226  16.953   2.779 -0.1730  0.0187 -0.2049
28200W        W43669   9.111  10.150  16.696  0.3208  0.0035  0.0128
28201W        W43670   2.319   2.413  16.180  0.1548 -0.4312  0.1329
28202W        W43671   8.368  17.127  16.534 -0.2015  0.1711  0.0804
28203W        W43672  16.665  12.706   2.904 -0.5708  0.1894 -0.0676
28204W        W43673   4.423   5.478  12.898 -0.1669 -0.0172 -0.1238
28205W        W43674   5.498   8.018  15.362  0.0651 -0.0696  0.0120
28206W        W43675   3.075  15.071  16.301  0.0470 -0.0006 -0.0900
28207W        W43676   9.975   2.210  13.351  0.0129 -0.4143  0.0081
28208W        W43677   8.428   6.598   3.564  0.2551 -0.4175  0.0886
28209W        W43678  10.360   2.496   5.080 -0.0723  0.1188  0.2074
28210W        W43679  14.305  16.200   3.839 -0.1814 -0.0148 -0.1059
28211W        W43680   3.069  13.870   5.179  0.4680 -0.0510 -0.0695
28212W        W43681  13.755  17.704   4.931  0.2121 -0.0376 -0.1215
28213W        W43682  16.832   9.289  14.464 -0.0110 -0.1680  0.0329
28214W        W43683  17.640  13.161  12.146  0.0222 -0.1135  0.0152
28215W        W43684   9.923  17.476   3.932  0.2499 -0.2826 -0.1718
28216W        W43685  17.608   3.421   4.151 -0.0133  0.1114 -0.5742
28217W        W43686   8.772  17.008  15.030  0.1664  0.0180  0.1356
28218W        W43687   8.297  13.144  11.841 -0.0903  0.2288  0.1752
28219W        W43688   8.538  11.189  14.232 -0.0637  0.0472  0.0597
28220W        W43689   0.688  12.668   2.270  0.0516 -0.0239 -0.0115
28221W        W43690   7.555   5.539  16.033 -0.0535 -0.2412 -0.2073
28222W        W43691   9.564  17.470  15.322  0.0142  0.5625 -0.0471
28223W        W43692  14.260   8.310  11.183 -0.1039 -0.2111  0.0514
28224W        W43693  16.907   3.423  11.451 -0.0755  0.0584  0.0515
28225W        W43694   0.219   7.411   0.078 -0.2037 -0.2461  0.2628
28226W        W43695   9.660   9.132  12.804  0.1130  0.2632  0.0288
28227W        W43696  12.084   1.545   3.491  0.1290  0.1734  0.0708
28228W        W43697   7.506   8.649  12.682 -0.0369  0.1406 -0.0744
28229W        W43698  14.006  17.350  13.253  0.1551 -0.1780 -0.0875
28230W        W43699  16.973   2.466  15.264  0.0079  0.1565  0.3629
28231W        W43700   4.961   8.336   3.421 -0.0465 -0.1907 -0.1538
28232W        W43701  10.061  15.433   2.459 -0.0548 -0.1782 -0.0802
28233W        W43702   5.355   5.039  12.025  0.3138 -0.3182 -0.0414
28234W        W43703   2.086  15.877  12.560 -0.0737  0.1468  0.1807
28235W        W43704  10.705   3.582   4.780 -0.1804 -0.1006 -0.0490
28236W        W43705  12.200   5.308   4.463  0.4145 -0.2802 -0.1692
28237W        W43706  16.377   0.715   5.467 -0.3388 -0.1620 -0.1906
28238W        W43707   9.690   7.811  11.308  0.0922  0.2022  0.0053
28239W        W43708  13.991   1.491   1.368  0.0118  0.4202 -0.1898
28240W        W43709  14.133  14.723  16.265 -0.1750  0.3399 -0.2371
28241W        W43710   2.173  16.344   4.202  0.1899  0.1392 -0.0403
28242W        W43711   3.670   7.049   3.109  0.2014 -0.1420  0.2381
28243W        W43712  15.998   4.957   5.241  0.0866  0.0389  0.2806
28244W        W43713   8.153   5.005   5.105 -0.1706  0.2807  0.0220
28245W        W43714   0.198   9.853  15.707  0.0224 -0.0766 -0.0283
28246W        W43715   8.863  10.653   4.226  0.0225  0.2397 -0.2173
28247W        W43716   5.027   1.060   6.223 -0.0218  0.4667  0.0372
28248W        W43717  14.512  17.438   4.604  0.0777 -0.0785  0.1864
28249W        W43718   1.941   5.282  13.517  0.0413 -0.3634  0.1323
28250W        W43719  14.819  13.400  11.953  0.2175  0.1370 -0.0219
28251W        W43720  15.571  15.187  14.366 -0.3301  0.2369  0.0850
28252W        W43721   5.815  12.335  13.744 -0.1078 -0.1975  0.0027
28253W        W43722  10.828  10.392   0.510 -0.1839  0.1275  0.3260
28254W        W43723  10.991   7.687   2.489  0.0129 -0.2694 -0.0369
28255W        W43724  12.392   2.968  12.499  0.1738  0.0070 -0.2214
28256W        W43725  10.770  14.581   4.286  0.0114  0.0121  0.1173
28257W        W43726  15.305   0.715   1.833 -0.0509  0.0159  0.1042
28258W        W43727  15.782   9.603  13.749 -0.0467 -0.0479 -0.0912
28259W        W43728  11.216  10.505   0.253  0.2930  0.0838 -0.1534
28260W        W43729  16.319  13.025  14.817  0.0088  0.2258 -0.2667
28261W        W43730  16.821  10.280   5.679  0.1035 -0.3128  0.0717
28262W        W43731   4.504   2.430  14.000  0.0121 -0.0352  0.1097
28263W        W43732   0.148  12.542   0.271  0.1325  0.1531 -0.0558
28264W        W43733   8.357  14.427   3.198 -0.1818  0.2374  0.1202
28265W        W43734   1.740  13.228   2.307  0.1325 -0.0280  0.2584
28266W        W43735   0.222   4.992   0.968 -0.1500  0.0952 -0.0288
28267W        W43736   6.474   8.154  11.982  0.2140  0.1435 -0.0650
28268W        W43737  11.025   2.348  16.437 -0.0227 -0.1232 -0.1174
28269W        W43738   9.097   4.357  15.984  0.0480 -0.3031 -0.0573
28270W        W43739   2.943   9.876   1.571 -0.0826 -0.0890  0.1413
28271W        W43740   2.214   9.891   4.863 -0.0606  0.0917 -0.0082
28272W        W43741   1.512   6.656  13.282  0.1055  0.1542 -0.1463
28273W        W43742   0.892   6.600   3.840  0.2828 -0.2198  0.1732
28274W        W43743   5.517  16.336  15.946  0.1641 -0.0928  0.0097
28275W        W43744  15.975  13.786   2.331 -0.3799 -0.3086  0.1478
28276W        W43745  14.919   4.218   4.659 -0.1687 -0.2508 -0.0425
28277W        W43746   6.465   6.857   0.375  0.1264 -0.1265 -0.0926
28278W        W43747  15.887  11.656   0.130  0.0130 -0.0613  0.1787
28279W        W43748   1.603   4.395  12.575  0.1356  0.4289  0.0525
28280W        W43749  17.192   2.285  11.614 -0.1922 -0.0378  0.1904
28281W        W43750  10.129  11.209  14.658 -0.2827 -0.0412  0.0080
28282W        W43751   1.667   6.938  15.373 -0.0234  0.2050 -0.0837
28283W        W43752  13.885   6.158  13.283  0.0299 -0.0730 -0.0596
28284W        W43753   9.974   7.285  16.220  0.0537  0.1121  0.0222
28285W        W43754  16.924   4.615   3.756  0.4297 -0.2983 -0.0784
28286W        W43755  16.633   4.590   3.302  0.0497  0.0282 -0.1139
28287W        W43756  12.301   9.070  13.441 -0.0874 -0.0932  0.3355
28288W        W43757  14.201   6.096  14.619  0.3558 -0.1977 -0.0471
28289W        W43758  15.717   3.353  13.119  0.4684 -0.0852  0.0975
28290W        W43759  10.547   8.910  11.946  0.3639  0.0614  0.0422
28291W        W43760   6.853  12.943  16.804 -0.0145  0.0962 -0.1178
28292W        W43761   5.591   1.226  10.476  0.1366 -0.1780 -0.1890
28293W        W43762   5.759   4.365   4.050  0.3579 -0.2130 -0.0869
28294W        W43763   0.409   3.125   0.356 -0.0821 -0.1829  0.4428
28295W        W43764   5.169   0.254   6.478  0.2465  0.1606  0.3316
28296W        W43765   5.338  16.544  15.529 -0.0706  0.0163  0.0074
28297W        W43766  16.593  15.293  16.396  0.2559 -0.2806  0.1577
28298W        W43767   8.094   2.213  13.586 -0.1034 -0.2053 -0.1118
28299W        W43768   8.409  15.992  11.482 -0.0600 -0.0125  0.2423
28300W        W43769   7.509   2.512   5.804  0.1220 -0.0530 -0.0613
28301W        W43770   8.292  12.359  12.030  0.2833 -0.3060 -0.2225
28302W        W43771   0.538   7.245  11.897 -0.1743 -0.1959 -0.1458
28303W        W43772  15.170  16.645   5.047  0.0762 -0.0644 -0.1365
28304W        W43773   5.902   4.108  13.857  0.1867  0.0377 -0.2224
28305W        W43774  14.467   6.599   2.876  0.1093  0.3841  0.0690
28306W        W43775   6.167  16.446   1.949 -0.2145  0.2772  0.2262
28307W        W43776   7.397  11.224   3.262  0.1124 -0.0176  0.2562
28308W        W43777  13.217  16.773  16.146 -0.3213  0.2493 -0.3017
28309W        W43778   9.559  17.531   0.278  0.1216  0.2525  0.2948
28310W        W43779   9.744   8.959   3.398  0.0559  0.0632  0.0840
28311W        W43780  10.279   4.171   3.347 -0.0754 -0.2150  0.2487
28312W        W43781   2.582  10.773   2.788 -0.0647 -0.0956 -0.2160
28313W        W43782  12.864   6.741  13.654  0.0032  0.1290  0.2221
28314W        W43783  13.835  10.214   1.603  0.1427  0.1137 -0.2582
28315W        W43784   7.554   6.316   5.645 -0.0758 -0.2068  0.0417
28316W        W43785   2.725   0.239   0.593 -0.3264  0.1191 -0.1183
28317W        W43786  16.564   7.553  12.810  0.1491  0.2064  0.3321
28318W        W43787   4.971   5.223  13.075 -0.0222  0.0452  0.5838
28319W        W43788  16.285  10.075  15.110  0.2230 -0.0208  0.1703
28320W        W43789   0.259  11.080  15.511 -0.1866 -0.1527  0.4263
28321W        W43790   8.854   5.733  15.840  0.1039 -0.1727  0.1445
28322W        W43791   4.668   8.242  16.574  0.0443 -0.1302 -0.4077
28323W        W43792   5.706  15.521   2.515 -0.1631  0.2712 -0.2567
28324W        W43793  12.305  15.381  16.586 -0.0179  0.2440 -0.0371
28325W        W43794  11.192   4.515  11.369 -0.1644 -0.1144  0.1886
28326W        W43795  15.020  11.331   5.988  0.1352  0.1579  0.4777
28327W        W43796   3.623   9.536   3.047 -0.4039 -0.0668 -0.1431
28328W        W43797  10.602  14.954  15.273  0.0292 -0.1955  0.2275
28329W        W43798  14.328   8.865   4.491 -0.0459 -0.4282 -0.2364
28330W        W43799  15.390   3.562  12.784  0.1092 -0.1427  0.0999
28331W        W43800   6.084   7.432  15.073 -0.0391  0.1200  0.0693
28332W        W43801  10.937  15.893  13.069 -0.0429 -0.2242  0.1680
28333W        W43802   9.422  17.761  13.055  0.2454  0.1316  0.3104
28334W        W43803   8.408   8.187  12.392 -0.0941  0.3024  0.0012
28335W        W43804   0.972  13.043  12.567  0.0907  0.0962 -0.0887
28336W        W43805  17.763   2.385   1.024  0.2606 -0.2879  0.0030
28337W        W43806   1.640   3.173   4.567  0.0932  0.0495 -0.0712
28338W        W43807   4.285  15.118   4.185 -0.3039  0.0318  0.0132
28339W        W43808  11.828  10.059  14.292 -0.0261  0.0101 -0.1898
28340W        W43809   7.205   2.944   3.275  0.0496  0.2000  0.0470
28341W        W43810   9.401   4.327   3.809 -0.0234 -0.0544 -0.0174
28342W        W43811   7.061   2.016   3.957 -0.0760  0.1533 -0.1511
28343W        W43812   7.863  16.568   0.294  0.3907 -0.0499  0.2392
28344W        W43813   4.623   1.961   5.047 -0.2112 -0.1372  0.0068
28345W        W43814  14.620  14.827   4.087 -0.3237  0.0601 -0.1997
28346W        W43815   7.089   8.996   2.053 -0.2415 -0.0807  0.1429
28347W        W43816   5.045   3.275  13.544  0.2280 -0.0014  0.5123
28348W        W43817  10.254  11.327  12.122 -0.1826  0.0236  0.1536
28349W        W43818   1.118   2.158  13.547 -0.0785 -0.1454 -0.0274
28350W        W43819  14.201  14.763   1.136  0.2159 -0.1973  0.0152
28351W        W43820   0.222  14.196  12.812  0.1410  0.2260  0.1737
28352W        W43821   3.135   9.842  16.035  0.2591 -0.1088 -0.0044
28353W        W43822   4.084   9.917   2.773 -0.0797 -0.1034 -0.1716
28354W        W43823   0.363  10.676   0.023  0.3343  0.3883 -0.2427
28355W        W43824   4.931   5.552   1.087  0.0099  0.0192  0.0546
28356W        W43825   8.040  14.287   4.463 -0.0501  0.0312  0.0112
28357W        W43826   0.155   0.434   6.183  0.2801  0.1198 -0.1860
28358W        W43827   3.758  16.654   3.387 -0.0623  0.3778 -0.2087
28359W        W43828  14.006  14.873  13.946  0.5136 -0.0619 -0.0892
28360W        W43829  14.421  12.522  12.916 -0.0603  0.4140  0.0324
28361W        W43830  12.353  16.527  15.303 -0.0939 -0.2494  0.1559
28362W        W43831   9.029   0.716   0.753  0.3473 -0.1789  0.1170
28363W        W43832  14.772   7.596  13.074  0.0278  0.0532  0.1575
28364W        W43833   2.857  16.462  12.676 -0.2083 -0.0327 -0.3362
28365W        W43834  16.991  10.635   3.274 -0.0098 -0.0407 -0.1636
28366W        W43835   1.231  11.782   0.857 -0.1752 -0.2212 -0.1351
28367W        W43836   8.278   7.169  13.340  0.3005 -0.0678  0.0582
28368W        W43837  14.405   3.221   2.078  0.0537  0.2703 -0.0901
28369W        W43838  17.435   2.631  12.023 -0.3551  0.1556  0.0614
28370W        W43839   6.431   8.886  12.428 -0.1322 -0.0688 -0.0157
28371W        W43840   4.496   2.305   4.518  0.0131 -0.0021 -0.0785
28372W        W43841   8.374  12.078   0.288 -0.0075  0.0467  0.1092
28373W        W43842   2.061  10.130  14.777 -0.1242  0.2168 -0.3484
28374W        W43843  13.263  15.796   0.652 -0.3229  0.0662  0.1691
28375W        W43844   9.622   2.794  14.646 -0.0230 -0.1940 -0.1678
28376W        W43845   7.852   2.014   3.034 -0.1045 -0.2035 -0.2833
28377W        W43846   0.055  12.733   5.624  0.1181  0.0769 -0.0831
28378W        W43847   4.076   3.716  12.490 -0.0472  0.1441  0.0942
28379W        W43848  11.902   3.134  12.629 -0.1033  0.2772  0.1857
28380W        W43849  11.694   9.824   2.701 -0.1859 -0.0452 -0.1274
28381W        W43850  15.842  17.287   4.499 -0.0285  0.0354  0.0375
28382W        W43851  16.139   8.865   3.811 -0.0868 -0.2068  0.0833
28383W        W43852  14.759  15.422   1.420 -0.0425 -0.4778  0.0737
28384W        W43853   1.006   6.323  15.871 -0.0117  0.2097 -0.1765
28385W        W43854  16.686   2.260  12.345 -0.2080 -0.1741 -0.3208
28386W        W43855  10.182   8.413  13.138  0.1285 -0.2928  0.1054
28387W        W43856  14.884  12.197  14.988  0.0691  0.3857 -0.2226
28388W        W43857  11.726  10.478  12.643 -0.4518 -0.1433  0.1751
28389W        W43858   6.062   2.197  16.116  0.1900  0.4975  0.2466
28390W        W43859   9.275   9.991  15.731 -0.1603 -0.4950 -0.0175
28391W        W43860  12.694  14.488   1.006 -0.1375 -0.0334 -0.2280
28392W        W43861   1.001   0.509   5.434 -0.0417  0.3429 -0.0250
28393W        W43862   3.103   1.087   1.105  0.2182 -0.0712 -0.0609
28394W        W43863   5.371  17.530  14.072 -0.4775 -0.0144  0.2965
28395W        W43864   2.906   3.721   3.495  0.1715 -0.1737  0.0198
28396W        W43865   7.684  15.822  16.601  0.0299  0.0643 -0.0425
28397W        W43866   2.272   0.764  13.276 -0.4768 -0.0914 -0.2051
28398W        W43867  17.652  14.403   1.493 -0.0491  0.2342  0.1132
28399W        W43868  15.525  12.990  12.329 -0.1400  0.0944  0.0817
28400W        W43869  12.356   2.689  14.363 -0.2101  0.0980  0.0562
28401W        W43870  17.005  16.535   4.672 -0.0848 -0.2921  0.1915
28402W        W43871  13.419   6.799  13.698  0.0667  0.1826  0.1111
28403W        W43872  16.279  16.761   5.742 -0.0145 -0.0649  0.2704
28404W        W43873  13.661  13.138  11.565 -0.2880  0.1351  0.1469
28405W        W43874   8.262   1.053  13.601 -0.4497 -0.2321  0.3457
28406W        W43875  10.113   7.239   4.769  0.2017  0.0618  0.0584
28407W        W43876  14.468   4.184  11.799 -0.3534 -0.2260  0.0935
28408W        W43877  16.369  15.415  11.351 -0.3205 -0.3165 -0.1785
28409W        W43878   2.901   2.118   2.294  0.3210  0.3018  0.0077
28410W        W43879   8.575   2.113   5.028  0.0340  0.0866 -0.5085
28411W        W43880  15.393  11.978  16.327  0.1895 -0.0765  0.3797
28412W        W43881  10.358   4.197  11.867  0.3036 -0.1450 -0.2477
28413W        W43882  10.310  15.064  13.908 -0.1716 -0.0720 -0.2097
28414W        W43883  12.268  12.894  11.858 -0.0971 -0.1415  0.2087
28415W        W43884  12.005  15.889   0.974 -0.0669 -0.0898  0.0774
28416W        W43885   6.426  17.527  14.078  0.1113  0.2082  0.0997
28417W        W43886   0.451   8.888  13.948 -0.1392 -0.6636  0.0374
28418W        W43887   3.903   3.083  10.310  0.1360  0.0142  0.0288
28419W        W43888  11.677   5.323  14.895 -0.0815 -0.0810 -0.0419
28420W        W43889   2.923  10.583  12.302  0.3795 -0.1656 -0.1318
28421W        W43890   9.433  12.811   4.086  0.0693 -0.1219 -0.0307
28422W        W43891  16.831   5.767  13.062 -0.0142  0.2068  0.1842
28423W        W43892   8.750   5.422  13.151 -0.2717  0.2181  0.1313
28424W        W43893   2.788  13.631  14.463  0.0250  0.0836  0.0676
28425W        W43894   4.472  14.017   5.588  0.1445  0.2147 -0.3737
28426W        W43895   9.607  14.632   3.738 -0.1984 -0.1433  0.0120
28427W        W43896  13.161  12.611   0.644  0.0861  0.2124  0.2219
28428W        W43897  14.162  13.089  12.278 -0.2779 -0.0888 -0.2078
28429W        W43898  16.584  14.335  15.891  0.2101  0.0099 -0.0511
28430W        W43899   6.080  14.846   3.880 -0.0594 -0.3872 -0.0591
28431W        W43900   3.527   5.402   2.964  0.1268 -0.0807  0.0885
28432W        W43901  10.951   0.528  15.809  0.1858 -0.2905 -0.1510
28433W        W43902   2.500   6.137  12.877 -0.2358 -0.1666 -0.0923
28434W        W43903  16.811  10.096   1.325 -0.1573 -0.1829 -0.1318
28435W        W43904  17.496   9.442   4.132 -0.0935 -0.1056  0.0203
28436W        W43905   4.141   4.156  14.791 -0.0585  0.3105  0.0456
28437W        W43906   8.997  10.519  13.334 -0.1342  0.0743 -0.2941
28438W        W43907   1.307  10.671  11.331 -0.3288  0.0946 -0.2243
28439W        W43908   8.320  13.922   5.736  0.1636  0.0743  0.0690
28440W        W43909   6.196  13.631   0.525  0.0476 -0.0757  0.1376
28441W        W43910  12.086  13.858   1.595  0.0163  0.2913  0.1394
28442W        W43911  16.528   1.548   4.262  0.0398 -0.1153 -0.0380
28443W        W43912  13.849   4.637   2.818  0.0573 -0.0060  0.2081
28444W        W43913  10.403  11.176  11.662 -0.0843  0.0614  0.0629
28445W        W43914   6.399   9.393   1.851  0.1962  0.2737 -0.2005
28446W        W43915   1.200  13.414  12.945 -0.2445  0.1967  0.2574
28447W        W43916  15.855  15.354   6.245  0.0233  0.0910 -0.3298
28448W        W43917   1.883  15.631  14.831 -0.0950 -0.0582 -0.3332
28449W        W43918   7.521  11.755   0.245  0.0490 -0.2709  0.0235
28450W        W43919   2.716   8.771  12.378 -0.2682 -0.0927 -0.2054
28451W        W43920   6.129  14.997  12.149  0.1676  0.1784  0.0224
28452W        W43921   8.774   5.960  16.376 -0.0715  0.1129  0.1226
28453W        W43922   7.133   5.089  13.872 -0.0768  0.1234  0.0700
28454W        W43923   5.089   7.060   5.255  0.2163 -0.0982 -0.0800
28455W        W43924  16.963   8.064  11.925  0.0944  0.3547  0.2364
28456W        W43925   2.096  12.552  11.995  0.0009 -0.2181  0.0671
28457W        W43926  14.010  12.705  14.754 -0.2011 -0.2253 -0.2929
28458W        W43927  11.020   6.172   2.912  0.0077  0.2861  0.1817
28459W        W43928  15.217   9.971   1.243 -0.3401  0.1291  0.0142
28460W        W43929   2.944  14.644  13.759  0.0923  0.0115 -0.0592
28461W        W43930  12.689  14.438  14.325 -0.0559 -0.1332 -0.1055
28462W        W43931   2.761   1.548  15.533  0.0445  0.0669 -0.1533
28463W        W43932   5.478  16.635  16.486 -0.4064  0.0758 -0.0716
28464W        W43933   3.910  17.030   4.111  0.2217  0.0195 -0.0744
28465W        W43934   5.531   8.985   0.553 -0.0061  0.2370  0.2496
28466W        W43935  17.126   0.491  15.988 -0.0558  0.0051  0.0496
28467W        W43936   5.511  10.016  12.863 -0.2251  0.0617  0.2349
28468W        W43937  10.640  10.515  12.254 -0.0685 -0.0336 -0.1209
28469W        W43938  13.651   5.595   1.229  0.0382  0.1025 -0.1480
28470W        W43939  13.314   7.678   2.344  0.1775 -0.0475 -0.0407
28471W        W43940   4.208   0.846  11.577  0.0390 -0.0601  0.0092
28472W        W43941  14.428  12.537   1.275 -0.0138 -0.1150  0.0633
28473W        W43942   7.344   5.288   2.842 -0.2407  0.1265  0.1374
28474W        W43943   2.864  11.856   0.091 -0.0966  0.0787 -0.0381
28475W        W43944  13.316   6.156   4.409  0.3348 -0.2764  0.1213
28476W        W43945   4.175  16.060  14.137  0.0360  0.3036 -0.0656
28477W        W43946  14.187   6.771   1.486 -0.2492  0.0500 -0.0209
28478W        W43947  12.061  17.453   3.747 -0.0411  0.0048 -0.0357
28479W        W43948  16.543   6.115   0.276 -0.2342 -0.1044 -0.4121
28480W        W43949  14.732  13.505  15.373  0.0724 -0.0752 -0.0492
28481W        W43950  15.463  10.389   1.373 -0.2289  0.0837  0.2176
28482W        W43951  15.224   3.077  12.194 -0.0623  0.1508 -0.1467
28483W        W43952  17.656  13.577  14.413  0.0116 -0.0901  0.1005
28484W        W43953  12.311   9.668   6.345  0.1444 -0.1478  0.0083
28485W        W43954  14.072  10.776   0.710  0.0251 -0.2498 -0.3049
28486W        W43955   3.668   2.249  14.415  0.0760 -0.0561 -0.0382
28487W        W43956  12.290  10.309  12.778 -0.0708  0.2369  0.1560
28488W        W43957   5.162   9.984  16.824  0.0775 -0.0729  0.1158
28489W        W43958  14.607  10.863  11.621 -0.1085 -0.1938  0.1459
28490W        W43959  17.528  17.062   1.082  0.0207  0.0599  0.1230
28491W        W43960   8.730   4.366   0.095 -0.0274  0.4914  0.0571
28492W        W43961   3.739  17.066  14.788  0.3263  0.0910 -0.2784
28493W        W43962   4.718  11.736   2.588 -0.0745 -0.1560  0.0524
28494W        W43963   6.191   5.592   2.865 -0.0689  0.1361 -0.2275
28495W        W43964   9.704  15.973  15.905  0.0150 -0.1321  0.1890
28496W        W43965   5.667   0.961  11.864  0.0953 -0.0354  0.2098
28497W        W43966  16.851  10.606  13.926  0.1970  0.2335  0.2606
28498W        W43967   0.765  10.096   0.547  0.1405 -0.0699 -0.0676
28499W        W43968  17.162   7.047   4.369  0.0087  0.2597  0.1078
28500W        W43969  10.441   8.455  16.496  0.0107 -0.0288 -0.0320
28501W        W43970   4.605   7.514  16.389  0.0087  0.3430  0.0510
28502W        W43971   4.718   0.498   5.150  0.2961  0.1194 -0.1581
28503W        W43972  12.840  15.723   4.106 -0.2918 -0.3260 -0.0579
28504W        W43973   9.929  13.319  15.185  0.3746 -0.2683  0.1386
28505W        W43974   0.731   1.658  16.421  0.0085  0.0000  0.2140
28506W        W43975  13.727   7.965   5.820  0.0703  0.0719  0.1631
28507W        W43976   4.591   7.219  14.162  0.0369  0.1182  0.0891
28508W        W43977   9.389   3.636  15.423  0.0221  0.2069 -0.1306
28509W        W43978   1.499  10.322   0.797 -0.2789  0.1987 -0.0475
28510W        W43979  17.371   5.468   5.350 -0.0602  0.0167  0.0862
28511W        W43980  17.186   1.423   3.509  0.2951  0.2869  0.4074
28512W        W43981  16.081  15.478  15.418  0.0864  0.1241 -0.1511
28513W        W43982   9.679   9.808  13.650 -0.2040  0.3365  0.0362
28514W        W43983   7.102   6.412  14.367  0.4113  0.2261  0.2747
28515W        W43984   1.060   5.823   4.849  0.2235  0.1940  0.0120
28516W        W43985  14.751  13.811   1.892  0.1729  0.0800 -0.2282
28517W        W43986   4.283  16.474   2.664  0.2149  0.0693  0.0708
28518W        W43987  15.735  12.376   4.047 -0.0162  0.1226 -0.2591
28519W        W43988   8.540  10.284  14.275 -0.0388 -0.0861  0.1519
28520W        W43989  16.643  10.953   3.512  0.1580 -0.2611  0.2231
28521W        W43990   7.042  16.381  12.878  0.0281  0.0014  0.2911
28522W        W43991   4.167   2.380  12.588  0.2392 -0.1841 -0.0660
28523W        W43992   1.954   6.774  11.976  0.0822  0.0018  0.0501
28524W        W43993   3.806  10.947   0.516 -0.1640 -0.2992 -0.1530
28525W        W43994   6.858   7.855  13.285 -0.0892  0.2298  0.2015
28526W        W43995   9.192  12.674  15.174  0.2824  0.0422 -0.0102
28527W        W43996  13.295  13.298  12.474 -0.0343  0.0305 -0.0135
28528W        W43997  15.895  15.932  15.463 -0.0052 -0.0938 -0.3345
28529W        W43998  11.092   4.811  12.158 -0.2483 -0.2434  0.0165
28530W        W43999   2.523   4.488  15.467  0.0774  0.0414  0.1441
28531W        W44000   8.214  14.301   2.663  0.0883  0.2519  0.0066
28532W        W44001   3.736   9.346   0.416 -0.0415  0.1371 -0.0588
28533W        W44002   6.978   3.920  11.301  0.0782  0.1928 -0.2281
28534W        W44003   6.579  14.579   3.025 -0.0376 -0.0869 -0.0665
28535W        W44004  10.261  10.901   6.183 -0.0619  0.0354  0.0348
28536W        W44005   5.386  16.121  13.414  0.0654 -0.2420  0.2144
28537W        W44006   6.496   1.467   4.026  0.2279 -0.2635 -0.0167
28538W        W44007   7.336  13.336  11.356  0.0616  0.1673 -0.2413
28539W        W44008   5.328  16.099  12.400  0.0893 -0.0572 -0.0259
28540W        W44009   0.387   6.233  11.556 -0.0878 -0.0894  0.2541
28541W        W44010   6.006   2.791   6.151  0.0588  0.5019  0.0631
28542W        W44011  10.074  11.418  12.670 -0.2254  0.4123  0.1827
28543W        W44012   7.889   6.443   2.966  0.0394 -0.1396 -0.0670
28544W        W44013   7.600   1.227   5.816 -0.0578 -0.0481  0.0832
28545W        W44014  12.666  10.489  14.435  0.1104 -0.1251  0.1137
28546W        W44015  15.596  14.779  12.764 -0.2229 -0.1583 -0.0235
28547W        W44016  12.297   5.912   0.838 -0.1851  0.2368 -0.3255
28548W        W44017   8.326   2.863   0.782  0.0017 -0.0423  0.0598
28549W        W44018   8.777  11.263   3.256  0.0597 -0.2446  0.0001
28550W        W44019   8.325  17.493  14.340  0.0910  0.0405  0.0824
28551W        W44020   8.999   4.974   3.568  0.1016  0.2394  0.1337
28552W        W44021  10.853   2.730  15.269 -0.1100  0.1531  0.0628
28553W        W44022  16.434   4.911  13.499  0.2029 -0.0388 -0.0397
28554W        W44023  14.517  13.840  14.962  0.0204 -0.0059 -0.1993
28555W        W44024   1.268  11.180  14.786 -0.1112  0.1319 -0.2874
28556W        W44025   9.921   7.642  14.704  0.2634  0.2129 -0.0048
28557W        W44026   5.896   4.296  12.779 -0.3089 -0.0252  0.1823
28558W        W44027   0.824   0.065  14.818 -0.1270 -0.0093 -0.3311
28559W        W44028  17.418  12.900   2.022  0.1910  0.2174 -0.2045
28560W        W44029   8.296  11.178   3.438  0.0887  0.0273  0.1402
28561W        W44030   3.586   4.230   5.268  0.0564  0.1670 -0.1383
28562W        W44031  15.995  12.294  13.246 -0.2242  0.1377  0.0481
28563W        W44032   4.752   9.808  13.622 -0.1465  0.1149  0.0711
28564W        W44033   2.627   1.106   5.040  0.1700 -0.2054  0.0467
28565W        W44034  17.290  11.686   1.729  0.0336  0.2774  0.1328
28566W        W44035  15.397   4.321   2.640 -0.1450  0.0084 -0.1129
28567W        W44036   0.134  15.692   0.166 -0.0110 -0.0650 -0.3080
28568W        W44037  11.600  16.807  14.724 -0.1952 -0.0998 -0.2133
28569W        W44038  13.145   7.386  15.455  0.1436  0.1943  0.0754
28570W        W44039   3.728  13.690   1.532  0.1579 -0.4666 -0.1913
28571W        W44040   4.288  11.536  15.862  0.0825  0.5739  0.0498
28572W        W44041   6.746  15.820  11.668  0.0572  0.3238 -0.2157
28573W        W44042   4.035  16.046   1.778  0.2233 -0.3232 -0.0757
28574W        W44043  10.476  14.841   4.584 -0.3261  0.0731 -0.1672
28575W        W44044   7.018   1.196  15.590 -0.1463  0.0825  0.1335
28576W        W44045   6.322   4.910   5.384 -0.1938 -0.0820 -0.0939
28577W        W44046   4.805  13.312  15.367  0.1891 -0.0126 -0.1580
28578W        W44047  10.549  16.034  15.366  0.0149  0.3027 -0.4433
28579W        W44048  17.205  15.633   2.296  0.0496 -0.2108  0.2761
28580W        W44049   3.993   4.891   1.219  0.0684 -0.2736 -0.3957
28581W        W44050   0.747   2.071  15.270 -0.0971  0.1384  0.0189
28582W        W44051  13.105  16.569   4.573  0.0998 -0.0052  0.0618
28583W        W44052  16.023   1.778  11.777 -0.1416  0.0526  0.3477
28584W        W44053   4.046  12.632  12.041 -0.1467 -0.0779  0.4003
28585W        W44054  13.216   3.968   5.023 -0.1627  0.0164 -0.0219
28586W        W44055   1.001   7.443   1.688  0.0611 -0.0593  0.3134
28587W        W44056  12.137  10.827   1.920  0.6492  0.1027  0.1730
28588W        W44057   3.932  15.991  16.757  0.2479  0.0542  0.3483
28589W        W44058  10.044   1.797   1.696 -0.0165 -0.0937 -0.0670
28590W        W44059  15.466  10.543  12.212  0.3366 -0.2608  0.1088
28591W        W44060  14.007   4.825  15.541  0.1721 -0.1694 -0.3130
28592W        W44061  13.498  14.430   2.245 -0.1867 -0.0503 -0.0480
28593W        W44062   2.900   6.539  16.832 -0.0619  0.1160 -0.1826
28594W        W44063  13.680   6.951   1.258 -0.1028 -0.0149 -0.0138
28595W        W44064  15.819  10.637  15.713 -0.2061 -0.0421  0.0266
28596W        W44065   9.720   6.019   3.355  0.0055  0.1720  0.1398
28597W        W44066   9.876   6.481   1.653  0.0639  0.0866  0.0513
28598W        W44067  12.276   1.138   3.250 -0.0319 -0.0679 -0.1638
28599W        W44068   0.789  13.893   3.964  0.3397 -0.0418  0.1081
28600W        W44069   2.110  13.757   5.236  0.0281  0.1110 -0.1021
28601W        W44070  12.510   1.680  12.697  0.1627 -0.0953 -0.3383
28602W        W44071   7.424  16.529  14.132  0.3163  0.3879 -0.1570
28603W        W44072   9.367  11.451  14.746  0.2098 -0.0476  0.2159
28604W        W44073  10.132  13.077  14.727 -0.1597  0.3010  0.0084
28605W        W44074  14.207   4.600  15.908 -0.2667 -0.1095 -0.1393
28606W        W44075   6.878   5.072   0.107  0.1060  0.1897 -0.2606
28607W        W44076   4.608  14.232   2.390  0.2238  0.1649  0.0496
28608W        W44077   8.127  12.736   0.605  0.2162 -0.0853 -0.1393
28609W        W44078   5.068  16.349  16.200 -0.2245 -0.0739  0.0274
28610W        W44079  12.884   2.774  13.131  0.1888  0.0279  0.1708
28611W        W44080   7.983  11.179   2.043  0.1878 -0.1282  0.2063
28612W        W44081   8.940  10.334   2.246 -0.1578  0.1511 -0.0177
28613W        W44082   1.689   9.605   0.115  0.1525 -0.0132 -0.1054
28614W        W44083   8.967  11.702   2.462 -0.1027 -0.3355  0.1534
28615W        W44084   7.686   9.924  14.141 -0.1483  0.0699 -0.0305
28616W        W44085   3.427   1.024  16.401 -0.2122 -0.0693 -0.0207
28617W        W44086   5.323  12.342   0.795  0.0043  0.2002  0.1028
28618W        W44087   7.537  12.777   3.096  0.0736  0.2572 -0.0418
28619W        W44088   4.889  14.600   3.878  0.2495 -0.1166  0.0754
28620W        W44089   5.427  13.427   3.823  0.0006 -0.2074  0.0536
28621W        W44090   6.563   9.313  13.803  0.1917  0.2364 -0.1144
28622W        W44091   3.674   8.396   4.323  0.0676 -0.1291  0.0199
28623W        W44092   8.347   3.040   4.602  0.1268 -0.0578  0.1548
28624W        W44093   6.906  10.128  12.906  0.0796  0.1644 -0.0351
28625W        W44094  15.279   7.486  15.726 -0.3891  0.2563 -0.0219
28626W        W44095   0.964  16.870   0.649  0.1990 -0.2063 -0.1898
28627W        W44096   9.359   3.700   0.448 -0.1945 -0.2639  0.0725
28628W        W44097   9.823  12.636   0.009  0.0045  0.0813 -0.1331
28629W        W44098   1.274  12.276  11.131  0.1026 -0.0650  0.1865
28630W        W44099   1.993  16.687  12.218  0.1537  0.0697 -0.1113
28631W        W44100  15.934   7.381  12.154  0.0802 -0.0316  0.0687
28632W        W44101   8.904   4.147   4.643 -0.0535 -0.0666  0.1143
28633W        W44102  13.308   5.097   1.191  0.2925 -0.1150 -0.0323
28634W        W44103  15.431  15.267  12.698 -0.1222 -0.0144  0.0064
28635W        W44104   4.358   6.883  13.772 -0.0438 -0.0237  0.1022
28636W        W44105  13.617  14.308   3.344  0.1184  0.2083  0.3332
28637W        W44106  11.460  13.027  14.664  0.0942 -0.3054 -0.1613
28638W        W44107   6.720   3.795   4.060 -0.3356  0.1705  0.2066
28639W        W44108   4.954   0.298  12.444 -0.1084 -0.1112 -0.0744
28640W        W44109  13.537   2.970   1.980  0.2922  0.0462 -0.2789
28641W        W44110   5.527  12.734   2.503  0.3028  0.4886  0.0292
28642W        W44111  10.290   7.279   5.233  0.1423  0.0427 -0.0825
28643W        W44112  13.430  15.413  12.801 -0.2806 -0.0668 -0.0171
28644W        W44113  15.827   7.928  13.636 -0.0526  0.0154 -0.2308
28645W        W44114   5.092   3.135   0.795 -0.1464  0.2249 -0.2289
28646W        W44115  11.494   5.400  12.749 -0.0903  0.2279 -0.1696
28647W        W44116  17.387  11.316  14.996  0.3711  0.1732 -0.0479
28648W        W44117  11.952  10.974  12.693  0.2328  0.1103 -0.4520
28649W        W44118  16.950  12.604  16.791  0.2915  0.0817 -0.0760
28650W        W44119  13.714  17.259   4.748 -0.1405 -0.2076 -0.0192
28651W        W44120   1.956   9.266   3.190  0.1789 -0.1735  0.2006
28652W        W44121  13.273  13.191  16.267  0.2102 -0.1498 -0.0340
28653W        W44122   0.921   9.384  11.058 -0.0556  0.0328  0.5054
28654W        W44123   7.982  11.927  13.269 -0.0615  0.1400  0.1588
28655W        W44124   7.889  17.600   6.047  0.0760 -0.0796 -0.2209
28656W        W44125  11.912   5.121  12.620 -0.0653  0.1763 -0.2615
28657W        W44126  14.474  17.141   3.260  0.0789  0.1296 -0.1697
28658W        W44127  17.552   4.505  11.589 -0.2509  0.1616 -0.0686
28659W        W44128  11.944  11.726   4.374 -0.0348  0.3122 -0.1803
28660W        W44129   6.331   7.198   0.013  0.2802 -0.0414 -0.1593
28661W        W44130  16.828  10.536  13.441  0.0338 -0.1760  0.1154
28662W        W44131  11.245  14.152   2.481 -0.0428 -0.1510  0.0305
28663W        W44132   9.776  17.324   2.039  0.1318 -0.0899  0.0888
28664W        W44133   7.346   5.724   5.941  0.0921 -0.0284 -0.2019
28665W        W44134   1.290   1.114   1.102 -0.1089 -0.0497 -0.0526
28666W        W44135  11.461  15.077   6.723  0.1077  0.0699 -0.1458
28667W        W44136   5.061   1.325   5.659 -0.0410 -0.2793 -0.0536
28668W        W44137   3.226  16.971   2.231  0.0126  0.1464 -0.1295
28669W        W44138  16.316  12.679  11.476 -0.1339  0.0063 -0.4895
28670W        W44139   6.890   8.873  13.701  0.1176 -0.0119  0.0809
28671W        W44140  17.525   0.570   3.439 -0.2870  0.0283  0.0357
28672W        W44141  11.021  15.954  15.069  0.0536  0.0625  0.0720
28673W        W44142   3.934   8.879  15.193  0.0011 -0.1886  0.2619
28674W        W44143   2.219   4.497  11.347 -0.0820 -0.2403 -0.1818
28675W        W44144  14.078   0.506   2.707  0.0052  0.0927  0.2186
28676W        W44145   8.500  10.457  11.521 -0.0076 -0.2749 -0.1169
28677W        W44146   2.890  15.775  11.319 -0.1086  0.0064  0.1220
28678W        W44147  12.709   7.627   5.352  0.1345  0.1904 -0.0355
28679W        W44148   3.476   9.556  11.677  0.1386  0.3356  0.0542
28680W        W44149  13.253   5.987   5.114 -0.0392 -0.1260  0.0996
28681W        W44150   5.878  14.678  12.476  0.0480 -0.1018 -0.3611
28682W        W44151   5.650   9.004   2.758 -0.0345 -0.0805  0.0241
28683W        W44152   8.221   6.597   2.664 -0.1298  0.0752  0.1270
28684W        W44153   9.500   6.506   4.373 -0.0609  0.0139  0.1382
28685W        W44154  10.522   4.261   0.695  0.0914  0.1464  0.0047
28686W        W44155   2.628  16.223   4.139 -0.0971 -0.0874 -0.1993
28687W        W44156   7.592   4.884  12.661  0.1639  0.1613  0.0073
28688W        W44157   5.713   1.128  13.650  0.1543  0.0122 -0.2934
28689W        W44158   1.585   4.846   2.857  0.3236 -0.1718  0.1125
28690W        W44159   9.388  10.268   1.341 -0.1115 -0.2590  0.0101
28691W        W44160  14.482   1.127  12.572  0.0727 -0.2467 -0.3242
28692W        W44161  13.374   8.233  13.106  0.1015 -0.0552  0.2913
28693W        W44162  15.512  14.491  12.178  0.0287  0.0078 -0.1092
28694W        W44163   0.850   6.369  12.440 -0.2778  0.2298  0.2281
28695W        W44164  11.072   1.187   2.932  0.1341  0.1798 -0.0342
28696W        W44165   8.797   2.840   4.375  0.1154 -0.0312 -0.1054
28697W        W44166  14.969   3.616   0.961  0.3360 -0.0756  0.1761
28698W        W44167  16.665  14.392   5.594  0.1386 -0.0573 -0.0926
28699W        W44168  14.874  17.038  12.699  0.0082 -0.3414 -0.3015
28700W        W44169  13.768   6.738  13.236  0.0636 -0.0681  0.1525
28701W        W44170  17.118  14.033  10.539  0.1155 -0.1251  0.0313
28702W        W44171  15.463   4.879  16.545 -0.3465  0.1342 -0.0210
28703W        W44172  14.155   6.359   0.599 -0.1208 -0.0410  0.0023
28704W        W44173   7.306   1.793  12.003  0.2576  0.2310  0.2144
28705W        W44174   7.350  10.841  14.338 -0.0075  0.0497 -0.0234
28706W        W44175   8.421   9.400   0.425  0.0400 -0.2723  0.3898
28707W        W44176   9.901  15.466   0.493 -0.2639  0.2010  0.1391
28708W        W44177   5.603  12.112   4.865  0.1601 -0.2437 -0.2566
28709W        W44178  14.610   3.642  15.768 -0.0292 -0.0561 -0.0116
28710W        W44179  13.988   7.485   3.854 -0.0983  0.2088  0.0195
28711W        W44180  11.789   7.587  11.861 -0.0634  0.3704  0.1683
28712W        W44181  10.480   5.624  11.059  0.1223  0.4736  0.3807
28713W        W44182   7.765  13.413  13.528  0.1788 -0.0542  0.0656
28714W        W44183  12.853  10.349   4.195  0.0947  0.0221 -0.0317
28715W        W44184  12.544  10.425  11.599  0.0694 -0.3917 -0.6131
28716W        W44185  15.428   6.106  11.727  0.2350  0.1710  0.1344
28717W        W44186  15.923  16.478   1.059  0.4143  0.0737 -0.2712
28718W        W44187   9.979  14.760  14.651 -0.3264 -0.0872 -0.3212
28719W        W44188  10.789  12.483   0.354  0.1306 -0.2648  0.2647
28720W        W44189   3.555  14.603  11.586 -0.2092 -0.3110 -0.1908
28721W        W44190   7.632   2.313   6.798  0.3671 -0.2211 -0.0774
28722W        W44191   7.765  16.522  13.647  0.0671 -0.1791 -0.2057
28723W        W44192  14.310  13.023  12.794  0.3588  0.1600 -0.2370
28724W        W44193   3.291   7.288   1.835  0.0869 -0.1109  0.4044
28725W        W44194   0.454   7.006  15.090 -0.0729 -0.0119 -0.1627
28726W        W44195  16.663   3.749   5.457 -0.0716  0.1900  0.1695
28727W        W44196   9.015  16.411   2.183  0.2995  0.1961 -0.0520
28728W        W44197  16.236   3.938   4.808  0.0044  0.2906  0.0221
28729W        W44198   8.101   5.126  15.059  0.0728  0.0663  0.1459
28730W        W44199  10.194  16.028  13.953 -0.2115  0.2560  0.1100
28731W        W44200   4.626  15.707  12.448  0.1450 -0.0494  0.0268
28732W        W44201  13.425  17.086  11.817  0.0140  0.3639 -0.2307
28733W        W44202   5.784   3.935  15.720  0.0235  0.1152  0.0474
28734W        W44203  13.496  10.495   2.244  0.3049  0.2269 -0.4623
28735W        W44204  17.387   2.677   0.260 -0.0334 -0.1244 -0.1091
28736W        W44205  10.806   3.919   3.050 -0.1840  0.0520 -0.2576
28737W        W44206  13.372  15.761  12.483 -0.0142 -0.2710  0.3478
28738W        W44207   2.166   9.669   1.372  0.0575 -0.1565 -0.1601
28739W        W44208   9.594  14.348  14.586 -0.4314  0.2648 -0.0906
28740W        W44209  11.069  11.683  14.668 -0.1848  0.1397  0.3291
28741W        W44210  16.978  13.249  14.368 -0.1957  0.0740  0.3129
28742W        W44211  11.360  11.759   0.844  0.0414 -0.2274 -0.2826
28743W        W44212  11.713   6.886   3.130 -0.1048 -0.3634 -0.1612
28744W        W44213  13.652   5.546  15.894  0.2123  0.3955  0.1617
28745W        W44214  12.336  17.028   2.952  0.1962 -0.2118 -0.2531
28746W        W44215   5.909  10.089   4.594  0.1839  0.1766  0.0394
28747W        W44216   2.648   9.839  11.778  0.2102 -0.1247 -0.4351
28748W        W44217  11.292   8.485  14.337  0.1244  0.4264 -0.0273
28749W        W44218  10.120   9.281  15.866  0.2010 -0.0963  0.0127
28750W        W44219   7.112   7.262   2.390 -0.0190 -0.1490  0.0473
28751W        W44220   4.483   1.402   0.944 -0.1259 -0.0972 -0.1124
28752W        W44221  14.711  16.718   2.984 -0.1945  0.1735  0.1594
28753W        W44222  11.773  15.241  15.351 -0.1686  0.0741  0.1036
28754W        W44223  12.467  12.966  16.378 -0.2116  0.0264  0.0682
28755W        W44224   1.881  16.284  10.498  0.1360 -0.0873  0.0375
28756W        W44225   8.827  15.827  15.603  0.1095 -0.1309  0.0442
28757W        W44226   6.852  11.341  14.959 -0.1274  0.1193 -0.0495
28758W        W44227   7.920   0.350   5.106 -0.0918  0.0466 -0.1729
28759W        W44228   6.632   8.520  14.339 -0.0103 -0.1545 -0.0214
28760W        W44229   6.335  17.084   5.621  0.3215 -0.1609  0.1508
28761W        W44230   6.630  17.037  14.149 -0.1231  0.2007  0.1414
28762W        W44231   6.242  16.376   5.607  0.2222  0.3395 -0.1667
28763W        W44232  12.018  10.641   5.821  0.2855  0.0015  0.0617
28764W        W44233   6.492   9.268   3.672 -0.1950  0.0213  0.1013
28765W        W44234   9.547   4.030   1.682 -0.0969  0.0906 -0.1876
28766W        W44235   7.799  14.349   6.426  0.0713  0.1087 -0.0502
28767W        W44236  10.697   3.935  12.174 -0.2481  0.0803  0.3687
28768W        W44237   8.798   8.889  13.872  0.0019 -0.1535  0.1122
28769W        W44238   0.957  16.418  15.603  0.0362 -0.1095  0.2207
28770W        W44239  12.882  17.621   3.525 -0.0322  0.1505  0.6093
28771W        W44240   9.748  16.126  14.763  0.0517  0.1174 -0.0411
28772W        W44241   2.373   1.345   2.349  0.3157  0.2273 -0.1234
28773W        W44242   6.379   2.857   6.515  0.1276 -0.2301 -0.0270
28774W        W44243  15.744   3.079  15.820 -0.1035  0.2173 -0.2034
28775W        W44244   2.740  14.885   3.404 -0.0950  0.0364  0.0572
28776W        W44245  17.643  16.529  12.709  0.1527  0.3672  0.1504
28777W        W44246  15.489   1.131   0.613 -0.1137  0.1584 -0.1362
28778W        W44247  16.508  10.044   4.477 -0.0652 -0.1936 -0.2604
28779W        W44248   6.747  15.221   3.390 -0.1039  0.3403 -0.1757
28780W        W44249   1.823  10.181   4.830 -0.1377  0.1567  0.1561
28781W        W44250  11.604   0.503   4.411 -0.0603  0.0511  0.1675
28782W        W44251   2.965   0.472   3.337  0.1344 -0.0605 -0.0494
28783W        W44252   6.452  14.189   2.501  0.0601 -0.2559 -0.2303
28784W        W44253   3.368  15.624  11.556 -0.0552  0.0248 -0.1601
28785W        W44254  12.959   4.770  13.658  0.4272  0.1973 -0.2639
28786W        W44255  17.107   3.202   2.113  0.1292  0.1062 -0.0121
28787W        W44256   4.331  13.564   3.025 -0.3388 -0.2425  0.1122
28788W        W44257  11.774  11.400  12.431  0.5254  0.0061 -0.0618
28789W        W44258   6.125   0.676   0.331 -0.2640  0.1188  0.0185
28790W        W44259   3.808   8.881   0.384  0.0658 -0.0872 -0.3550
28791W        W44260  11.454   2.858   4.065 -0.0426  0.1046  0.0573
28792W        W44261  11.188   4.244  13.529 -0.3669 -0.1116  0.2903
28793W        W44262  12.473   3.694   3.946  0.0664  0.2890  0.1386
28794W        W44263   2.003  17.231  13.512  0.1088 -0.2011 -0.3891
28795W        W44264  14.710  10.948  15.859 -0.0106 -0.2726 -0.4057
28796W        W44265  11.934  16.482  14.335 -0.1245 -0.0438 -0.0941
28797W        W44266  14.177  11.488  13.524 -0.1010  0.1574  0.1730
28798W        W44267  16.474  12.866   3.883 -0.2013  0.2147  0.2018
28799W        W44268   4.745   3.905   4.406 -0.0738  0.0430  0.1338
28800W        W44269  14.602  14.267   3.228 -0.1869  0.1880 -0.2426
28801W        W44270   1.418   6.437   0.001 -0.2774 -0.0440 -0.0946
28802W        W44271   0.532   7.594  11.064  0.0759  0.1047  0.3011
28803W        W44272   4.318   9.915  12.020 -0.0508  0.3679 -0.2799
28804W        W44273   4.664  11.336  15.229 -0.1426  0.0470 -0.2549
28805W        W44274   3.242   2.062  14.071  0.1220 -0.0351 -0.1723
28806W        W44275  10.733  14.322  13.499  0.2242  0.0288 -0.0522
28807W        W44276   5.210   0.325  10.730 -0.0668  0.2507  0.0916
28808W        W44277  17.431  14.594   0.509  0.0040  0.0856 -0.0387
28809W        W44278  15.264  12.736  16.732  0.2389  0.0682 -0.1918
28810W        W44279   0.675  11.184   4.907 -0.2911  0.0674 -0.1524
28811W        W44280  11.069  12.327   3.286  0.1274  0.1184  0.1436
28812W        W44281   8.399  17.142  13.785  0.0004  0.1543 -0.2286
28813W        W44282   9.500   4.183  16.304 -0.0722 -0.3476  0.2987
28814W        W44283   9.955   7.612   6.558  0.0465  0.2755  0.0656
28815W        W44284  15.205   1.082   3.112  0.2109  0.2563 -0.1582
28816W        W44285   8.828   5.170  12.013 -0.2701  0.0759 -0.0456
28817W        W44286  11.905  10.615   3.312  0.1194  0.2279  0.3399
28818W        W44287  14.602   3.638  10.626 -0.1313 -0.2270 -0.1519
28819W        W44288   0.413   7.983   2.311 -0.0720  0.1279  0.1867
28820W        W44289  13.041   0.531  10.621  0.1937 -0.2026 -0.2118
28821W        W44290  11.422   9.947  12.652 -0.0500 -0.0979  0.0898
28822W        W44291  16.919  12.172   4.191  0.1807  0.0420  0.1105
28823W        W44292   0.503   4.600  14.547  0.4788 -0.3007  0.1053
28824W        W44293  13.123   2.779  13.943  0.1488 -0.2342  0.0845
28825W        W44294  14.629  14.981   1.543 -0.0681  0.3039 -0.1513
28826W        W44295  10.372  16.931   1.444  0.0374 -0.2947 -0.0396
28827W        W44296   0.674   8.166   5.050 -0.1507  0.1810 -0.1572
28828W        W44297  17.000  17.742   3.741 -0.0399 -0.1770 -0.1477
28829W        W44298  10.354  14.749  16.767  0.1784  0.3726  0.1164
28830W        W44299   5.161  16.626   3.284  0.3410  0.1133  0.2346
28831W        W44300   7.540   8.131  16.635 -0.0585  0.0543  0.1138
28832W        W44301   2.415   9.672  16.407  0.2172  0.0573  0.4333
28833W        W44302  17.190  17.497  14.403 -0.0496  0.2303 -0.0798
28834W        W44303  16.327   8.789  11.546  0.1794 -0.0950  0.1668
28835W        W44304   2.209  17.353   3.711  0.2531  0.0669 -0.2019
28836W        W44305  11.949   3.882   2.391  0.2311 -0.0727 -0.1003
28837W        W44306   3.283   6.627   5.607 -0.0327  0.0208 -0.3210
28838W        W44307   7.596   3.124  11.291 -0.0884 -0.3042 -0.0741
28839W        W44308   4.149   1.939   0.371  0.0560  0.0591 -0.0348
28840W        W44309  17.296  12.525   1.707  0.1782  0.1362  0.0678
28841W        W44310   3.535   7.158  13.444  0.0797 -0.2191 -0.1491
28842W        W44311   4.011   8.107  12.882  0.1256 -0.3983 -0.0920
28843W        W44312   8.521  15.551   1.501  0.0791 -0.0682  0.0961
28844W        W44313   2.129  16.896  16.193 -0.0759  0.0566 -0.0952
28845W        W44314  13.910  17.728  14.404  0.0728  0.0781  0.1963
28846W        W44315   2.053   3.373   2.369 -0.1798  0.1996  0.0490
28847W        W44316  16.305   4.009  12.501 -0.0881  0.2579 -0.0093
28848W        W44317   3.247   2.899  16.150  0.3953  0.1928  0.1153
28849W        W44318   9.384   5.212   3.293  0.2508 -0.0171 -0.1159
28850W        W44319   3.413   0.819  15.412  0.1032 -0.1670 -0.0961
28851W        W44320  10.618  16.278   6.577  0.0017  0.3806  0.2498
28852W        W44321   0.803   7.131   4.000 -0.0349  0.0175  0.3928
28853W        W44322  14.816   5.014   3.198  0.0991  0.2938 -0.0085
28854W        W44323  11.797   9.488   6.212 -0.1180 -0.4756  0.1515
28855W        W44324  13.094  13.596   3.200 -0.2052  0.0184 -0.0055
28856W        W44325  12.307   5.658   0.386  0.2611 -0.0649 -0.0165
28857W        W44326  11.491  17.436  15.630  0.0254 -0.0911 -0.1365
28858W        W44327   9.685  15.707  15.047 -0.1707  0.1314  0.0919
28859W        W44328   6.160   5.931  16.728 -0.3143 -0.0642  0.1133
28860W        W44329   0.812   6.673   1.177  0.0193  0.0234  0.2065
28861W        W44330  17.309  15.400  14.687  0.0148 -0.0810  0.0640
28862W        W44331   5.683  16.686   3.551 -0.0114  0.0205 -0.1678
28863W        W44332   9.208   2.937   1.140  0.0167  0.1150  0.1650
28864W        W44333  14.829   6.689  16.374  0.1629  0.2354 -0.0244
28865W        W44334   6.617  12.664  11.528  0.3430  0.1480 -0.0897
28866W        W44335   2.446   2.583  14.117  0.0238 -0.1694  0.0306
28867W        W44336  10.791  12.028   1.953  0.0384 -0.4070 -0.2344
28868W        W44337   9.272  17.170   0.396 -0.1304  0.0332  0.1241
28869W        W44338  10.978   3.165   0.953  0.1741 -0.0620  0.2427
28870W        W44339  13.915   6.123  12.565  0.1356  0.0242  0.0091
28871W        W44340   1.280  10.379   1.345  0.1116  0.0445 -0.0014
28872W        W44341   0.638  14.311  11.168  0.2342 -0.0947 -0.1183
28873W        W44342  16.644   4.323   0.473 -0.2220  0.0921 -0.2194
28874W        W44343  17.461   7.673  16.273 -0.0433 -0.2686 -0.1486
28875W        W44344  17.055   4.019   5.332 -0.0097 -0.2117  0.5275
28876W        W44345  10.076   7.251   3.886  0.0730  0.0910 -0.0395
28877W        W44346   1.829   0.603  13.566 -0.4065  0.3105 -0.1277
28878W        W44347  12.498  13.302  14.665  0.3239  0.0767  0.0242
28879W        W44348   9.383  15.067  12.980  0.0007 -0.0325 -0.0656
28880W        W44349  13.453   2.109  10.850 -0.1177 -0.2999 -0.2277
28881W        W44350   5.476   9.380   4.268 -0.1356  0.3390  0.1607
28882W        W44351  11.060   7.379  15.543  0.1298  0.0121 -0.2762
28883W        W44352  12.011   8.790  16.355  0.0650 -0.0286  0.1098
28884W        W44353   1.587   4.900   1.468  0.1297 -0.3275 -0.3366
28885W        W44354  15.292  15.064   3.400 -0.0836  0.0836 -0.2656
28886W        W44355   8.974   1.597   0.343 -0.0920 -0.1200  0.1805
28887W        W44356  15.947   6.809   4.867 -0.2848 -0.3714 -0.3516
28888W        W44357  15.535   3.984  15.103 -0.0522 -0.2054  0.1335
28889W        W44358   6.628   0.864  13.388  0.1865  0.0786 -0.2863
28890W        W44359  14.910  11.523   5.577  0.1333 -0.0951 -0.1548
28891W        W44360  16.287  10.992   1.500 -0.3451  0.0657  0.1394
28892W        W44361  10.378  14.187   0.908 -0.1963  0.1220  0.1614
28893W        W44362   8.592   1.426   0.075 -0.0983  0.1672  0.1589
28894W        W44363   5.215  15.766   1.586 -0.0207 -0.0042 -0.2729
28895W        W44364  11.320   1.640  15.241 -0.1579 -0.1244 -0.0824
28896W        W44365   5.171   3.038   1.277 -0.2562 -0.3375  0.0073
28897W        W44366   3.497  15.217   0.798 -0.0821 -0.0859 -0.0913
28898W        W44367  13.999  13.693   2.088  0.2675 -0.0394 -0.0072
28899W        W44368  14.185  10.853  11.831 -0.1003  0.1670 -0.1380
28900W        W44369   0.913   9.948   3.421 -0.1944 -0.5243  0.1702
28901W        W44370   4.705  16.801  15.729 -0.1766  0.1189 -0.1165
28902W        W44371  14.366   3.643   4.794  0.0974 -0.1668 -0.0941
28903W        W44372  13.178  11.605   4.792  0.2754 -0.0359 -0.1247
28904W        W44373  10.148   6.754   4.794 -0.5368  0.0012  0.1666
28905W        W44374  13.342   4.996   1.862 -0.0029  0.0605  0.0074
28906W        W44375  10.293   4.777  13.182 -0.2651  0.0966  0.0437
28907W        W44376  11.024   2.760   2.960  0.0333  0.0949  0.0979
28908W        W44377  13.071   9.954  11.640  0.0323  0.0667 -0.1263
28909W        W44378  16.128  16.075  16.005 -0.1507  0.0837 -0.0365
28910W        W44379  16.437   0.694  14.024 -0.0011 -0.1469 -0.1294
28911W        W44380   1.136   2.002   0.056 -0.1446  0.1528 -0.4184
28912W        W44381  17.589   7.877   3.289 -0.0664 -0.1278  0.0032
28913W        W44382   5.292  13.840  14.337  0.1978  0.0415  0.0159
28914W        W44383  12.174  12.429   5.652  0.0498 -0.0792  0.3554
28915W        W44384  12.755   5.272  13.970 -0.2943 -0.2426  0.1267
28916W        W44385   3.107   1.606   1.015 -0.3177  0.0999 -0.1273
28917W        W44386  15.662   2.630   5.954 -0.1077 -0.4159 -0.1594
28918W        W44387   9.270  13.643  13.719  0.1369  0.0111 -0.1062
28919W        W44388   9.890  17.074   1.511  0.1115  0.0795  0.0726
28920W        W44389  16.938   5.733   5.276  0.1024 -0.1968 -0.0541
28921W        W44390  15.601   4.695  15.134 -0.1367 -0.0431 -0.1881
28922W        W44391   7.904  11.718   5.789 -0.1409  0.1208  0.2051
28923W        W44392   4.721  14.999   0.045  0.0768 -0.3082  0.0743
28924W        W44393   0.562   3.487  15.239  0.2630 -0.1621 -0.0363
28925W        W44394  14.057  11.851  15.178 -0.0402  0.0981 -0.0603
28926W        W44395   6.668   7.313  14.164 -0.0124 -0.2180 -0.1370
28927W        W44396   4.511  14.443  16.191  0.0068  0.0214 -0.2907
28928W        W44397   9.505   9.032  14.278  0.0500 -0.0357  0.1949
28929W        W44398   1.219   7.983   1.060 -0.0169  0.0409  0.0179
28930W        W44399   1.721  10.815   1.432 -0.0539 -0.0836 -0.2092
28931W        W44400   1.962  10.435  16.554  0.1952  0.1376  0.1095
28932W        W44401   9.957   8.773  15.704  0.1179 -0.0756  0.0090
28933W        W44402   4.874  12.766   0.247 -0.1534  0.3106  0.0160
28934W        W44403  16.911  10.629  12.508  0.0788 -0.0609  0.3117
28935W        W44404   5.670   5.210   0.866  0.2481 -0.0390 -0.0971
28936W        W44405   5.064   3.059  15.224  0.3575 -0.0982 -0.5562
28937W        W44406   7.183   4.869   5.551 -0.1009 -0.0575  0.0344
28938W        W44407  10.190  12.568   6.146 -0.1965 -0.2992  0.0217
28939W        W44408   9.940   9.565   4.093 -0.1201  0.1217  0.2961
28940W        W44409   8.768  16.187   1.793  0.1198 -0.0078  0.0840
28941W        W44410   8.232  10.420  12.931  0.0349  0.1219 -0.1337
28942W        W44411   7.525   4.269   0.103  0.3253  0.0760 -0.0788
28943W        W44412   2.022   6.061  13.011  0.0651  0.0329  0.0719
28944W        W44413  10.560  14.341  14.326 -0.0609 -0.0772 -0.3434
28945W        W44414  12.281   2.360   3.734  0.4592 -0.1886  0.1148
28946W        W44415   0.489   3.186  16.185 -0.2365  0.1804 -0.4046
28947W        W44416  14.373  14.512   4.450 -0.0913  0.1031 -0.4295
28948W        W44417  16.115  10.869   2.156 -0.0209  0.3483 -0.2032
28949W        W44418   2.957   4.215  11.760 -0.0536  0.1010 -0.1467
28950W        W44419  13.737   9.141  11.991 -0.2015 -0.0133 -0.0020
28951W        W44420  15.714   5.877   3.299 -0.0994  0.0058 -0.0222
28952W        W44421   9.563  14.393   1.330  0.0140 -0.0291  0.0910
28953W        W44422  14.777   2.407   2.749 -0.1533  0.2806  0.0121
28954W        W44423   7.447  13.693   2.532  0.2306 -0.0606  0.0152
28955W        W44424   4.013   2.416   2.802 -0.1490  0.3929  0.1611
28956W        W44425   1.244  12.501  14.993  0.0575 -0.1957 -0.0698
28957W        W44426  15.516  15.626  16.185  0.1905  0.2179 -0.2397
28958W        W44427  10.827  17.144   1.693  0.0441  0.1586  0.3677
28959W        W44428  15.965  12.311  14.204 -0.2724  0.1205 -0.0659
28960W        W44429   8.117   9.102   2.603 -0.0105 -0.1012  0.3181
28961W        W44430   2.507   3.667   0.809 -0.1067  0.1807  0.2391
28962W        W44431  15.909  12.046   1.588  0.0066  0.2513 -0.3933
28963W        W44432   1.198   7.542   5.426  0.2031  0.0821  0.2201
28964W        W44433   0.892  13.370   3.985 -0.0774  0.2943  0.0768
28965W        W44434  16.822  13.627   3.000  0.3061 -0.1237  0.2531
28966W        W44435  10.438   3.806  14.231 -0.0420 -0.1960  0.0873
28967W        W44436  12.758  17.107   3.755 -0.1181 -0.0785  0.0309
28968W        W44437  16.355   7.847  16.520  0.1930 -0.3314  0.0620
28969W        W44438  11.216   9.164   0.011  0.0026 -0.0357 -0.1899
28970W        W44439   1.842   7.185   0.147 -0.2751 -0.3351 -0.1056
28971W        W44440  17.128   1.436  11.257  0.0093  0.1875  0.1319
28972W        W44441  15.957   2.685  14.608 -0.0800 -0.4113 -0.0103
28973W        W44442  14.956   1.467  14.491  0.2675 -0.1122 -0.0076
28974W        W44443   8.926   7.206  14.631 -0.0248  0.0917  0.1482
28975W        W44444   8.443   3.512   3.393  0.1424  0.0426  0.1507
28976W        W44445  13.960  16.427   4.090 -0.0922 -0.3509 -0.1645
28977W        W44446  14.553  14.094   4.776 -0.3082  0.1303 -0.0416
28978W        W44447  16.567   6.131  13.785 -0.0030 -0.0848  0.0084
28979W        W44448   6.920  14.611   1.314 -0.1598 -0.0890  0.1369
28980W        W44449   5.398   9.095   5.760 -0.3098  0.4372  0.0091
28981W        W44450   8.893   7.626   1.594  0.2382  0.0491  0.3478
28982W        W44451  10.601  12.602   3.479 -0.1783  0.1260 -0.1312
28983W        W44452   4.324  12.709   0.912 -0.1923 -0.1799  0.0787
28984W        W44453   0.680  12.689  14.967 -0.2494 -0.0851 -0.0073
28985W        W44454   5.900   2.560  11.689 -0.1008 -0.3637 -0.2759
28986W        W44455  10.808   2.321   4.385  0.0961 -0.3295  0.4378
28987W        W44456   8.574  15.930   0.527  0.3201 -0.2348 -0.1563
28988W        W44457  11.651  16.942   4.715 -0.0005 -0.1334 -0.0901
28989W        W44458   8.539   6.765   1.330 -0.1287 -0.0523  0.0302
28990W        W44459   9.312  14.593  11.933 -0.0447 -0.0394  0.0494
28991W        W44460  13.992  12.520   0.929  0.2553 -0.1919  0.0706
28992W        W44461  17.505   7.520   2.291  0.1628 -0.2704  0.1966
28993W        W44462  13.342   9.216   1.652  0.0242 -0.0158 -0.1152
28994W        W44463   7.971  15.186   4.776  0.0711  0.0378  0.1753
28995W        W44464   7.982   3.250  14.793  0.1651  0.3162  0.0367
28996W        W44465  13.117   5.314  13.585 -0.0803  0.1001 -0.1636
28997W        W44466  10.573  13.144  12.591 -0.2336  0.3557  0.2326
28998W        W44467  12.342   4.046   5.932  0.1248 -0.2157  0.0836
28999W        W44468   1.464  16.409   4.469  0.0993  0.2829  0.2195
29000W        W44469   3.672  16.583  15.820 -0.0137  0.2047  0.1152
29001W        W44470  16.428  17.548  13.626  0.0133  0.1941  0.1384
29002W        W44471  12.456  11.460   3.634 -0.0170 -0.2281  0.0576
29003W        W44472  11.029  17.260  13.607  0.2014 -0.0239  0.0866
29004W        W44473   6.134  16.871   6.248 -0.2681  0.5677  0.1006
29005W        W44474  13.800  10.218  11.171 -0.3093  0.0471  0.1739
29006W        W44475  11.495   9.758  12.193  0.0968 -0.0425 -0.3131
29007W        W44476  15.906  17.546  13.898 -0.0966 -0.2406 -0.0518
29008W        W44477  10.491   0.362  14.611 -0.2160 -0.0128  0.1454
29009W        W44478  16.077   8.077   2.533  0.0220 -0.0208 -0.0840
29010W        W44479  17.428  15.805  15.914 -0.1489 -0.2645  0.0699
29011W        W44480  16.860   8.512   0.389 -0.0091  0.3001  0.0065
29012W        W44481   8.122   4.531   5.392  0.0542  0.1128 -0.4004
29013W        W44482   6.565  10.327   0.037 -0.0092 -0.0725 -0.0460
29014W        W44483   7.265   2.052   5.532  0.1196  0.1141  0.1112
29015W        W44484   0.582   8.412  13.738 -0.2467 -0.0386  0.2295
29016W        W44485   8.984  16.716  13.152  0.0030  0.0039 -0.0511
29017W        W44486  14.492   9.443   4.361 -0.0109  0.0246 -0.1646
29018W        W44487   1.627  14.945   2.268 -0.0765 -0.1744 -0.1841
29019W        W44488   0.641  17.456  13.305 -0.1265  0.1621 -0.0909
29020W        W44489   7.385   4.028   1.872  0.0322 -0.4269  0.0166
29021W        W44490  12.051   4.814   4.489  0.3829  0.2581  0.3916
29022W        W44491  14.920   9.637  12.914  0.1113 -0.1616  0.0022
29023W        W44492   5.661  12.584  12.983 -0.3488 -0.0490  0.0834
29024W        W44493   7.356   0.893  12.588 -0.2860 -0.0832 -0.0702
29025W        W44494  12.887   9.635   3.340 -0.2396  0.2862 -0.0104
29026W        W44495   9.522  11.538   1.609 -0.0511  0.1576 -0.0260
29027W        W44496  11.428   7.014  16.379 -0.3289 -0.1882  0.2483
29028W        W44497  13.715   3.939  15.363 -0.1147  0.0918  0.0803
29029W        W44498   8.399  17.307  11.838  0.5076  0.1547 -0.0715
29030W        W44499   7.751  13.149  15.344  0.1436  0.1428 -0.2532
29031W        W44500  11.442  14.686   3.393  0.1962 -0.2050  0.1105
29032W        W44501   4.784   6.235   6.232  0.1221 -0.0539 -0.0195
29033W        W44502  15.545  11.625   0.510  0.0389 -0.2603 -0.3321
29034W        W44503  17.265   7.584  12.097  0.4086 -0.0272 -0.1069
29035W        W44504  15.329   1.973   4.681 -0.0809 -0.0607  0.1380
29036W        W44505   9.772  10.350  15.564  0.0641  0.0317  0.0551
29037W        W44506   1.588  17.048   4.275 -0.0211  0.2509 -0.2280
29038W        W44507   4.039   6.875   0.912 -0.0226  0.0953 -0.0851
29039W        W44508   7.182  12.236   2.507  0.1050 -0.0347  0.0095
29040W        W44509  11.991  10.280   4.668 -0.0985 -0.1191  0.0362
29041W        W44510  10.385  14.728  13.453 -0.1125 -0.0426  0.1937
29042W        W44511   1.808  15.607   5.187 -0.0145 -0.1920 -0.1838
29043W        W44512  12.053   7.032  15.071  0.2040 -0.0405  0.0632
29044W        W44513   3.807   1.482  13.038  0.2458 -0.0297 -0.0834
29045W        W44514   0.259   0.917   5.463 -0.2159  0.3211 -0.1731
29046W        W44515   0.435  15.283   2.567 -0.0595 -0.1648 -0.0937
29047W        W44516  12.006  12.232   5.241  0.0474  0.0232  0.0979
29048W        W44517   9.147   4.990   0.433 -0.1655 -0.0914 -0.0341
29049W        W44518   5.053   7.330  16.641 -0.0430  0.2747 -0.0483
29050W        W44519   8.012  16.447   5.417 -0.1241 -0.0596  0.0996
29051W        W44520  10.835   1.345   1.011  0.2843 -0.0701 -0.1382
29052W        W44521   4.079  10.073   5.510 -0.1284  0.1055 -0.0820
29053W        W44522   9.221  13.055  14.716  0.1512  0.2299 -0.2889
29054W        W44523   8.141  17.509   0.374 -0.1860  0.3150  0.0053
29055W        W44524  10.787  12.674   4.104  0.0537  0.1604 -0.2842
29056W        W44525  14.067   7.491  14.097  0.1004  0.0891  0.1028
29057W        W44526  16.412  15.894   2.072 -0.1173  0.1471  0.2337
29058W        W44527   4.703  13.550   5.573  0.0954  0.2851  0.1369
29059W        W44528  12.996  12.332   3.590 -0.1851 -0.0611 -0.3460
29060W        W44529  10.422   3.420  12.393 -0.1099  0.1666  0.0147
29061W        W44530   6.970   6.293   4.360 -0.3027 -0.1028 -0.0578
29062W        W44531   8.973  10.295   0.327 -0.0958  0.3127  0.0447
29063W        W44532   7.341  10.567   2.639  0.1142 -0.1596  0.0426
29064W        W44533  15.310  15.453  14.031  0.0007 -0.0589 -0.0902
29065W        W44534  15.293   7.979   2.137 -0.0806  0.0515 -0.1316
29066W        W44535  13.835   4.798  14.685  0.0227 -0.4132 -0.1853
29067W        W44536   6.916  10.554   3.474  0.0082  0.3689 -0.2587
29068W        W44537   2.279   7.061   0.329  0.1095  0.0528 -0.1700
29069W        W44538  11.113   1.636   5.111 -0.0271  0.1020  0.0679
29070W        W44539   8.789  12.411  16.729 -0.0772  0.0188  0.1046
29071W        W44540   2.469  12.614   4.822 -0.1081  0.0354  0.2067
29072W        W44541  17.503  13.323  11.567 -0.1224 -0.3186 -0.0847
29073W        W44542  14.413  14.251   0.877  0.0049 -0.1524 -0.0642
29074W        W44543   0.301   8.106   3.314 -0.0142  0.0347 -0.1897
29075W        W44544  14.557  15.749  12.227 -0.0885 -0.1736 -0.2709
29076W        W44545   8.318   4.211  11.914  0.0728  0.0463  0.0978
29077W        W44546  15.270   3.057   4.322  0.2626 -0.1385  0.0789
29078W        W44547  10.027  16.330   3.061  0.1266 -0.1072 -0.1416
29079W        W44548  15.746   4.147   2.990  0.1615  0.0464 -0.1042
29080W        W44549  11.372   7.752   2.841  0.0875 -0.1481 -0.0781
29081W        W44550   9.638   6.550  14.922 -0.0713  0.0066  0.0735
29082W        W44551  10.283   6.446  13.318  0.0520 -0.0818  0.2083
29083W        W44552   2.913   7.757  10.790  0.2516  0.0965  0.3716
29084W        W44553   9.049   0.292  11.848  0.0762  0.1400 -0.1759
29085W        W44554   0.895   5.556  14.838  0.1999  0.3454 -0.1412
29086W        W44555  12.262   8.998   4.471 -0.1305  0.2027 -0.2633
29087W        W44556   6.641   9.825   1.914 -0.2420 -0.0851 -0.2586
29088W        W44557   4.598  15.092   4.641 -0.1196  0.2359  0.0530
29089W        W44558   9.087   0.950   4.510  0.1240 -0.1297 -0.0991
29090W        W44559   6.069  14.904  16.110  0.1140 -0.1231  0.1357
29091W        W44560   3.469   1.780   3.466  0.1150 -0.2896  0.0908
29092W        W44561  13.088   1.106  15.168  0.0234  0.1471 -0.0088
29093W        W44562   6.189   1.260  11.939  0.0310 -0.0246 -0.1546
29094W        W44563  15.125   4.225   3.556  0.2218  0.0319 -0.1060
29095W        W44564   1.785  14.117   5.455  0.1801  0.1676  0.1212
29096W        W44565  12.607   2.014   4.161 -0.1305  0.1386  0.0349
29097W        W44566   2.946  12.279  12.783  0.0693  0.1748 -0.1908
29098W        W44567   6.445  11.644   3.247 -0.2151 -0.0402  0.1769
29099W        W44568  12.167   1.114  12.800  0.0139 -0.3112  0.0322
29100W        W44569   1.918   4.767  15.375 -0.4031 -0.0195 -0.3532
29101W        W44570   8.128   3.281   4.173 -0.0507 -0.2182 -0.1686
29102W        W44571  15.962   1.590   2.898  0.0086 -0.2016  0.1134
29103W        W44572   2.493   9.675   1.858 -0.1373 -0.0432  0.1550
29104W        W44573   5.888   0.791   2.352 -0.2749 -0.1649  0.0908
29105W        W44574   7.175  16.883  12.385  0.3450 -0.2488 -0.3243
29106W        W44575   3.733   0.270  12.314  0.1757 -0.0188 -0.2046
29107W        W44576  13.674  14.816   4.205 -0.0729 -0.2406  0.0432
29108W        W44577   5.696   0.482  14.478 -0.3013 -0.2674  0.0272
29109W        W44578   5.248   2.807  14.839  0.1835  0.2747  0.3261
29110W        W44579   3.514   2.555  10.978  0.0876 -0.0735  0.0993
29111W        W44580   7.724   9.679  13.326 -0.0911  0.0278  0.1253
29112W        W44581  11.972   5.825   2.932 -0.1731  0.0401 -0.0979
29113W        W44582   3.712   6.381  14.046  0.3326  0.0113 -0.1082
29114W        W44583   6.882  13.227   0.458 -0.0865 -0.0459 -0.1978
29115W        W44584   3.691   2.321  12.711  0.1766 -0.0055 -0.2997
29116W        W44585   5.101  17.520   4.815 -0.1748 -0.0135  0.0748
29117W        W44586   1.128  11.685   3.802  0.0150 -0.0952 -0.0470
29118W        W44587   1.699   7.246   5.029 -0.0826 -0.3442  0.1000
29119W        W44588  14.624   7.883   3.361  0.1952  0.1323  0.2755
29120W        W44589  13.937   6.893  14.967  0.0434 -0.4053 -0.0336
29121W        W44590   4.223   5.232  11.968  0.2094  0.1514 -0.1288
29122W        W44591  10.648   1.272  13.682  0.1797 -0.1992 -0.0883
29123W        W44592   1.593   9.814  13.910 -0.0739 -0.0442 -0.0739
29124W        W44593   0.542   7.386   4.479  0.1802  0.1076 -0.1422
29125W        W44594  14.625   7.218   4.612  0.2747 -0.1425  0.1863
29126W        W44595   5.463  12.016  14.457  0.1379 -0.1784 -0.3047
29127W        W44596  11.510   0.324   4.840 -0.1071  0.0906  0.2727
29128W        W44597  17.565  17.386  12.096  0.0839  0.3447  0.2228
29129W        W44598   7.910  16.757  14.954  0.0683 -0.0542  0.1111
29130W        W44599   7.635  16.056  13.599 -0.1941 -0.0027  0.2153
29131W        W44600   7.214   6.609  14.922  0.1234 -0.1034 -0.2276
29132W        W44601   1.994   1.116  11.568  0.0494 -0.0092  0.0778
29133W        W44602   5.705  16.078   5.767  0.0273 -0.0899  0.2190
29134W        W44603   3.275  15.749   1.823 -0.0841  0.0500  0.0911
29135W        W44604   9.557  17.264   3.234  0.2384  0.1584 -0.2927
29136W        W44605   6.664  11.745  11.880 -0.2485  0.0004 -0.0818
29137W        W44606   6.065   4.553  12.149 -0.0440  0.1351  0.0262
29138W        W44607  16.042  13.749  12.552 -0.1624 -0.1200  0.2532
29139W        W44608   9.051  10.310  14.029  0.1038  0.0740 -0.2181
29140W        W44609  14.664   4.602  15.600  0.2813 -0.0357 -0.1300
29141W        W44610   6.898  14.360  12.295  0.1428  0.0853  0.2595
29142W        W44611   3.419   6.136   0.729 -0.2377 -0.0058  0.4498
29143W        W44612  11.894   6.228   2.567 -0.1776  0.0709  0.1298
29144W        W44613   5.601   7.133   1.756 -0.1737  0.1197 -0.3727
29145W        W44614   0.957   6.774  12.055 -0.1095 -0.0301 -0.0032
29146W        W44615  13.786  12.908   2.592  0.1548  0.3162 -0.2390
29147W        W44616  15.969   5.501   3.044  0.2016  0.3121 -0.3371
29148W        W44617   8.077   6.142  14.345  0.0441 -0.3479  0.1085
29149W        W44618  16.001   3.609  15.822 -0.3830  0.0513 -0.0589
29150W        W44619  17.071  15.316   3.256  0.1565 -0.0847 -0.0912
29151W        W44620   7.689  13.645   4.349 -0.1026 -0.0945  0.1864
29152W        W44621  10.455   7.967  16.168 -0.1080 -0.0188 -0.2205
29153W        W44622   4.355   3.381   2.770  0.0602 -0.0098 -0.1214
29154W        W44623   5.140   9.595  15.783 -0.1164  0.1373  0.0221
29155W        W44624   4.062   1.122   5.130 -0.1606 -0.0322 -0.0777
29156W        W44625  11.800  13.116   1.016  0.1828  0.0312 -0.0179
29157W        W44626   4.288   8.490   4.832 -0.2813  0.2822 -0.2383
29158W        W44627   0.898  10.776   4.096  0.0812  0.0750 -0.0774
29159W        W44628  16.783  16.389  13.804 -0.0348 -0.0042  0.0771
29160W        W44629  14.960   4.763   6.218 -0.2183 -0.0697  0.0056
29161W        W44630  15.929  11.877   0.637  0.0890  0.4273  0.2184
29162W        W44631  16.819   8.503  12.792 -0.2930 -0.2331 -0.0248
29163W        W44632   9.448   9.388   6.260  0.0674 -0.0415 -0.1182
29164W        W44633  10.027  16.978  16.568 -0.0571  0.3277  0.0807
29165W        W44634   0.665   2.218   2.969 -0.1113  0.1142 -0.0958
29166W        W44635   5.385   1.925  14.544  0.1431 -0.3418 -0.1799
29167W        W44636   4.530  11.803  15.348  0.0186 -0.0652  0.1785
29168W        W44637  16.295  15.283  16.782  0.0754 -0.0795  0.3527
29169W        W44638   8.180  17.750   1.590  0.1993  0.1859  0.1244
29170W        W44639  17.126  12.325  14.040  0.0740  0.1115 -0.0664
29171W        W44640   0.017  10.583   4.686  0.0414 -0.0734 -0.1948
29172W        W44641  15.531   5.521  13.513 -0.0716  0.0165  0.1571
29173W        W44642   0.490  15.797   5.299 -0.0382  0.3524 -0.2808
29174W        W44643   8.302  12.578   5.377  0.0665  0.0478 -0.1223
29175W        W44644  11.752  14.344  12.667  0.4359 -0.1962  0.0828
29176W        W44645   4.458   5.824  12.572  0.0582 -0.0768 -0.1341
29177W        W44646  14.756   8.293  15.351  0.3346 -0.1341  0.0239
29178W        W44647   7.166  12.442   3.021  0.0853  0.1424  0.0952
29179W        W44648  15.287  12.264   3.373 -0.3667 -0.0333  0.0184
29180W        W44649  15.214   0.502   2.316  0.1765 -0.0516 -0.0157
29181W        W44650  12.791  15.546   1.742  0.1280 -0.1122  0.0873
29182W        W44651   7.527  12.574  14.688 -0.0061 -0.0037 -0.1153
29183W        W44652   1.074   8.777  12.111  0.4851 -0.0765 -0.2144
29184W        W44653   0.900  10.708   2.704  0.2266  0.1615 -0.2373
29185W        W44654   9.009   8.598   4.911 -0.2593 -0.0032 -0.0420
29186W        W44655   8.951   4.472   3.454  0.1647  0.1285  0.1329
29187W        W44656   4.180   0.197   3.921 -0.0124  0.1621 -0.0298
29188W        W44657   2.816  11.720  15.491 -0.0626 -0.2506 -0.2671
29189W        W44658   9.008   1.054  15.040  0.0642  0.2187  0.0265
29190W        W44659   6.854  13.255   5.705 -0.1474 -0.1279 -0.1222
29191W        W44660   6.433   0.869  11.378 -0.1084  0.1280  0.2084
29192W        W44661   4.327   6.157   2.548  0.1046  0.2818 -0.1747
29193W        W44662  14.621   4.230   2.734 -0.5619 -0.1359 -0.2588
29194W        W44663   6.317  11.564  15.659 -0.0015  0.0629 -0.0041
29195W        W44664  14.574   4.496   0.108  0.0743 -0.1770  0.3231
29196W        W44665   1.483   1.996  16.037  0.0381 -0.0712  0.3001
29197W        W44666   6.463  10.621   0.724  0.0424  0.1056 -0.0268
29198W        W44667   6.374  12.084  12.724  0.2347  0.0548 -0.1202
29199W        W44668  13.794  14.335   4.317 -0.1046 -0.0842 -0.0370
29200W        W44669   9.652   8.442  12.005  0.2266 -0.0941 -0.1652
29201W        W44670  16.537  13.694   0.646 -0.0285 -0.1473 -0.0122
29202W        W44671   0.789  10.413  15.942  0.0793 -0.1112  0.0589
29203W        W44672   2.136  11.170   0.974 -0.0718 -0.0980  0.0738
29204W        W44673  10.289   8.419  15.882  0.5079  0.1508 -0.1613
29205W        W44674   4.100  12.265   1.923  0.0553  0.0184  0.2187
29206W        W44675  12.064   4.726   0.380 -0.0005 -0.2331  0.4354
29207W        W44676   1.567   1.655  14.287  0.1798 -0.0089  0.0186
29208W        W44677  13.131  10.768   1.860  0.1787 -0.0130 -0.0016
29209W        W44678  10.569   8.991  16.521 -0.1039  0.0616  0.2314
29210W        W44679  15.857  12.884   0.826 -0.1902  0.1374 -0.1255
29211W        W44680  10.309   3.934  13.723 -0.1196  0.0483 -0.1232
29212W        W44681  15.896   2.252   3.956  0.2126  0.0084  0.0334
29213W        W44682   2.946  12.931   5.568  0.0715 -0.1303  0.1885
29214W        W44683   7.114   3.134  15.941  0.1263 -0.0445 -0.1278
29215W        W44684  12.228   5.081  14.473  0.3022  0.0502 -0.1967
29216W        W44685   4.098  16.104  16.292  0.3135 -0.1025  0.2144
29217W        W44686  11.705  14.403  14.323  0.0046  0.0455 -0.2537
29218W        W44687   7.556  15.487  12.366 -0.0839  0.0089 -0.2048
29219W        W44688   8.977  11.898  13.190  0.1061 -0.0712  0.0554
29220W        W44689   0.269   4.326  11.720 -0.1775 -0.2209 -0.0199
29221W        W44690   9.020  13.085   0.570 -0.2082 -0.0344  0.2537
29222W        W44691  17.317  13.479   4.841 -0.1441  0.2365  0.0008
29223W        W44692   6.585   5.719   2.569  0.0292 -0.1587 -0.1654
29224W        W44693   2.513   8.213   3.899 -0.0456 -0.0317  0.1152
29225W        W44694  14.128  11.291   0.540  0.1322  0.2639 -0.1905
29226W        W44695   7.563   1.913  13.367  0.3795 -0.0060 -0.0140
29227W        W44696   4.243  15.185  14.003  0.2949 -0.1878 -0.1624
29228W        W44697   1.898  15.468  14.364  0.3851 -0.1229 -0.1283
29229W        W44698  10.151   1.493   0.052  0.1857  0.0157 -0.2146
29230W        W44699   8.434  11.248   2.322 -0.0405 -0.1419  0.0673
29231W        W44700  10.475  16.673   1.808 -0.1719  0.0045 -0.1089
29232W        W44701  11.358  17.528  16.697 -0.1328 -0.2097  0.0534
29233W        W44702   3.744   3.724   5.416  0.1282 -0.0829  0.0665
29234W        W44703   7.569  14.748  11.782 -0.0229  0.0812 -0.4441
29235W        W44704   8.054  16.380   4.484  0.0570  0.1914  0.0587
29236W        W44705   8.499   7.667   3.348 -0.0859  0.0645 -0.0449
29237W        W44706  12.486  15.635  14.440  0.0120 -0.0386 -0.0427
29238W        W44707   1.961   2.842   0.846  0.1196 -0.0373 -0.0560
29239W        W44708  15.829   5.876   2.330 -0.0634 -0.1202 -0.0136
29240W        W44709   8.067   6.019  16.668  0.1067  0.5742  0.1018
29241W        W44710   8.397  10.578  12.477 -0.2316 -0.0493 -0.1132
29242W        W44711   0.479  12.803  10.744 -0.2285 -0.2107 -0.3945
29243W        W44712   0.027   2.900   3.336  0.1870  0.0357  0.1169
29244W        W44713   9.333  14.384   5.124  0.0212  0.0808 -0.0979
29245W        W44714  13.230   4.347   3.461 -0.3126  0.0308  0.4215
29246W        W44715   2.175  10.934   3.733 -0.0745  0.1105 -0.1806
29247W        W44716  11.378  15.379  15.639  0.1879 -0.0209  0.1491
29248W        W44717  13.004   2.858   0.324  0.4364 -0.1691 -0.0205
29249W        W44718  13.819  13.652  13.055 -0.2878 -0.0308  0.0628
29250W        W44719  16.311   1.202  11.337 -0.1675  0.3632  0.1978
29251W        W44720   5.664  14.846   4.197 -0.0576  0.3008 -0.0250
29252W        W44721   2.820   5.947   5.279  0.0979  0.0979 -0.0978
29253W        W44722   1.725   5.633  16.198 -0.1013  0.0299  0.4056
29254W        W44723   1.574  10.982   3.112  0.2050  0.0429  0.0427
29255W        W44724   4.570  17.405   0.852  0.0211  0.0943  0.0700
29256W        W44725   3.931  15.594   2.332 -0.0573 -0.0012 -0.3244
29257W        W44726  12.670  11.968  15.214  0.1907  0.0170 -0.0547
29258W        W44727   4.669  16.310  14.277 -0.1892  0.2612 -0.1685
29259W        W44728   7.293   5.073   1.638  0.1379 -0.0120 -0.3097
29260W        W44729   5.541   2.001   1.340 -0.2685 -0.0136 -0.2696
29261W        W44730  12.641  15.611   0.035 -0.4048 -0.2462 -0.2612
29262W        W44731  14.302   9.627  16.630 -0.2107 -0.3949  0.0714
29263W        W44732   3.424   8.107   0.597 -0.4258 -0.1327  0.1482
29264W        W44733   6.075   9.287  12.451  0.1593  0.1150  0.3342
29265W        W44734  14.887  13.985  15.510  0.2802 -0.0840 -0.1632
29266W        W44735   6.175  12.849  14.545  0.0200 -0.2773 -0.0550
29267W        W44736   2.293   7.401  15.758 -0.0615  0.1063  0.0640
29268W        W44737   1.385   5.325  15.991  0.1467 -0.1935  0.1976
29269W        W44738  17.669  12.251   1.977  0.3357  0.3472 -0.2851
29270W        W44739   0.459  17.294   3.681  0.1062  0.0043 -0.1042
29271W        W44740  11.810   8.498  16.805  0.1976  0.0827  0.2468
29272W        W44741   5.840   6.172   1.919 -0.0661 -0.2512 -0.0440
29273W        W44742  11.841  15.237   2.784 -0.1534 -0.0807 -0.0011
29274W        W44743  17.287  12.795   4.270  0.2842  0.0078 -0.0289
29275W        W44744   7.691   1.623   0.588 -0.2227  0.0818 -0.3062
29276W        W44745   6.925  10.651  11.942 -0.3996 -0.0511  0.1395
29277W        W44746  10.228   8.748   0.095 -0.0065  0.1157 -0.0764
29278W        W44747   5.945  15.117   5.515 -0.0830 -0.0244  0.2203
29279W        W44748   9.450   7.570  14.043 -0.1653 -0.0670 -0.0877
29280W        W44749   5.374   0.800  16.490  0.0569  0.0298 -0.3987
29281W        W44750   7.925  13.819  11.855  0.1482  0.3831 -0.2572
29282W        W44751  11.015   6.960   1.721  0.0753  0.1800 -0.0641
29283W        W44752   4.724  16.766   0.067  0.0792  0.2740  0.2616
29284W        W44753  14.896   8.600   0.025  0.1073 -0.1126  0.2330
29285W        W44754   9.276   5.924  11.811  0.1341 -0.1642  0.1071
29286W        W44755  11.731  12.212   2.195 -0.1791 -0.0455 -0.1718
29287W        W44756  15.255  13.064   2.375 -0.0360  0.0207  0.0445
29288W        W44757  12.360  14.330   0.018 -0.2388  0.1698 -0.2524
29289W        W44758   6.536  13.112   2.970 -0.0584 -0.0913  0.0432
29290W        W44759  12.693   2.376   4.552  0.0291 -0.2299 -0.2048
29291W        W44760   8.097  12.905  13.426 -0.0696 -0.1294 -0.0087
29292W        W44761   9.277  10.785   6.272  0.0560  0.0245 -0.0769
29293W        W44762  13.464  17.095  13.780  0.2215 -0.2999  0.2016
29294W        W44763   9.234  10.294  12.252 -0.0251  0.4072  0.2348
29295W        W44764   6.686   6.412  16.612  0.0656  0.1971 -0.0175
29296W        W44765  12.410   8.165  15.096  0.1401  0.2301  0.2049
29297W        W44766  14.401   2.523   3.512  0.3030 -0.2587 -0.1406
29298W        W44767   3.710   3.909   1.895 -0.0049 -0.1745  0.0322
29299W        W44768   9.670   6.908   0.067  0.3350 -0.1592  0.2589
29300W        W44769   7.825  17.437  12.208 -0.1616 -0.3203  0.0077
29301W        W44770   6.984   8.877   1.550  0.2191 -0.1189 -0.2298
29302W        W44771  12.435   0.606  16.255 -0.0209 -0.0455  0.0865
29303W        W44772   5.053  12.067  14.869  0.2592 -0.0847  0.1314
29304W        W44773   6.592   8.963   5.310 -0.0879  0.0975 -0.2863
29305W        W44774   4.575  14.834  14.101 -0.0465 -0.1472 -0.2847
29306W        W44775   2.106  11.446  14.674  0.0024 -0.0694  0.1373
29307W        W44776   3.264  16.349  12.291  0.0820 -0.0069  0.2019
29308W        W44777  11.742   2.424   2.815  0.0261 -0.0990 -0.0175
29309W        W44778   6.451   7.211  14.729  0.1247  0.2319  0.3043
29310W        W44779  15.119   6.353   1.362 -0.2407 -0.0170  0.1215
29311W        W44780  17.500  17.293  11.509 -0.2140 -0.2269  0.1060
29312W        W44781   7.681   3.377  13.247 -0.1992 -0.0106 -0.1932
29313W        W44782   0.674   0.944  14.207 -0.0697  0.1053  0.0050
29314W        W44783   0.044   9.403   2.624  0.2173 -0.0709 -0.0803
29315W        W44784  12.650  13.322  11.866 -0.1832 -0.0749 -0.1526
29316W        W44785   5.610   1.814  12.175  0.3701  0.2279 -0.2000
29317W        W44786   0.810  13.305  13.697  0.0995 -0.0065  0.0589
29318W        W44787   3.076   1.034  13.199 -0.1036 -0.3101 -0.0216
29319W        W44788  15.890  12.601  11.005  0.3048 -0.1032 -0.1234
29320W        W44789  13.973   2.701  13.192  0.1744 -0.2692 -0.0193
29321W        W44790   7.252   9.121   0.875  0.2921  0.0875  0.1051
29322W        W44791   2.352  16.559   0.084  0.0109  0.3590 -0.4063
29323W        W44792   4.325   0.333   4.797  0.1194  0.1463  0.3359
29324W        W44793   0.758   0.901   1.483  0.0718 -0.2266  0.0107
29325W        W44794   2.033  13.393  13.315 -0.1869 -0.0797  0.2606
29326W        W44795  10.845   8.528   0.925 -0.1343  0.0730 -0.4528
29327W        W44796  15.654  17.222  14.816  0.1136 -0.1806 -0.1915
29328W        W44797   3.705  15.483  11.988  0.2001  0.0127 -0.1153
29329W        W44798   4.238  15.264  16.166  0.2419 -0.1824 -0.2877
29330W        W44799   2.218  11.318   2.354 -0.4116 -0.0001  0.1695
29331W        W44800   2.144   1.370  15.361  0.0038 -0.2397 -0.1787
29332W        W44801   4.569   1.712   0.418  0.1601 -0.4328 -0.3666
29333W        W44802   0.752  11.485   0.081 -0.0694  0.3480 -0.0903
29334W        W44803   1.374  15.698  14.982  0.0209 -0.2075  0.0843
29335W        W44804   8.846  13.310  13.631 -0.2857 -0.0936  0.1396
29336W        W44805  15.747   4.597   2.756 -0.0430 -0.0101  0.2177
29337W        W44806  14.118  15.262   2.379  0.0278  0.0989  0.0171
29338W        W44807   1.449  11.133   4.239 -0.0994 -0.1632 -0.0182
29339W        W44808   4.816  16.093   1.413  0.0200  0.2288 -0.2995
29340W        W44809  16.691  12.044   2.169 -0.1953  0.0198  0.1931
29341W        W44810   7.221  13.783   0.212 -0.2000  0.1207 -0.0644
29342W        W44811   0.248   1.399   4.778  0.0308 -0.0777  0.0644
29343W        W44812  14.513  12.607   2.807  0.0091 -0.1156  0.0204
29344W        W44813   0.236  14.336   4.996  0.0905 -0.0123 -0.1568
29345W        W44814   1.407   7.208   3.506 -0.0935 -0.0075  0.4467
29346W        W44815   2.038  14.739   0.393  0.2745  0.0690  0.1332
29347W        W44816   9.729  13.498  12.774  0.1670 -0.0424 -0.3519
29348W        W44817  10.713   6.646  14.075 -0.0149  0.3037  0.2769
29349W        W44818   1.192   1.290  13.876 -0.1141  0.1670 -0.1057
29350W        W44819  11.231  14.743   4.316  0.1465 -0.0178  0.3783
29351W        W44820  11.686   2.811  15.855  0.4062 -0.0712 -0.0999
29352W        W44821   4.853  12.742  14.194 -0.1527 -0.1314  0.2460
29353W        W44822   1.726  10.599   2.407  0.0086  0.1602  0.0462
29354W        W44823   1.432   4.589   4.587 -0.2678  0.0645  0.1570
29355W        W44824  15.651   4.696   4.204  0.0937  0.2698 -0.1036
29356W        W44825   9.432   1.364   5.891  0.2120 -0.1883  0.3237
29357W        W44826   8.816  12.434   4.111 -0.0366 -0.0213  0.0690
29358W        W44827   2.612   5.378  14.063  0.3024 -0.3609  0.1645
29359W        W44828   2.516   1.761   4.110  0.0200  0.0624  0.0472
29360W        W44829   1.299  15.863   3.518  0.2594  0.1171 -0.1503
29361W        W44830   7.486  11.589   5.598 -0.0707 -0.0029 -0.0735
29362W        W44831   5.856   5.243  16.550 -0.3303  0.1232 -0.0840
29363W        W44832   7.146  14.829   0.486  0.0260 -0.2486  0.2332
29364W        W44833   1.336  10.720   3.881  0.4497 -0.0877 -0.3097
29365W        W44834  14.031  12.085  11.412  0.1795 -0.0539  0.0676
29366W        W44835   0.119   4.449  15.100 -0.2509 -0.0638  0.0239
29367W        W44836  15.477  10.221   0.826 -0.0904 -0.2011 -0.3754
29368W        W44837   9.564  15.587  12.783  0.0603 -0.1570 -0.0186
29369W        W44838   9.587   7.232  15.290 -0.0672  0.1204  0.0386
29370W        W44839  10.545  17.243   3.113  0.1067 -0.4118 -0.0050
29371W        W44840   1.538   6.974   0.943 -0.1346 -0.0592  0.0193
29372W        W44841  11.719   0.992   5.193  0.0206  0.2023 -0.0944
29373W        W44842   9.404  14.204   0.802  0.2113 -0.0551  0.0937
29374W        W44843   7.736  16.342  12.026  0.2270  0.0286  0.2838
29375W        W44844   0.839   6.739   2.182  0.0395  0.0685 -0.2197
29376W        W44845   9.729   9.783  14.281 -0.2527 -0.0268 -0.1113
29377W        W44846   4.626  16.483  11.621  0.1480 -0.0927  0.0307
29378W        W44847   9.918  14.037  11.379  0.3217  0.4206  0.1878
29379W        W44848   1.977   7.532  16.651 -0.1120  0.0020  0.0320
29380W        W44849   4.065  16.762  12.139  0.1724  0.1118  0.1906
29381W        W44850  12.628  15.236  13.699 -0.0248  0.1776 -0.0720
29382W        W44851  16.754   0.204  13.740  0.2645  0.0152 -0.0019
29383W        W44852   1.933   2.824  14.937  0.0016 -0.0618  0.0874
29384W        W44853   9.253   2.219   2.116  0.1434  0.0068  0.4778
29385W        W44854   8.023  10.312   3.307 -0.2975  0.1238 -0.0745
29386W        W44855  17.075  13.130  13.142  0.1773 -0.1620 -0.2278
29387W        W44856  15.768   3.929  14.290 -0.0574  0.1123  0.0982
29388W        W44857   6.280  17.519   0.251  0.0437  0.3340 -0.1283
29389W        W44858   3.545   6.304   3.997 -0.1541  0.1703  0.0290
29390W        W44859  14.845   5.997  15.829  0.2935  0.1923  0.1490
29391W        W44860   4.229  16.711  10.367  0.1293 -0.0193 -0.2091
29392W        W44861   3.002   9.481  11.922  0.0380  0.0377  0.0267
29393W        W44862  14.027   9.833  15.982 -0.5349  0.0728  0.2451
29394W        W44863  15.341  15.727  13.102 -0.2141 -0.1167  0.0738
29395W        W44864   5.442   3.407  13.775  0.0721  0.0233 -0.4130
29396W        W44865  10.297   6.083  14.779 -0.0032 -0.0931 -0.0341
29397W        W44866  17.456  11.877  11.897 -0.2449  0.1428  0.1268
29398W        W44867   3.746  16.435  16.608  0.1234  0.2171 -0.0738
29399W        W44868  14.148   8.471  12.512 -0.2166 -0.1714 -0.2399
29400W        W44869  15.787   3.312   1.972  0.0008 -0.3218 -0.0112
29401W        W44870   6.825  10.868   1.052  0.1048 -0.0057  0.0979
29402W        W44871  11.141  11.927  16.519 -0.0596  0.0005  0.0439
29403W        W44872   6.906   4.191  12.639  0.4816  0.2286  0.1130
29404W        W44873  15.311   7.485   0.440  0.2947 -0.0067  0.0338
29405W        W44874  16.688   2.950  11.281 -0.1986 -0.1078 -0.0789
29406W        W44875   4.450  13.318  11.206 -0.1562  0.1161 -0.0084
29407W        W44876  13.763   6.398   2.278 -0.0446 -0.1548 -0.1747
29408W        W44877   7.035   4.249  15.327 -0.0005  0.1191 -0.1804
29409W        W44878   7.363   8.659   1.102  0.1262 -0.0765 -0.1717
29410W        W44879  16.272  17.101  13.353 -0.0526 -0.1840 -0.1506
29411W        W44880   3.668  16.700   2.212 -0.2070 -0.3235  0.0922
29412W        W44881   6.905  13.619   3.840 -0.2549 -0.2431 -0.0656
29413W        W44882   4.407  12.470  11.714  0.0612 -0.0957  0.0383
29414W        W44883   0.223   4.876  14.854  0.1364  0.0916 -0.0164
29415W        W44884   4.431   5.667  15.612  0.0677 -0.2487  0.0531
29416W        W44885   8.461   9.839   2.750 -0.0329 -0.0126  0.0116
29417W        W44886   0.038   5.455  14.732 -0.1178 -0.0252  0.0014
29418W        W44887  13.881  13.570  11.634  0.1008 -0.1312 -0.0873
29419W        W44888   6.331  12.168  15.096 -0.3126 -0.2211 -0.0547
29420W        W44889  17.141  14.819   0.030  0.0257 -0.0406  0.0197
29421W        W44890   2.244   5.007  11.410 -0.1263  0.0512 -0.2482
29422W        W44891   4.537   2.928   0.882  0.3768  0.2154 -0.2080
29423W        W44892  17.216  12.856  15.940 -0.2034  0.0990 -0.2290
29424W        W44893  15.177   2.713   3.006 -0.0154 -0.2197 -0.0826
29425W        W44894   1.227   5.415   4.544  0.0649 -0.1754  0.0409
29426W        W44895  11.221  16.436   4.808  0.1331 -0.2329 -0.2871
29427W        W44896   8.261  15.773  12.726  0.1242  0.1340  0.0402
29428W        W44897  14.204   2.227   2.033  0.0727 -0.0319 -0.1450
29429W        W44898   2.646  10.238  14.101 -0.1089 -0.0013  0.1329
29430W        W44899   7.896   5.573  16.393  0.3242  0.0182 -0.1416
29431W        W44900  17.593   6.449   5.283 -0.3892 -0.2877  0.0031
29432W        W44901  13.183   6.902   5.287  0.1553 -0.0526 -0.0615
29433W        W44902  10.083  13.719   2.552  0.1569 -0.3408 -0.1098
29434W        W44903  14.493   4.234  16.083  0.0803 -0.2770  0.0137
29435W        W44904   1.674   1.217   3.136 -0.1286 -0.2078  0.0819
29436W        W44905   3.632  13.174  15.940  0.1810 -0.3016 -0.0258
29437W        W44906  10.188  14.583  15.313  0.0201 -0.1455  0.1222
29438W        W44907  13.334  14.949  16.608 -0.0096 -0.0836 -0.1007
29439W        W44908   7.597   1.495  14.000 -0.0998  0.1180 -0.1539
29440W        W44909  15.836   1.216  16.021 -0.3328  0.2005 -0.0557
29441W        W44910   5.286   6.098   2.199  0.0191  0.1862 -0.0123
29442W        W44911   8.137   1.716  12.355  0.1120  0.3260 -0.0776
29443W        W44912   3.103  12.537  13.161  0.3707  0.1529  0.2642
29444W        W44913   4.810   9.465   2.646  0.2682 -0.4156 -0.0210
29445W        W44914   4.329  17.525   5.309 -0.1457  0.1478 -0.0966
29446W        W44915  12.899   6.544  16.023  0.3394 -0.0037  0.0302
29447W        W44916   3.018  14.694  11.770 -0.2663  0.2602  0.2640
29448W        W44917  13.690   0.210   2.489 -0.1555 -0.0751  0.1813
29449W        W44918  11.112   6.379  12.026 -0.0831  0.0976 -0.2590
29450W        W44919  13.191  16.369   1.098  0.0850  0.0268  0.1422
29451W        W44920   4.667   5.050   1.849  0.0219 -0.2785 -0.1454
29452W        W44921  12.833  11.599   1.105 -0.0719 -0.1404 -0.4525
29453W        W44922   8.660   0.336  14.150  0.4690  0.0490 -0.0639
29454W        W44923  17.215   8.588   3.671 -0.1927 -0.0489  0.0530
29455W        W44924  15.652  15.540  12.215  0.1550  0.4026 -0.2974
29456W        W44925  14.671   9.532   1.254 -0.1857 -0.0233  0.0309
29457W        W44926  15.731  17.559   3.191 -0.1151 -0.0779 -0.0449
29458W        W44927   3.713   1.910   0.019 -0.0618  0.2697  0.1872
29459W        W44928  16.385  10.572  14.271  0.1605  0.1861  0.0510
29460W        W44929  11.794  15.327   4.354 -0.0772 -0.2289  0.0007
29461W        W44930   7.964   7.001   4.433 -0.1170 -0.1204 -0.1835
29462W        W44931   3.690  16.295  15.353 -0.0767  0.0726  0.1716
29463W        W44932   7.408  13.450   3.881  0.2956 -0.0864  0.1095
29464W        W44933  13.973   7.232   5.833 -0.1737 -0.0916  0.0961
29465W        W44934  13.732   9.001   5.997  0.0768  0.0844 -0.1185
29466W        W44935  15.134  13.986  14.741 -0.3964  0.2449  0.1425
29467W        W44936  10.189   5.461   2.857 -0.3061  0.1202 -0.2324
29468W        W44937  15.078   6.202  14.594 -0.0590 -0.0397 -0.1116
29469W        W44938   1.831   9.129   4.258 -0.1938  0.2834  0.1228
29470W        W44939   6.835   7.895  12.420 -0.5009 -0.2044  0.0899
29471W        W44940  11.564   5.098   1.851  0.2186 -0.0211 -0.1302
29472W        W44941  12.277   0.724  14.004  0.0144 -0.0783 -0.1955
29473W        W44942   6.990   3.198   1.435 -0.0174 -0.1070 -0.0456
29474W        W44943   6.342   6.728   1.409  0.0214 -0.1211 -0.5186
29475W        W44944   6.052  13.380  15.638  0.4242  0.0192 -0.0689
29476W        W44945  10.750  11.500  12.257 -0.0826  0.0542  0.1494
29477W        W44946   1.508   3.419  11.827  0.1846 -0.0205 -0.1266
29478W        W44947   6.877   5.073   3.081  0.1054 -0.3551 -0.1291
29479W        W44948  17.541   1.779  13.774  0.0402 -0.1993 -0.1993
29480W        W44949  17.388  16.360  16.675  0.0253 -0.0526 -0.1467
29481W        W44950  10.901  13.053  12.897  0.0018 -0.4842  0.3950
29482W        W44951   4.534  12.978   0.543 -0.1532 -0.1493 -0.1287
29483W        W44952   6.942  15.942  15.823  0.1832 -0.2081  0.0478
29484W        W44953  16.800  11.793   1.733 -0.4026 -0.4723  0.0926
29485W        W44954   2.041  10.478   1.633 -0.0644  0.1301  0.1680
29486W        W44955  14.067   7.017   2.650  0.0997 -0.2175  0.0315
29487W        W44956   4.749   9.736  16.685 -0.0857 -0.1061 -0.3188
29488W        W44957   0.109   9.699   4.062 -0.1895  0.0154  0.0322
29489W        W44958   6.793  15.968  14.733 -0.0432 -0.0337 -0.1812
29490W        W44959  12.019   6.953  13.315 -0.0535 -0.0064 -0.1540
29491W        W44960   1.941  17.386  16.305  0.1232  0.1825  0.1090
29492W        W44961   7.560   7.478  12.801 -0.3972  0.3044  0.0084
29493W        W44962   5.370   7.815  14.511 -0.2284  0.1227  0.0776
29494W        W44963   5.838  14.308  15.579  0.1502  0.0686  0.1232
29495W        W44964  13.889   1.799  12.153  0.2604 -0.0413  0.1088
29496W        W44965  11.190   1.141   5.419 -0.2484  0.2617  0.2005
29497W        W44966   0.641   2.729  11.879 -0.1647 -0.0518  0.0697
29498W        W44967  12.735   7.062   3.166 -0.2142  0.0386 -0.1608
29499W        W44968   3.309   4.962  15.325  0.1388 -0.1452  0.0292
29500W        W44969  15.865  15.554  12.632 -0.0954  0.1508 -0.1705
29501W        W44970  13.108   3.890   1.179  0.1577 -0.0223  0.1181
29502W        W44971  11.548   3.793  15.691 -0.0876  0.0846  0.1828
29503W        W44972   1.995  12.528   1.902 -0.0614 -0.1618  0.1033
29504W        W44973   8.161  14.299  15.918 -0.2562 -0.0012  0.1567
29505W        W44974   0.568   4.402  11.310  0.2397 -0.0168  0.2294
29506W        W44975   3.243   7.433  14.306 -0.1550 -0.0765  0.1683
29507W        W44976   9.530   9.674   5.782 -0.2969 -0.3725 -0.1364
29508W        W44977  11.403  16.527  13.139  0.2805 -0.0922 -0.1841
29509W        W44978  13.252   8.852   5.055 -0.1949  0.1091 -0.1000
29510W        W44979   7.446  12.874  15.806  0.0154 -0.0500 -0.3163
29511W        W44980   0.650   6.500  12.957  0.1279  0.0016  0.0738
29512W        W44981  12.354  10.032  14.557  0.3069 -0.1782  0.1505
29513W        W44982   9.212   9.617   0.699 -0.1713 -0.0621  0.1256
29514W        W44983  16.802  11.710   0.799  0.1101 -0.1323  0.1573
29515W        W44984   0.726   8.330  15.132 -0.1354  0.2079  0.0731
29516W        W44985   6.984  13.751  13.804 -0.0011 -0.0157  0.0406
29517W        W44986   4.764   3.063  16.092 -0.0182  0.1192  0.1963
29518W        W44987   4.808  13.793  16.289 -0.0954  0.0135 -0.1143
29519W        W44988   1.357   4.497  14.145 -0.0218  0.1513 -0.0202
29520W        W44989  17.373  17.103   1.871 -0.0447 -0.0643 -0.2702
29521W        W44990   7.280  16.717   4.679  0.1661  0.1525  0.2190
29522W        W44991   7.270   6.653  12.948  0.1454  0.0195 -0.0751
29523W        W44992   0.971   2.925   5.167  0.0403  0.0377 -0.1689
29524W        W44993   5.716  12.815  14.805  0.0920  0.1629  0.1217
29525W        W44994   0.857  16.951   3.602  0.4110  0.3182 -0.1767
29526W        W44995   5.193   6.877  15.179  0.0046 -0.3933 -0.3735
29527W        W44996   0.511  13.001  14.567 -0.1893 -0.0411 -0.1366
29528W        W44997  17.347   3.647   0.842 -0.0017 -0.0877 -0.1938
29529W        W44998  14.498   1.561   3.195 -0.0755  0.0321  0.1756
29530W        W44999  13.046   2.616   5.449  0.1648  0.0560 -0.1754
29531W        W45000   7.330   7.385   0.289  0.1926 -0.3319  0.2196
29532W        W45001   8.998  14.469   0.022  0.2870 -0.0808  0.0391
29533W        W45002   4.151   2.370   3.603 -0.2955  0.2658  0.1810
29534W        W45003  12.622  12.772   2.405 -0.0714 -0.1573  0.1574
29535W        W45004   3.294   0.379  13.645  0.2260 -0.1113 -0.1578
29536W        W45005   5.341   0.639  15.713  0.3747 -0.2297 -0.2463
29537W        W45006  15.066  10.620  15.032  0.0851 -0.1465  0.0960
29538W        W45007   6.745  16.139   4.225  0.0791  0.0353 -0.1187
29539W        W45008   4.876  10.327   1.322 -0.0822 -0.3015  0.1843
29540W        W45009  14.637   6.332   0.306 -0.4831 -0.2856 -0.0714
29541W        W45010  11.296   7.227  12.778  0.4080 -0.1536  0.2410
29542W        W45011   1.418   6.926  16.668 -0.0563 -0.2672  0.1369
29543W        W45012  13.895  17.419  15.802  0.1552 -0.0916  0.0373
29544W        W45013  13.563   5.321   4.472  0.0090 -0.1975  0.0754
29545W        W45014  13.874   2.567   1.921 -0.1974  0.2893  0.0666
29546W        W45015  13.713  13.255  13.997  0.0279 -0.0626 -0.1091
29547W        W45016  12.608  14.267  12.610  0.1746 -0.0552  0.1231
29548W        W45017  11.763   6.846  12.882 -0.0870 -0.1219 -0.0572
29549W        W45018   0.634   1.688   1.350 -0.1217  0.0384  0.0782
29550W        W45019  17.216   7.211   2.850 -0.0954  0.3112  0.1704
29551W        W45020  15.678  14.079  14.853 -0.1085  0.1111  0.1545
29552W        W45021   2.183   0.169   3.710  0.1723 -0.1421 -0.0183
29553W        W45022   1.523   8.364  16.291 -0.1501 -0.1035  0.0864
29554W        W45023  14.109  15.246   1.347  0.0585 -0.1721  0.1750
29555W        W45024   7.814   7.314   4.886 -0.2357  0.1012  0.2440
29556W        W45025   4.056  15.551   0.214  0.2490  0.0572  0.1668
29557W        W45026   6.569  12.247  11.837 -0.1342 -0.2721 -0.0388
29558W        W45027  15.450   4.785   5.300 -0.1528 -0.1754 -0.0072
29559W        W45028  14.659   0.202   0.576  0.0057  0.1704 -0.1350
29560W        W45029   2.595  14.806   4.424 -0.4012  0.1137  0.1344
29561W        W45030   6.186   3.890   0.542 -0.1401  0.1758 -0.2578
29562W        W45031   4.010  10.067   5.015  0.2532  0.1110 -0.1686
29563W        W45032   5.197   4.184   5.046  0.2045  0.0500  0.3701
29564W        W45033  17.583  14.835   4.279 -0.0530 -0.0027 -0.0042
29565W        W45034  11.607   7.590   6.320  0.1524 -0.0396  0.0998
29566W        W45035   0.640  17.029  14.440 -0.3888  0.0461 -0.1513
29567W        W45036   0.933   0.548  14.565 -0.0660 -0.0941  0.1268
29568W        W45037   3.925   3.462  11.979 -0.1758  0.0163  0.4014
29569W        W45038   4.954  15.371  16.647 -0.2354  0.3134  0.0807
29570W        W45039   7.613  12.242   3.116 -0.1569  0.2494 -0.1460
29571W        W45040   4.048  17.051   2.029 -0.3160  0.1998 -0.2690
29572W        W45041  17.171   4.203  12.283  0.3113  0.0787 -0.1553
29573W        W45042  15.610   9.492  11.600 -0.1474  0.0208  0.4353
29574W        W45043   2.430  15.370  12.257  0.2912  0.1744 -0.0218
29575W        W45044  11.822   7.860  13.813  0.0902  0.0663 -0.1599
29576W        W45045   0.583   9.856  16.036  0.0878  0.2502  0.0716
29577W        W45046   5.870   9.352   1.899  0.2743  0.1855 -0.0520
29578W        W45047  10.075  15.158  15.805  0.0522 -0.1192 -0.0291
29579W        W45048   9.650  15.765   5.313  0.1567  0.3919  0.0725
29580W        W45049  10.555  14.785   2.962  0.0660 -0.1344  0.4601
29581W        W45050   4.329  10.177  14.676 -0.2840  0.0179  0.1701
29582W        W45051   7.146   1.233  14.142  0.1832  0.1642  0.0282
29583W        W45052  10.683  14.393  15.334  0.5437 -0.3210 -0.0925
29584W        W45053  15.788   9.719   5.774 -0.0224  0.0684  0.0043
29585W        W45054  13.918  14.018  12.753 -0.2038 -0.0641 -0.0826
29586W        W45055   5.916   7.484   3.751  0.2129  0.3786 -0.0483
29587W        W45056   1.868   9.584   0.952  0.0877  0.1627 -0.2463
29588W        W45057   5.220  15.406  13.614  0.2510  0.0625 -0.0381
29589W        W45058   6.199   0.670   5.650 -0.0581 -0.2217 -0.1384
29590W        W45059  12.758   2.843   3.638 -0.1493 -0.0389 -0.2795
29591W        W45060   8.027   0.318  12.417  0.2415 -0.2428  0.1525
29592W        W45061  13.927  16.955  13.530 -0.0846 -0.0108 -0.1610
29593W        W45062   3.750   9.099  11.646 -0.2816  0.1945 -0.0629
29594W        W45063   0.815   9.569   2.241  0.3359 -0.1313  0.5511
29595W        W45064  11.325  10.250   2.572  0.0580 -0.0176  0.1196
29596W        W45065   0.366  11.814  16.013  0.1713  0.1116  0.0228
29597W        W45066  13.021  11.471   3.035  0.0857  0.1174  0.0716
29598W        W45067   0.779  16.771   2.352 -0.2416  0.1230 -0.0367
29599W        W45068  12.664  16.368  12.786  0.0949  0.1256  0.1900
29600W        W45069  13.485   3.121   2.468 -0.0840 -0.0434 -0.0371
29601W        W45070  10.319   5.088   4.280  0.0519  0.1112  0.4847
29602W        W45071   5.259   8.239  14.350 -0.0947 -0.1762  0.1718
29603W        W45072  12.117  11.035   2.949  0.0776  0.2091  0.1285
29604W        W45073   2.881   9.443   5.206  0.1234 -0.0235  0.0162
29605W        W45074   9.779   5.763   2.632  0.0142  0.0630 -0.1066
29606W        W45075   2.277   0.536  15.037 -0.0251  0.6505  0.0348
29607W        W45076  15.103   6.762   1.702  0.2603 -0.0708 -0.1241
29608W        W45077  15.286   5.150  12.211 -0.0063 -0.0817  0.5444
29609W        W45078   4.032  16.172  14.919  0.1198  0.0996  0.1182
29610W        W45079  10.927   4.608   2.861  0.1098 -0.1525 -0.0356
29611W        W45080  10.128   7.334   3.012 -0.0998 -0.1174  0.1708
29612W        W45081   7.816  16.189   1.682  0.1978  0.0149  0.2593
29613W        W45082  15.944  16.819  12.010  0.0523  0.2068  0.2290
29614W        W45083  13.403   7.598   3.531 -0.1279 -0.0315 -0.0193
29615W        W45084   0.253   9.052  11.747  0.1053  0.0511 -0.0927
29616W        W45085   3.941   6.123  16.235  0.0610 -0.0208 -0.0037
29617W        W45086   8.240  14.722   4.060  0.0993 -0.0632  0.0256
29618W        W45087   8.086   1.031   4.504 -0.3013  0.0063  0.0480
29619W        W45088   2.534  14.566   1.092  0.2782  0.1726  0.2701
29620W        W45089  12.951   7.703  12.474 -0.2246 -0.2063 -0.0180
29621W        W45090   4.040   0.340   1.722 -0.1781 -0.0364 -0.1986
29622W        W45091  17.106  13.263  11.195  0.5843  0.0359 -0.0073
29623W        W45092  10.814  15.281   1.166 -0.0939 -0.0782  0.1013
29624W        W45093   6.454   0.768  12.142  0.0043 -0.1492  0.0385
29625W        W45094   6.111  12.102   3.068  0.1480 -0.1213  0.0967
29626W        W45095  16.239   6.527   6.548  0.3029  0.1433 -0.0947
29627W        W45096  12.433  15.525  12.420 -0.1442 -0.1225  0.1385
29628W        W45097  17.216  16.580  13.926 -0.0496 -0.0723 -0.1341
29629W        W45098   6.041   6.086   0.825 -0.0877  0.0542 -0.0069
29630W        W45099  17.631  12.067   2.588  0.2113 -0.0243 -0.2479
29631W        W45100   5.518  12.631  13.474 -0.0841 -0.3801 -0.1583
29632W        W45101   3.286  13.749  10.476  0.2981  0.3053  0.1208
29633W        W45102   1.758  16.115  10.966 -0.1858  0.4205 -0.2255
29634W        W45103  12.399   2.000   4.589  0.1858 -0.2413 -0.0943
29635W        W45104   7.565   2.103   5.008 -0.0488  0.2397 -0.2781
29636W        W45105   8.712   8.354   1.285 -0.1908 -0.1929  0.0158
29637W        W45106  16.695   3.552  16.694 -0.0288  0.0485 -0.0478
29638W        W45107   3.649   1.812   1.042 -0.0515 -0.0660  0.3330
29639W        W45108   0.311   7.202   4.098 -0.0631  0.0744 -0.2218
29640W        W45109  13.324  17.598   4.661 -0.2936 -0.0633  0.2565
29641W        W45110   7.187  13.372  16.045 -0.0430  0.0511  0.1102
29642W        W45111  14.785   6.232   1.762 -0.3964 -0.1136 -0.0112
29643W        W45112   3.250  15.112  13.798 -0.0247 -0.3486 -0.1626
29644W        W45113   1.686   0.489  14.982  0.1186 -0.0457 -0.0608
29645W        W45114   3.656  10.145  13.830  0.1276 -0.1150 -0.0631
29646W        W45115  15.656   1.316  15.206 -0.0720  0.0289 -0.1258
29647W        W45116  12.780  12.811   0.920 -0.1704  0.0837 -0.2401
29648W        W45117  14.397  11.258   2.088  0.0503  0.0656  0.0426
29649W        W45118   6.169   7.396  14.050  0.2680 -0.1823 -0.5033
29650W        W45119   4.893  10.595   5.256  0.0720 -0.0799 -0.1091
29651W        W45120   4.669  12.023   5.299 -0.1265  0.3058 -0.0668
29652W        W45121   1.860  16.189   4.629  0.2209 -0.2995  0.0592
29653W        W45122  10.604   3.154   2.592 -0.2308  0.0282 -0.0266
29654W        W45123  15.738   3.091  12.034 -0.1816 -0.1126 -0.1385
29655W        W45124  11.636  12.057  15.781 -0.2126 -0.0009 -0.2455
29656W        W45125  13.640   1.301   3.192  0.2809  0.1661  0.1038
29657W        W45126  11.984  15.432   0.779 -0.0523 -0.1085  0.1574
29658W        W45127  14.426  17.267  14.157 -0.0264  0.0743 -0.1898
29659W        W45128  13.947  17.671   1.117  0.3452  0.0189 -0.3044
29660W        W45129   4.576   6.842   1.357  0.1169  0.1750 -0.1090
29661W        W45130  15.532  14.038   2.708 -0.0387  0.1495 -0.2895
29662W        W45131  15.623  10.138   4.490 -0.1397  0.0685 -0.0095
29663W        W45132   9.300  17.531  16.676  0.1054  0.0978 -0.1671
29664W        W45133  17.377  13.400   0.188  0.4251 -0.0516 -0.0889
29665W        W45134   5.489   8.165   0.360 -0.0562  0.2520 -0.1358
29666W        W45135   3.428  16.225  13.743 -0.2889 -0.2258 -0.0105
29667W        W45136   9.707   2.504   3.392  0.0324  0.2997  0.1903
29668W        W45137   6.864   8.514   3.027  0.0538  0.0119 -0.0550
29669W        W45138   6.347   5.306   4.983  0.0854  0.2224  0.1253
29670W        W45139  11.968  16.008  12.703  0.1105 -0.0595 -0.2377
29671W        W45140  12.294  15.280  15.312 -0.0460  0.0247 -0.0729
29672W        W45141   4.059   8.830  12.503 -0.1305  0.1722 -0.0649
29673W        W45142   7.060   0.425  16.299  0.0436  0.1790 -0.1821
29674W        W45143   7.584  17.039  14.099 -0.0550  0.1095 -0.3173
29675W        W45144  17.048  13.021   0.179 -0.0086 -0.2132 -0.0773
29676W        W45145   3.687   6.067   1.815  0.2971 -0.1012 -0.0188
29677W        W45146   4.618   2.146   3.567  0.0089  0.1438  0.3547
29678W        W45147  15.951   7.228   4.418 -0.2545  0.1361 -0.1054
29679W        W45148  17.241   9.290  12.696 -0.1172 -0.3541  0.0611
29680W        W45149   8.570   4.762  11.933 -0.0231 -0.1572 -0.1842
29681W        W45150   7.712   1.736  14.746  0.2867  0.2996  0.1693
29682W        W45151  16.295  17.547   4.395 -0.1763 -0.0542 -0.0706
29683W        W45152   6.099   1.644   2.813 -0.4066  0.2745 -0.1253
29684W        W45153   6.596   3.740  11.738 -0.1622  0.0973  0.2120
29685W        W45154   0.760  14.628  16.806 -0.3048  0.0962 -0.2290
29686W        W45155   5.641  14.222  12.223  0.2969  0.0802 -0.1865
29687W        W45156   7.098  17.349   5.882  0.2448  0.3341 -0.0765
29688W        W45157   9.792   7.787  15.289 -0.2538  0.0409 -0.0115
29689W        W45158   5.503   6.959   1.247 -0.2322  0.2294  0.0679
29690W        W45159  13.463  11.092  12.923 -0.0430  0.1994  0.1202
29691W        W45160   7.538   7.378  13.910  0.0250 -0.0700 -0.0642
29692W        W45161   4.474   9.559   1.245  0.0413 -0.0435  0.0327
29693W        W45162  11.639  16.210   2.724 -0.1862  0.1893 -0.1301
29694W        W45163  10.902   1.856   5.595 -0.4067  0.1071 -0.0766
29695W        W45164   1.502   1.220  15.961  0.0798  0.0713  0.2714
29696W        W45165   8.798   7.889   5.898  0.3078 -0.1562  0.0078
29697W        W45166  14.193   6.438   4.884  0.5504  0.0341 -0.2483
29698W        W45167  12.576  12.180   3.107  0.1241 -0.3282  0.0348
29699W        W45168  14.814   8.024   4.389  0.1418  0.0414 -0.1912
29700W        W45169   5.750   3.394  12.132  0.3311 -0.0673 -0.1829
29701W        W45170   6.638   0.889   3.354  0.0185 -0.0420  0.1160
29702W        W45171  11.730  11.124   0.532  0.5247  0.0166  0.0040
29703W        W45172   8.257   7.886   6.249  0.2271  0.1654  0.2210
29704W        W45173  12.096  12.886   0.341  0.0428  0.1469  0.1762
29705W        W45174  14.303   2.054   3.333  0.1357  0.0730  0.0459
29706W        W45175  11.033  14.817   5.254 -0.1530  0.1919  0.0786
29707W        W45176  17.195   5.536   5.798 -0.1845  0.0467  0.0389
29708W        W45177  10.930   7.183  13.119 -0.0458 -0.4734  0.0841
29709W        W45178   3.488  14.267   5.218 -0.2130 -0.2085 -0.0800
29710W        W45179   5.397  14.186  14.728  0.0844 -0.2680 -0.3381
29711W        W45180   1.482  14.277   2.845 -0.1139 -0.0628 -0.0629
29712W        W45181   4.553  12.132   0.189 -0.0005  0.0683  0.1781
29713W        W45182   0.892  15.773  16.286  0.0173 -0.3606  0.3012
29714W        W45183  10.020   6.420   3.092 -0.1216 -0.0169 -0.1752
29715W        W45184  12.349   7.250   1.134 -0.0042  0.2226 -0.2540
29716W        W45185  13.695  12.424  13.998  0.0990  0.3006  0.2854
29717W        W45186   4.905   0.135  13.325 -0.0350  0.0203  0.0817
29718W        W45187  16.895  15.891  10.870 -0.2188 -0.0141  0.1161
29719W        W45188  16.707   4.253  11.673 -0.3646 -0.1301  0.0290
29720W        W45189   3.256   0.568   5.970 -0.0049 -0.0426 -0.2524
29721W        W45190  15.881  10.212  12.181  0.0460  0.0723 -0.0197
29722W        W45191   6.193   5.961  12.447 -0.0837 -0.1085 -0.1789
29723W        W45192  14.801   1.759   2.578 -0.2694 -0.0676 -0.2197
29724W        W45193  11.272  17.562   4.922 -0.0279  0.3797 -0.2033
29725W        W45194   6.902  14.652  12.763  0.0125  0.0227  0.1206
29726W        W45195   0.641   2.855  14.577  0.1554 -0.3260 -0.1159
29727W        W45196  15.445   5.528   1.462 -0.0248  0.3110  0.2999
29728W        W45197  16.798   8.855   3.051 -0.0408 -0.0836  0.0195
29729W        W45198  12.249   3.684   1.202  0.4542 -0.3839 -0.0214
29730W        W45199  17.497   8.436   4.831  0.3487  0.1501 -0.2112
29731W        W45200   9.592  14.101  11.847  0.1727  0.3360 -0.0213
29732W        W45201   1.394   5.465   4.039  0.0546 -0.1663 -0.2769
29733W        W45202  13.066   0.582   1.405 -0.1780 -0.1017  0.0577
29734W        W45203   7.285  16.696   2.312 -0.3315  0.3447 -0.1807
29735W        W45204  16.818   6.423  11.829 -0.0395 -0.2630  0.0962
29736W        W45205   3.459   8.481  11.757 -0.2277  0.1096 -0.0934
29737W        W45206  15.652  17.420   3.651 -0.0496  0.0732  0.0157
29738W        W45207  15.143  15.074   1.536 -0.4268  0.0493  0.1229
29739W        W45208   5.431  12.581  16.288 -0.1629  0.1266 -0.0241
29740W        W45209   9.547   8.936   0.040 -0.2922  0.2274  0.1326
29741W        W45210  11.418   7.362   3.123 -0.3079  0.0028 -0.3406
29742W        W45211  13.992  14.323  16.624 -0.0188  0.1642  0.3406
29743W        W45212   2.461   1.981   5.098  0.0893 -0.1271  0.1605
29744W        W45213   3.612  15.736  16.293 -0.0888 -0.2671 -0.1981
29745W        W45214   0.535   8.945  10.011 -0.0190 -0.1197  0.0052
29746W        W45215   7.873   6.682   4.842 -0.3818  0.2080  0.0699
29747W        W45216   6.025   4.918   2.062  0.0407  0.0720  0.2973
29748W        W45217  11.500  11.559   4.596 -0.4063  0.1244  0.0819
29749W        W45218  10.387   4.348   1.190  0.3620 -0.0029  0.2763
29750W        W45219   1.106  17.746  16.691  0.4935  0.0872 -0.0215
29751W        W45220  13.560   1.625  12.519  0.0841  0.2603  0.1584
29752W        W45221   2.559  13.980   5.270  0.2810 -0.3590  0.0497
29753W        W45222  16.309  15.666   3.195 -0.2040  0.0567 -0.1460
29754W        W45223   0.979   3.027  14.233 -0.0877  0.1319 -0.0000
29755W        W45224   1.971  13.026  12.179  0.1662 -0.2952  0.0463
29756W        W45225  12.692  12.012   4.323  0.0204  0.0195 -0.0544
29757W        W45226   4.991  13.387  13.034 -0.2293 -0.3268  0.1114
29758W        W45227  12.065   4.069  15.772 -0.1532  0.2365 -0.0072
29759W        W45228  10.703   1.417   4.900 -0.0787 -0.2122  0.0419
29760W        W45229   2.500  13.625  15.437 -0.0857  0.1935  0.2248
29761W        W45230   7.140  11.686   1.997  0.0277  0.0305 -0.1586
29762W        W45231   4.085   8.241  13.779  0.0510  0.0095 -0.0127
29763W        W45232  17.517  11.267   2.153 -0.0067  0.0760 -0.3164
29764W        W45233   5.328   5.729   3.980  0.0132  0.2681  0.1098
29765W        W45234  10.162  15.076   0.245 -0.2282  0.1144 -0.1082
29766W        W45235   0.258  17.607   1.624 -0.3947  0.0829  0.0394
29767W        W45236   2.534  16.482  11.644  0.2090  0.1871  0.0572
29768W        W45237   7.187   2.858   5.032  0.0485 -0.1363 -0.0719
29769W        W45238   4.366   6.155  15.362 -0.0695 -0.2275  0.0727
29770W        W45239  14.676  14.344  12.429 -0.1962 -0.1551 -0.0577
29771W        W45240   8.301   9.050  13.666  0.0082  0.4056 -0.0854
29772W        W45241   7.754  17.089   0.356  0.0424 -0.4530 -0.0436
29773W        W45242  13.543   8.483  14.509 -0.0393 -0.1089  0.1815
29774W        W45243   8.049  16.846   5.095 -0.2798 -0.2397  0.1314
29775W        W45244   1.669  13.567  16.475 -0.3494  0.1081  0.1625
29776W        W45245   4.367   0.832  15.452 -0.3515  0.0853  0.4374
29777W        W45246  12.325   4.093   4.363 -0.1979 -0.0111 -0.1252
29778W        W45247   9.212  11.230   1.214 -0.0966 -0.2255 -0.0057
29779W        W45248  11.479  11.022   3.876  0.5697  0.0780  0.0886
29780W        W45249  17.285   6.383  12.483 -0.0561 -0.2304  0.0743
29781W        W45250  10.163   8.504   2.079  0.1115  0.1464  0.2015
29782W        W45251  12.632  11.033  14.356  0.0159  0.2858  0.0238
29783W        W45252  12.436   4.769   3.623  0.1066  0.0191  0.0266
29784W        W45253   3.987  12.231   5.472  0.0463  0.0142 -0.1737
29785W        W45254   2.939  12.766  11.817 -0.2143 -0.1440 -0.0674
29786W        W45255   9.420   1.267   3.777 -0.0882  0.2088 -0.0689
29787W        W45256  15.794   4.204  13.569 -0.0013  0.0671 -0.0223
29788W        W45257  16.878   5.515  15.572 -0.0604  0.2708 -0.0661
29789W        W45258  11.277   2.175   5.701 -0.0703  0.0460 -0.0831
29790W        W45259  17.726  10.384   4.248  0.0700  0.3700 -0.0074
29791W        W45260   8.178   6.995   3.602  0.0268 -0.2435 -0.4335
29792W        W45261   2.020  12.103  14.026  0.1600 -0.0423  0.0969
29793W        W45262   4.890  14.414   1.490 -0.0368  0.1828 -0.1716
29794W        W45263  13.407   7.002  16.294  0.2179 -0.1072  0.2828
29795W        W45264   5.345   4.955  16.660  0.0692 -0.2477  0.0091
29796W        W45265  14.793   2.884   2.327 -0.2088  0.0293 -0.0718
29797W        W45266   2.462  14.571   0.056 -0.0440 -0.2323 -0.4684
29798W        W45267   6.429  13.745   2.370 -0.0153  0.0710  0.1858
29799W        W45268  17.200   0.398   2.554  0.1834 -0.1761  0.1278
29800W        W45269   9.838   3.099   4.504  0.0072 -0.1631  0.0711
29801W        W45270   7.327   8.147   1.306 -0.0537  0.0879  0.1619
29802W        W45271  10.284   0.489  12.407  0.0864 -0.2169  0.0853
29803W        W45272   4.777   4.165  14.190  0.1744  0.0435  0.0493
29804W        W45273   6.123   0.158  13.843 -0.2981 -0.1069 -0.1654
29805W        W45274   6.027   7.928   1.494 -0.1606  0.4278 -0.0823
29806W        W45275   9.701   5.602   3.117  0.2244  0.2687  0.2050
29807W        W45276   2.628   1.682  16.557 -0.2181 -0.1831  0.1140
29808W        W45277   3.378   8.814  16.779  0.2727 -0.1000  0.2109
29809W        W45278   4.660   0.688  12.503 -0.1533 -0.0809 -0.0418
29810W        W45279   4.426   5.623  11.631 -0.2046  0.0015 -0.4162
29811W        W45280  13.683   4.685  15.981 -0.1025 -0.2143 -0.0983
29812W        W45281   3.217   1.438  12.841  0.0424  0.1831 -0.0340
29813W        W45282  13.930   2.996   2.702  0.2656  0.0486  0.2628
29814W        W45283   7.155   3.703   1.247 -0.0561  0.3829  0.2011
29815W        W45284   4.189  11.767   2.533  0.0266 -0.0379  0.0563
29816W        W45285  15.236   2.993  13.528  0.1558  0.1199  0.1257
29817W        W45286   0.858   1.638  15.546  0.3895 -0.2408  0.0601
29818W        W45287   5.922  16.069   4.180  0.0914 -0.1258  0.0408
29819W        W45288   9.580   7.908  16.746  0.2689  0.1455 -0.1111
29820W        W45289   4.566   9.206  13.091  0.2639  0.0475 -0.0917
29821W        W45290  11.055  14.733   1.811 -0.0763 -0.1849 -0.1176
29822W        W45291  14.730  17.477   5.116  0.1744  0.3233 -0.2012
29823W        W45292  10.716   8.723   6.178  0.2857  0.3215 -0.0666
29824W        W45293  10.238  16.795   4.800  0.0933  0.1259 -0.1417
29825W        W45294  10.487  13.714   5.966 -0.1458 -0.2333  0.2957
29826W        W45295   9.691  15.403   6.182 -0.1246 -0.0769  0.1782
29827W        W45296  12.774  16.958  16.340  0.4322  0.0951 -0.1503
29828W        W45297  13.695  16.744   1.475  0.1489  0.2966  0.0870
29829W        W45298   3.413   5.783   2.113 -0.0174 -0.0916  0.0645
29830W        W45299   5.614   5.554  12.249 -0.0142  0.0900  0.1424
29831W        W45300   0.193  10.920  16.487  0.0803  0.1378 -0.4297
29832W        W45301  13.648  15.592   6.527 -0.3007 -0.1008 -0.1005
29833W        W45302  11.451   4.393   2.832 -0.0390  0.1832  0.0797
29834W        W45303   6.540   2.627   5.992  0.0493 -0.1224  0.0611
29835W        W45304  16.804  15.722  12.735 -0.2796  0.0215  0.3848
29836W        W45305   1.084  14.205  15.920 -0.2034 -0.0405 -0.0945
29837W        W45306  16.012  13.185   3.133  0.1644  0.0635 -0.0428
29838W        W45307   1.922  11.000   2.576 -0.0232  0.1563  0.0099
29839W        W45308   1.816  14.941  13.101  0.1018 -0.2068 -0.2056
29840W        W45309   1.673   1.527  15.309  0.1499  0.2284  0.0087
29841W        W45310   3.677   3.054   0.563 -0.0581  0.3196 -0.0197
29842W        W45311   0.769   5.860   0.199 -0.1521 -0.1736 -0.1779
29843W        W45312   9.862  10.327   3.789 -0.1985  0.3486 -0.0307
29844W        W45313  16.155  11.605  11.466  0.2075  0.0266 -0.0559
29845W        W45314   4.438  11.046  16.178  0.4912 -0.1060  0.1561
29846W        W45315   4.406   7.829  11.331 -0.2189 -0.0162 -0.2516
29847W        W45316   9.026  15.057   1.061  0.0755  0.2219 -0.1835
29848W        W45317   3.625  12.230   0.186 -0.2001 -0.0086 -0.1280
29849W        W45318   1.051  13.585  11.809  0.0585 -0.2538 -0.1178
29850W        W45319   1.044  10.372  14.503  0.0048  0.3117 -0.2045
29851W        W45320   7.066   7.509   3.645  0.0810  0.0930 -0.1196
29852W        W45321  10.821   9.005  14.189 -0.3852  0.0688 -0.0886
29853W        W45322   1.117   5.435   0.514 -0.1185 -0.1029 -0.0725
29854W        W45323   5.954  16.953  10.923 -0.2060  0.1709  0.2389
29855W        W45324   6.618  11.569  11.362 -0.2036  0.0759 -0.0430
29856W        W45325  16.875   4.642   1.921 -0.2184  0.0571 -0.0635
29857W        W45326   4.899   0.865   1.805 -0.1012 -0.0613  0.1989
29858W        W45327  10.491   2.045  13.011  0.2080  0.1429 -0.3682
29859W        W45328   2.734   0.755   1.220 -0.2235 -0.3824  0.2578
29860W        W45329  11.463   7.114   5.161 -0.0098  0.0687 -0.0320
29861W        W45330   9.231   1.674  12.188 -0.0889 -0.2084 -0.0680
29862W        W45331   6.527  15.819   0.630  0.0918 -0.1390 -0.1005
29863W        W45332  10.431  15.095  12.431 -0.1850  0.1539  0.1115
29864W        W45333  17.541   1.369  13.522  0.1150  0.0146 -0.0867
29865W        W45334  13.960   5.598  13.994  0.0479  0.0330 -0.0750
29866W        W45335  12.340  17.600  14.320  0.3262  0.2289 -0.1172
29867W        W45336   9.147   2.645   3.354  0.3008 -0.1896 -0.0499
29868W        W45337   5.605   7.037   5.915  0.1162 -0.2050 -0.0613
29869W        W45338   6.158   0.574  14.101 -0.0176  0.0613  0.0371
29870W        W45339  16.327   3.491   5.107 -0.1849  0.1631  0.0799
29871W        W45340  17.166  17.609  13.667  0.0100 -0.1386 -0.1466
29872W        W45341  14.605   4.954   4.106  0.0293  0.1918  0.0031
29873W        W45342  11.008  15.476  11.729 -0.0793  0.1194 -0.0397
29874W        W45343  12.871   8.412   2.365 -0.2382 -0.1180 -0.0623
29875W        W45344   2.655  15.717   4.035  0.0158 -0.0418  0.2770
29876W        W45345  16.359  13.274   4.111 -0.2357  0.0144 -0.0974
29877W        W45346   1.145  13.187  16.713  0.1621 -0.0772 -0.2633
29878W        W45347   8.244  15.168   2.623 -0.2980  0.0204  0.0476
29879W        W45348   7.980  16.915   6.875 -0.2051  0.0657  0.2636
29880W        W45349  16.859   0.621   3.912 -0.1406  0.0794 -0.1917
29881W        W45350   8.072  15.835   0.702  0.0202  0.1841 -0.0682
29882W        W45351  16.303  12.627   5.213 -0.2245 -0.0110 -0.0269
29883W        W45352  10.162  11.153   4.280 -0.2855 -0.3126 -0.1718
29884W        W45353  12.009   5.609   6.250 -0.0397  0.0996 -0.4128
29885W        W45354  10.262  15.054   3.230  0.0360 -0.2998  0.0434
29886W        W45355  14.115   3.560   4.256  0.1670 -0.1479  0.0633
29887W        W45356   9.638  13.904   1.592  0.2587 -0.0018  0.2918
29888W        W45357   9.924  10.052   4.989  0.1461  0.0208 -0.1713
29889W        W45358   4.998  17.561  15.316 -0.0437 -0.0407 -0.2374
29890W        W45359   4.825   5.479  12.605  0.0853 -0.0233  0.1381
29891W        W45360  12.586   9.337  16.023  0.1209 -0.2285  0.1695
29892W        W45361   7.214  17.582  16.662  0.0377 -0.3197 -0.1587
29893W        W45362  10.617   4.664  14.459  0.0852 -0.0416 -0.0608
29894W        W45363  16.876   8.660  15.532  0.0128  0.1583  0.2821
29895W        W45364   2.948  12.254  13.645 -0.0199  0.0121 -0.1674
29896W        W45365   2.975   6.741  15.759 -0.1331  0.0103  0.0569
29897W        W45366   8.080  11.922   4.205  0.2559 -0.1387  0.1244
29898W        W45367   4.877   0.780  15.478 -0.0516 -0.0838 -0.0181
29899W        W45368   2.846  13.302  15.976  0.1875  0.0433 -0.1688
29900W        W45369  10.446   2.488  14.413 -0.1485 -0.1360 -0.0963
29901W        W45370  15.843   5.505  13.053 -0.2102  0.1028 -0.0415
29902W        W45371   5.779   5.132  15.135  0.1617 -0.0988  0.0882
29903W        W45372  12.870  14.299   5.675  0.0347 -0.0007  0.1090
29904W        W45373  16.546  17.299   3.150  0.1004 -0.2011 -0.0870
29905W        W45374   3.743  14.217   2.885 -0.0048  0.1507 -0.0386
29906W        W45375  11.285  12.631  13.613  0.0615  0.0424  0.0365
29907W        W45376   6.442   6.410  12.735  0.1737  0.1050  0.2925
29908W        W45377  14.782   5.988  11.808 -0.1810  0.0215  0.2348
29909W        W45378   9.718   0.860  14.684 -0.3141 -0.1023 -0.1831
29910W        W45379  11.856  11.842  14.090 -0.2634 -0.0953 -0.3436
29911W        W45380   0.800   4.676  13.230  0.0478  0.0016  0.0451
29912W        W45381  12.701   1.235  16.181 -0.2070 -0.0065  0.0342
29913W        W45382  14.506  17.067  16.552 -0.0209  0.1757  0.0108
29914W        W45383   6.176   6.132  11.965 -0.2009  0.1989 -0.0595
29915W        W45384  11.830   1.921  10.554 -0.2145  0.0478 -0.0169
29916W        W45385   1.191   1.100  13.345 -0.1538  0.2865 -0.1322
29917W        W45386   5.906   7.520   1.889  0.0593 -0.0530 -0.2811
29918W        W45387   0.773  14.265  10.676  0.1558 -0.0482  0.4112
29919W        W45388   4.270  13.527   0.655  0.3289 -0.1077  0.3594
29920W        W45389  16.230   3.994  15.489  0.1891  0.1251 -0.1108
29921W        W45390  14.574   4.021  16.708  0.5015  0.0231 -0.2780
29922W        W45391   8.954  11.448  12.321  0.1566 -0.1505 -0.1085
29923W        W45392  15.855  12.063   2.890 -0.2312 -0.2806 -0.0750
29924W        W45393  14.353   7.377   2.425 -0.1746 -0.1574  0.0429
29925W        W45394   3.488  16.464  11.823 -0.0781  0.2319 -0.0826
29926W        W45395  15.118   5.280  13.049  0.0313 -0.3473  0.0490
29927W        W45396  10.767   4.367   3.248 -0.2683  0.1119  0.3568
29928W        W45397   6.013  14.782   4.653 -0.1324 -0.0205  0.0929
29929W        W45398  10.208  16.127   1.062 -0.2742  0.0941 -0.0134
29930W        W45399  15.797  13.541  15.203  0.4599  0.0334  0.1871
29931W        W45400  16.330  11.451  14.158  0.4045 -0.1318  0.0208
29932W        W45401   5.364  15.301   4.305 -0.0724 -0.1861 -0.1355
29933W        W45402  15.654   6.191   0.720 -0.0151  0.1284  0.0155
29934W        W45403  13.978  11.183  12.237  0.1344  0.1767 -0.0568
29935W        W45404   9.420   0.436  14.767  0.2576  0.3944 -0.2615
29936W        W45405  12.159   5.456  14.171 -0.0641 -0.0271 -0.1508
29937W        W45406  15.093  17.603  12.547  0.2764 -0.2584 -0.1371
29938W        W45407   8.680   3.646  15.592 -0.1147  0.1439  0.3439
29939W        W45408   9.119   0.130   3.748  0.2398 -0.3677 -0.1571
29940W        W45409   1.268  11.621   2.484  0.0600 -0.0077  0.0361
29941W        W45410  13.696  15.540   0.512 -0.0331  0.2029  0.0193
29942W        W45411  17.075   6.469  12.962  0.0567  0.1273  0.0670
29943W        W45412   0.475  15.483  14.401 -0.0822 -0.0857 -0.2502
29944W        W45413   1.095  12.272  12.859 -0.1382 -0.1544  0.0504
29945W        W45414   8.712   6.658  11.786  0.1057 -0.0013 -0.1904
29946W        W45415  13.592   8.902   1.145  0.0399  0.1331 -0.0681
29947W        W45416   6.108   0.319  16.241  0.0896  0.2495 -0.1545
29948W        W45417   6.281   0.926  13.736 -0.2266  0.0339 -0.1537
29949W        W45418   7.004   3.455  11.981  0.0121  0.1126  0.1247
29950W        W45419   6.313   1.128   5.284 -0.0845  0.1238 -0.1080
29951W        W45420   4.917   0.391  15.918  0.2491 -0.2020  0.1205
29952W        W45421   8.921   6.616   5.623  0.2845  0.1030 -0.2349
29953W        W45422  11.368  13.104   3.729  0.0191 -0.1267 -0.1537
29954W        W45423   9.145  12.965   5.749  0.1510 -0.2937 -0.0465
29955W        W45424   1.413   9.673   0.764 -0.1417 -0.1242  0.0247
29956W        W45425   0.049   5.164  11.004 -0.0767 -0.1749  0.1771
29957W        W45426   2.501   6.652   1.752  0.0736  0.0379  0.0281
29958W        W45427  11.495   3.519  12.661 -0.0151 -0.1850  0.2798
29959W        W45428   1.175   2.776  16.612  0.1145  0.0486 -0.0439
29960W        W45429   4.021   2.478  14.128  0.1175  0.1661  0.0087
29961W        W45430  14.915  17.513   0.582 -0.0173 -0.0981 -0.2828
29962W        W45431  13.814   8.248  15.363  0.1097  0.0075 -0.1361
29963W        W45432  15.320   2.990  15.409 -0.2862  0.2614 -0.1789
29964W        W45433   5.530  16.437   0.115 -0.0113 -0.3124 -0.0887
29965W        W45434   3.164   1.434   5.302 -0.1250  0.0916 -0.0902
29966W        W45435   1.796   1.444   5.077  0.0451 -0.3877 -0.1145
29967W        W45436   9.032   4.165   3.010  0.1282  0.1273  0.2091
29968W        W45437   2.562   6.504   4.000  0.0963 -0.1780  0.2581
29969W        W45438  12.970   2.274  13.082 -0.0639  0.0323 -0.0769
29970W        W45439   4.514   2.409   5.555 -0.1200  0.2104  0.5066
29971W        W45440  10.111  17.222  14.709  0.2958 -0.1661 -0.0584
29972W        W45441  14.865   0.709  15.844 -0.3199 -0.2039 -0.1274
29973W        W45442   9.186   9.307  11.645 -0.0748 -0.1264 -0.0267
29974W        W45443   0.555   2.461  12.317 -0.0477 -0.0128 -0.1558
29975W        W45444   7.046  12.939  16.345 -0.1266  0.0087 -0.2651
29976W        W45445   6.589   3.048  15.903  0.0062 -0.0557 -0.0001
29977W        W45446   1.503  10.396  10.762 -0.0262 -0.2342  0.0270
29978W        W45447  13.649  10.295  14.738 -0.0301  0.2211  0.1120
29979W        W45448   0.047  10.627  12.553 -0.2213 -0.0065  0.0676
29980W        W45449  16.628   8.197   9.961 -0.0984  0.1509  0.1650
29981W        W45450   5.905   4.773   0.609 -0.3968  0.3554 -0.1737
29982W        W45451   3.237   7.180   5.978 -0.1906  0.0055 -0.2257
29983W        W45452  11.225  12.464   3.861 -0.2814 -0.0790  0.1876
29984W        W45453   6.878   7.033  12.872  0.2394  0.1324  0.1584
29985W        W45454  17.072   2.052   1.017  0.1842 -0.1288  0.0519
29986W        W45455   6.866  16.297  11.540 -0.1553 -0.0674  0.3741
29987W        W45456   7.760  15.127  15.571  0.1470  0.2438 -0.0330
29988W        W45457   2.312   5.608  16.126  0.0612  0.1424 -0.0571
29989W        W45458  15.273   5.232  15.877  0.3685 -0.2358 -0.1905
29990W        W45459   9.008  16.706   1.637  0.4875 -0.0327  0.0088
29991W        W45460  14.473   2.463  11.979  0.1711 -0.2352  0.0634
29992W        W45461  11.347   6.639   3.833 -0.0233 -0.1740  0.2357
29993W        W45462   1.176   6.563  14.553  0.3210 -0.3450 -0.0064
29994W        W45463  14.101  11.709   5.006  0.3231 -0.2154  0.1850
29995W        W45464   1.563  15.814  14.484 -0.2401  0.2167 -0.1733
29996W        W45465   6.323  17.639   2.129  0.2067  0.0389 -0.1789
29997W        W45466   0.839  15.158   1.555 -0.1962  0.0901 -0.3198
29998W        W45467   8.492   9.702  13.799 -0.0454  0.0355 -0.1182
29999W        W45468  10.204   7.569  15.141 -0.2344  0.1990 -0.2452
30000W        W45469   3.835  15.083   0.234 -0.0407 -0.1103  0.3836
30001W        W45470   8.889  14.083  16.544 -0.1211  0.0858 -0.1280
30002W        W45471   0.954  15.229  11.459  0.2043  0.1931  0.1761
30003W        W45472  15.122   2.619   6.135 -0.2504 -0.1248 -0.1104
30004W        W45473  17.439  10.725  16.535  0.1427  0.0665  0.0662
30005W        W45474  13.701   5.934   0.480  0.2509 -0.0280 -0.0957
30006W        W45475  13.090  16.494  12.407 -0.1034  0.0315 -0.0603
30007W        W45476   8.433   1.592   4.802  0.2472  0.1089 -0.2233
30008W        W45477   8.562   2.273   2.882 -0.1253  0.1657  0.3515
30009W        W45478  13.634   5.757  12.753 -0.2168 -0.1044  0.1452
30010W        W45479  14.795  11.711   3.858 -0.1566  0.3354  0.0292
30011W        W45480  12.856  15.872  14.133  0.0368  0.4132  0.0871
30012W        W45481  14.924   6.718   3.057 -0.2241 -0.1825 -0.3117
30013W        W45482   4.727   7.462  15.881 -0.0122 -0.2150  0.1399
30014W        W45483   4.659  10.364  15.052  0.0966 -0.0817 -0.0682
30015W        W45484   4.980  10.676  11.083 -0.2427 -0.2037  0.2289
30016W        W45485  11.046  10.879   0.502 -0.0897 -0.1480  0.2637
30017W        W45486  14.562   0.234   4.407 -0.0294  0.0424 -0.2729
30018W        W45487   2.186   3.160   5.397 -0.4602 -0.1309  0.4599
30019W        W45488   7.604   3.487   6.152  0.0899 -0.1210 -0.3063
30020W        W45489  13.176   1.806  12.234 -0.5077 -0.0459 -0.0038
30021W        W45490  14.236   7.751  14.582  0.0362 -0.0259 -0.2618
30022W        W45491   7.074   3.319  15.337 -0.1548  0.1644  0.2663
30023W        W45492   8.854  17.630  15.358  0.1123 -0.2117  0.1029
30024W        W45493  11.926   0.651  12.434  0.3245  0.4255 -0.0182
30025W        W45494   8.738  15.010  13.531  0.1132  0.0726  0.1037
30026W        W45495   9.090   4.346  14.641  0.0932 -0.0466 -0.2812
30027W        W45496   1.133  17.554  14.502  0.2570  0.3306 -0.1920
30028W        W45497   3.393   3.507   0.650  0.0277 -0.1824  0.0092
30029W        W45498  14.904   2.680   1.141  0.1362  0.1815  0.0707
30030W        W45499  17.201  16.434   0.304 -0.0403  0.0700 -0.0583
30031W        W45500  12.036  10.248  15.558 -0.0259  0.0597 -0.1846
30032W        W45501   4.209  10.226   2.045 -0.0212 -0.0561  0.2104
30033W        W45502   7.224   9.402  12.650  0.0318  0.0856 -0.1397
30034W        W45503   1.783  11.832   1.551  0.2744  0.0305  0.0692
30035W        W45504  16.123   7.762   2.151  0.0657 -0.0318  0.0012
30036W        W45505   8.246   5.185   2.556 -0.0929  0.2014  0.1299
30037W        W45506   5.438  14.562  13.778 -0.0935  0.1722 -0.1275
30038W        W45507   5.151  10.200  15.005 -0.0840 -0.3013 -0.1792
30039W        W45508   1.003  12.465   5.381  0.0303  0.0580 -0.1345
30040W        W45509  13.595  11.794   4.894 -0.0280 -0.0313 -0.1186
30041W        W45510   2.898   5.461   5.096  0.0219  0.0869  0.1373
30042W        W45511  15.888  11.508  14.420 -0.1501 -0.3604  0.1813
30043W        W45512   0.527   8.160   4.224 -0.0257  0.1584 -0.0658
30044W        W45513   2.734   4.161   3.159 -0.0451 -0.0550 -0.0960
30045W        W45514   7.615  16.614   1.607 -0.1088 -0.1206  0.0506
30046W        W45515   3.855   5.975   2.379  0.0329 -0.2599 -0.0823
30047W        W45516  10.357   0.952  12.547  0.0592 -0.2458 -0.3209
30048W        W45517  15.437  10.180   3.942 -0.0170  0.0271  0.3303
30049W        W45518   7.159   9.824   3.161 -0.0612 -0.0334 -0.1163
30050W        W45519   0.157   5.869   2.933 -0.0394  0.1685 -0.0909
30051W        W45520  13.529  11.588   4.459  0.0981  0.2650 -0.1416
30052W        W45521  17.751   3.789   2.218 -0.2395 -0.0491 -0.0145
30053W        W45522  12.183   3.099   5.477 -0.5237 -0.1077  0.4721
30054W        W45523  14.840   9.710   2.111  0.1913  0.3399 -0.1352
30055W        W45524  12.268   1.908   0.561  0.0489 -0.0940  0.0188
30056W        W45525  12.647  10.514   1.981 -0.0190  0.2857  0.0183
30057W        W45526   9.760   1.228  11.432 -0.1581 -0.0751  0.0180
30058W        W45527   5.267   7.724   0.905  0.1766  0.0376 -0.1269
30059W        W45528  15.004  17.472  13.054 -0.0291 -0.0436  0.0100
30060W        W45529   8.293  14.333   0.423 -0.3723 -0.4518  0.4430
30061W        W45530  13.010   1.371   0.755 -0.1398  0.0316  0.2723
30062W        W45531   3.121   4.414   0.992  0.1190  0.0300  0.2773
30063W        W45532  11.836   4.344  15.339  0.0713 -0.0939 -0.2634
30064W        W45533   7.109  15.908   5.924  0.0804 -0.1905 -0.1162
30065W        W45534  12.218   5.606   6.677 -0.0657 -0.0416 -0.1287
30066W        W45535   0.340  10.105  13.337 -0.0573 -0.2515  0.1480
30067W        W45536  17.531   6.931   1.545 -0.1193  0.1547  0.0774
30068W        W45537  12.056  16.991   2.144  0.4552  0.3838 -0.0268
30069W        W45538   4.288  16.519  13.918 -0.0345 -0.0895 -0.0197
30070W        W45539   1.501  17.136  12.772  0.3576  0.1884  0.1002
30071W        W45540  14.807   9.337  15.293  0.0213  0.0786 -0.3389
30072W        W45541  11.915  16.631  15.093  0.2617  0.0278  0.1005
30073W        W45542  12.504  12.370   4.619  0.0309 -0.0508 -0.2883
30074W        W45543  14.043   5.698  12.291  0.0733  0.0940  0.1203
30075W        W45544  10.246  12.286   0.122 -0.0705  0.1646 -0.2861
30076W        W45545   7.952  10.553   4.771 -0.1624  0.0498  0.2741
30077W        W45546   2.284   3.457  16.429  0.0316  0.0701 -0.2680
30078W        W45547  10.204  10.907   1.758 -0.0959 -0.0222  0.0161
30079W        W45548   5.500   7.305   4.573 -0.1471  0.1580 -0.2418
30080W        W45549   7.714   4.948   2.817 -0.0443 -0.1061  0.0351
30081W        W45550  16.016  13.960   3.603 -0.1345  0.2187 -0.2223
30082W        W45551   8.775  16.335  11.913  0.0806 -0.1130 -0.0317
30083W        W45552   2.702  13.160  11.473  0.0237  0.2383  0.3617
30084W        W45553   8.903  15.452   4.530  0.0970 -0.0372  0.2714
30085W        W45554   9.625  12.472  11.873 -0.1150  0.0664 -0.3252
30086W        W45555  14.352   5.099  15.812  0.2572  0.0692  0.0988
30087W        W45556   3.241   3.822   3.859  0.2473  0.2790  0.1256
30088W        W45557   7.912   2.681   5.373  0.0589  0.0313 -0.2064
30089W        W45558   2.516  15.079   1.074  0.0958 -0.2351 -0.0043
30090W        W45559   8.044   3.546   6.392  0.3071 -0.1690 -0.0283
30091W        W45560  14.950   4.995   1.995  0.0336  0.0407  0.0938
30092W        W45561  14.983   7.086   5.501  0.1991 -0.1006  0.0570
30093W        W45562   4.314  14.533  15.628  0.2144 -0.2743 -0.0873
30094W        W45563  13.985  16.785   4.537 -0.0761  0.0071 -0.1023
30095W        W45564   6.983   2.033  15.638  0.1292 -0.2688 -0.1154
30096W        W45565   1.494   8.201   4.503  0.1854 -0.3169  0.0466
30097W        W45566   9.532   2.648  15.578 -0.0043  0.2250 -0.1329
30098W        W45567  11.360   7.687   1.920 -0.0391  0.2247  0.1022
30099W        W45568  10.061  14.788   3.624  0.0408  0.0948  0.0346
30100W        W45569   9.171   9.057  16.320  0.0026 -0.1488  0.0843
30101W        W45570  15.351  10.999   4.574 -0.0699  0.0059 -0.2930
30102W        W45571  16.481  14.813  12.576  0.0649 -0.0340  0.1763
30103W        W45572  14.418   9.919   4.566 -0.0072  0.0082 -0.0041
30104W        W45573  13.527   0.698   0.255  0.1533 -0.1105 -0.4350
30105W        W45574   2.403   3.456  12.935 -0.0442 -0.2974  0.2515
30106W        W45575   8.213   8.155   5.294 -0.1978 -0.0492  0.0822
30107W        W45576  13.216  15.906   1.794 -0.2599  0.0600 -0.0151
30108W        W45577   9.039   1.010   1.577 -0.2103  0.0670  0.0083
30109W        W45578  17.350  16.397   3.079  0.0795 -0.0980  0.0452
30110W        W45579  10.387   0.386  13.716  0.0718  0.0195 -0.0977
30111W        W45580   9.031   4.112  14.208  0.0811  0.0957 -0.3067
30112W        W45581  17.252  15.051  11.092  0.2367 -0.1635 -0.3822
30113W        W45582  15.847   4.722  11.447  0.0986 -0.0452 -0.2242
30114W        W45583   5.887   3.555   6.059 -0.3917  0.0189  0.0510
30115W        W45584  12.117  12.264  13.968  0.1306  0.1033 -0.1505
30116W        W45585  13.188   3.410   4.859 -0.0749  0.0954  0.1270
30117W        W45586   1.749   3.431   1.180 -0.1500 -0.2316  0.0738
30118W        W45587  17.492   6.526  14.666  0.1884  0.1018  0.3490
30119W        W45588   4.480  14.185  15.269 -0.1553 -0.1665  0.0157
30120W        W45589  14.000   7.560  13.077 -0.3879  0.0755  0.2713
30121W        W45590  16.699   6.819   5.049 -0.0801 -0.2162  0.1503
30122W        W45591  12.800  14.066   1.921  0.1326 -0.2945 -0.0939
30123W        W45592   8.750   5.910   2.830 -0.0256 -0.0467 -0.1457
30124W        W45593   1.385   3.979   1.851 -0.1015 -0.1055  0.0043
30125W        W45594   4.848  10.046   5.503 -0.0703 -0.1983  0.2130
30126W        W45595  17.366  14.895  14.708 -0.2554 -0.1383 -0.1339
30127W        W45596   6.662   2.122  13.370 -0.0074 -0.2286 -0.0324
30128W        W45597  13.335  12.140  14.308  0.2108  0.1498 -0.2295
30129W        W45598   2.101   6.340   2.638 -0.1980  0.3588  0.0237
30130W        W45599   7.469   3.373   3.183 -0.2239  0.0695  0.3247
30131W        W45600   0.029   8.173   1.974  0.1767  0.2404  0.2701
30132W        W45601   7.785  14.637   1.244 -0.1484  0.4116 -0.2260
30133W        W45602   5.101   1.752  11.998  0.0831  0.0078  0.2409
30134W        W45603   4.093  15.920   5.000  0.0168 -0.0732 -0.0980
30135W        W45604   4.234  14.832   0.089  0.0043  0.0887 -0.2330
30136W        W45605   3.037   0.073  15.686  0.0198  0.1118  0.1353
30137W        W45606   6.879  14.000  14.739  0.2445  0.1577  0.0459
30138W        W45607  17.095   7.718   3.086 -0.2217  0.0055  0.2828
30139W        W45608  14.368   8.198   4.220 -0.0130  0.2203 -0.1137
30140W        W45609  17.073  17.019  11.403  0.0071  0.0005 -0.2140
30141W        W45610   0.569   2.151  12.814 -0.2166 -0.1711  0.0788
30142W        W45611  11.818  16.201   6.055 -0.1212  0.2780 -0.1255
30143W        W45612   3.902   3.250   2.643  0.1207  0.3183  0.2164
30144W        W45613   5.136   0.883   0.461 -0.1244 -0.1782 -0.0409
30145W        W45614   4.476   0.195   1.514 -0.2575  0.1495  0.1417
30146W        W45615   5.958   6.830   0.118 -0.0726  0.0896  0.0776
30147W        W45616  16.215  10.370   4.737 -0.1328  0.3234 -0.1719
30148W        W45617   5.116  13.204   5.586 -0.0002  0.1149  0.1611
30149W        W45618   8.934  17.719  13.193  0.2346  0.0553 -0.2097
30150W        W45619   2.384   8.940   1.439 -0.0983 -0.3984 -0.1415
30151W        W45620  10.993   1.323  15.028 -0.1552  0.0955  0.1699
30152W        W45621  17.263  13.924   0.222 -0.0721 -0.0114  0.2568
30153W        W45622  11.307  10.142   3.406  0.0329  0.2976 -0.4151
30154W        W45623   3.965  13.374  13.762  0.2418  0.2374  0.2223
30155W        W45624   4.406  11.133   1.475 -0.1356  0.1492  0.0135
30156W        W45625  13.001   5.514   0.245  0.2485 -0.2243  0.0395
30157W        W45626  16.454   8.470  15.736 -0.1613 -0.1579  0.0431
30158W        W45627  14.422   1.251   3.598  0.0008  0.1883 -0.4120
30159W        W45628   8.301  15.457  11.515  0.1538 -0.0166  0.3205
30160W        W45629   3.968   0.181  11.916 -0.0176  0.0191 -0.0582
30161W        W45630  11.706  14.152   1.387  0.0123 -0.0648  0.0369
30162W        W45631  16.471   8.777   1.560  0.3370  0.2433 -0.1355
30163W        W45632  12.538   5.597  11.709  0.2255  0.2038  0.2730
30164W        W45633  12.893  10.947  16.143 -0.0018 -0.1063 -0.0433
30165W        W45634  11.482   7.586   4.776 -0.1592 -0.0244 -0.0205
30166W        W45635   5.884  13.885   5.979  0.0574 -0.4475  0.2451
30167W        W45636   9.434  11.865   3.078 -0.2149  0.1944  0.2490
30168W        W45637  11.748   9.314  14.810 -0.0077  0.1047 -0.1539
30169W        W45638  12.284   1.146  13.350  0.0425  0.1253 -0.2299
30170W        W45639  12.234   2.200   5.642 -0.1593  0.2077 -0.0113
30171W        W45640  11.774   8.981   3.216  0.1248 -0.2696  0.1910
30172W        W45641  12.767  15.092   1.952  0.0084  0.0389 -0.4945
30173W        W45642  11.647   3.381   3.265  0.1915  0.2117  0.2675
30174W        W45643  17.053   8.599   0.904  0.2030  0.1969  0.3553
30175W        W45644  15.468   1.213  16.397  0.0612  0.0192  0.1197
30176W        W45645  15.038   2.734   5.652 -0.5142 -0.1825  0.0166
30177W        W45646  17.505   7.166  16.110 -0.2257 -0.2004 -0.1366
30178W        W45647   2.634   9.742   1.135 -0.1497  0.0611 -0.1062
30179W        W45648   6.397  17.735  13.089 -0.2863  0.0541  0.1584
30180W        W45649   1.154  16.779   4.224  0.0341 -0.2542 -0.2619
30181W        W45650  15.980   6.478   4.528 -0.0859 -0.0168  0.0747
30182W        W45651  13.721   2.349  16.184  0.1259 -0.2261 -0.0505
30183W        W45652  14.661   9.606   0.727  0.0385  0.2071  0.0258
30184W        W45653   6.439   8.524   2.715 -0.1601  0.1123 -0.1479
30185W        W45654  15.133   1.688  15.770 -0.0656  0.0614  0.1652
30186W        W45655   5.889  12.224   5.783 -0.0933 -0.1530 -0.1844
30187W        W45656   0.271   2.700  12.838 -0.1209  0.1478 -0.0988
30188W        W45657  11.623   2.541   4.508 -0.1487 -0.1666  0.0233
30189W        W45658  13.880   4.224  16.115  0.3488  0.1042 -0.1490
30190W        W45659  11.644  15.739   2.582 -0.0781  0.1063  0.4315
30191W        W45660  12.282   1.399  16.535 -0.3286  0.2577  0.2385
30192W        W45661  16.787   9.069   4.450  0.0469 -0.0457 -0.1616
30193W        W45662  13.904   9.518  16.373  0.0018  0.0818  0.1264
30194W        W45663  11.874  11.709   4.990  0.0604  0.2160 -0.0908
30195W        W45664  14.721  16.593  14.764  0.0276  0.0489 -0.3192
30196W        W45665   4.903  14.126   0.426  0.0155  0.0474  0.3060
30197W        W45666  11.239  16.958   2.783  0.0548  0.2025  0.2852
30198W        W45667  13.907  13.447   0.647  0.0365  0.0697  0.2123
30199W        W45668  16.133   6.593  11.563  0.0153 -0.2722  0.1823
30200W        W45669   0.012   3.527  11.237 -0.2701 -0.1997 -0.1607
30201W        W45670   2.355   6.350   0.879  0.0858  0.0331  0.0970
30202W        W45671   2.427   8.202   2.583 -0.3733 -0.0101 -0.1512
30203W        W45672   4.600   9.386  15.026  0.0083  0.1782  0.2378
30204W        W45673   5.797   6.947   4.786  0.0108  0.1040 -0.0237
30205W        W45674  15.017  16.233   0.993 -0.3083  0.0731  0.5500
30206W        W45675   5.241   2.796   5.020  0.1703  0.0469  0.2891
30207W        W45676  13.854   6.067   4.414 -0.0654  0.0246  0.0350
30208W        W45677   7.750   4.280   2.250 -0.0693  0.0670 -0.2190
30209W        W45678  12.303   9.402  15.649  0.0338  0.1159  0.5087
30210W        W45679   7.547  12.776  14.178  0.0293  0.0914 -0.0855
30211W        W45680   2.333  12.514   2.811 -0.0454 -0.3278 -0.0074
30212W        W45681   4.308  17.053  13.961 -0.0075  0.2045 -0.0983
30213W        W45682   9.845  10.713   4.709 -0.2337  0.1915 -0.1685
30214W        W45683  13.495   7.258   5.431 -0.2120 -0.0067 -0.0297
30215W        W45684   9.077   9.950   2.007  0.0290  0.0221 -0.0348
30216W        W45685  15.415   4.429  13.878 -0.3043 -0.0342  0.0679
30217W        W45686  10.079  10.748  14.844 -0.1023  0.0644  0.0529
30218W        W45687   8.971  16.056   0.846 -0.0227  0.0985 -0.3143
30219W        W45688   7.576   8.934  14.432 -0.1145 -0.0026 -0.0201
30220W        W45689  14.252   6.586  14.636  0.3243  0.2578 -0.0251
30221W        W45690   6.154  12.352   1.710  0.0042  0.1925  0.0107
30222W        W45691   3.855  17.721   3.621  0.1986  0.0592 -0.0418
30223W        W45692  15.177  17.674   5.206 -0.0642  0.2489 -0.1005
30224W        W45693  11.078  17.594  15.375  0.0686  0.1094  0.0760
30225W        W45694   5.522  10.397  12.532 -0.0908  0.1581  0.0530
30226W        W45695  14.383   4.936  15.258 -0.1820  0.0837  0.1357
30227W        W45696   8.780  14.135   1.370  0.0874 -0.4440  0.2442
30228W        W45697  14.450  14.515   5.540 -0.1571 -0.0635  0.1905
30229W        W45698   3.307  16.428  14.159  0.0005 -0.5019  0.0496
30230W        W45699  16.021   2.685   3.200 -0.0561  0.2006 -0.0589
30231W        W45700  16.284   7.754  13.217  0.0905  0.1791 -0.1496
30232W        W45701   2.337   4.301   5.930  0.2261 -0.1591  0.0176
30233W        W45702   8.579   1.012   3.074  0.0226 -0.0566  0.1840
30234W        W45703   1.208  16.373   1.838  0.1935 -0.1533  0.0614
30235W        W45704  11.823   1.995  13.449 -0.2133  0.1423 -0.0030
30236W        W45705   8.600   7.231   1.477 -0.0113  0.0949  0.1103
30237W        W45706  12.548  14.439  10.906 -0.0804 -0.0587 -0.0680
30238W        W45707   8.166   4.347  14.019 -0.1960  0.0194 -0.0377
30239W        W45708  12.382  12.861   1.847 -0.0405  0.2796  0.2071
30240W        W45709  14.699  12.200   4.314  0.1514  0.1879  0.1706
30241W        W45710   1.624   5.382   1.643 -0.2018  0.0067  0.2935
30242W        W45711   8.393   2.882   6.008 -0.1908 -0.0392  0.3055
30243W        W45712  16.385   6.727   1.643 -0.0336  0.1450  0.3152
30244W        W45713   0.284  11.954  10.891  0.1457  0.1013 -0.1536
30245W        W45714   1.290   3.792  15.730  0.0876  0.3112  0.0645
30246W        W45715   1.274  10.400  13.146 -0.1450 -0.2470 -0.1315
30247W        W45716   4.653   4.996   4.864  0.1395 -0.0804  0.1765
30248W        W45717  11.949   3.252  13.691  0.2882  0.0905 -0.1842
30249W        W45718  13.584  10.024   1.974 -0.1515 -0.0478  0.0342
30250W        W45719   8.878  11.320   2.059 -0.2828  0.1608  0.2592
30251W        W45720   8.292   0.992  15.886 -0.0184 -0.0672  0.1232
30252W        W45721  10.948   7.034  13.689  0.3453  0.2466  0.1919
30253W        W45722   3.540  13.639   3.889  0.1993  0.0942 -0.2141
30254W        W45723  10.045   9.688  11.966 -0.0903 -0.2878  0.2178
30255W        W45724   3.049   9.185  13.211 -0.0298  0.0750 -0.2437
30256W        W45725   2.941  11.205  14.982 -0.3284  0.0204 -0.0194
30257W        W45726  16.760   2.438  16.384  0.0929  0.3825 -0.2134
30258W        W45727   2.693   1.253   4.102 -0.1683  0.0873 -0.1368
30259W        W45728  12.041  16.605   3.081  0.1565  0.2157 -0.3842
30260W        W45729   1.674   4.894   5.458 -0.1258  0.1450 -0.2870
30261W        W45730   9.476   8.666  16.460  0.0089 -0.2198 -0.0700
30262W        W45731  16.528  12.326  13.141 -0.2378 -0.3436 -0.1678
30263W        W45732   5.063   7.934   2.289  0.1917  0.1663  0.2994
30264W        W45733  17.006   0.452   5.186 -0.1092  0.0990  0.1089
30265W        W45734  12.361   1.349   2.568 -0.1614 -0.0445 -0.0293
30266W        W45735  17.010   1.994   0.334  0.1039  0.0147 -0.2095
30267W        W45736  11.458   7.741  16.474 -0.1282 -0.2267 -0.0677
30268W        W45737  16.356   2.947   5.305  0.0024  0.2945 -0.1812
30269W        W45738  14.220  15.885   4.935 -0.2281 -0.0257 -0.0259
30270W        W45739  14.350  15.471  13.211  0.0819 -0.0639 -0.1064
30271W        W45740   7.531   8.427   4.280 -0.1622 -0.0132  0.0258
30272W        W45741   0.744  13.125  16.113 -0.1802 -0.1225  0.2018
30273W        W45742   6.262   5.852  15.222  0.0286 -0.2959 -0.1422
30274W        W45743   4.792  15.679   3.467 -0.2766  0.0544 -0.2477
30275W        W45744  15.894   3.684   2.278 -0.0738 -0.2343 -0.1920
30276W        W45745   3.905   9.920   2.283  0.3889  0.3003 -0.0910
30277W        W45746   8.373   6.293  11.833 -0.1265  0.4059  0.0715
30278W        W45747   5.967  10.904  13.235  0.0841  0.0554  0.1033
30279W        W45748   3.137  16.523   1.963  0.1103 -0.0379 -0.1503
30280W        W45749  14.439   6.526  13.866  0.2608 -0.3853 -0.0610
30281W        W45750  14.984  10.630   2.855  0.1391  0.0061 -0.2317
30282W        W45751  15.685   5.758   1.080 -0.0029 -0.0608 -0.0365
30283W        W45752  15.417  14.708  15.802  0.1749 -0.1193 -0.0094
30284W        W45753   0.864  17.232  16.442  0.2638 -0.0480 -0.0426
30285W        W45754  15.678  11.698  12.615  0.2358  0.1653  0.1558
30286W        W45755  15.297  10.727  13.408 -0.0972 -0.0351 -0.1224
30287W        W45756   6.545   2.015   4.967 -0.1614  0.2406  0.2553
30288W        W45757  12.377   8.759   6.121 -0.2224 -0.2516  0.2121
30289W        W45758  11.179   1.042   1.307 -0.0195  0.0277  0.3735
30290W        W45759  13.948  10.318   0.901  0.2098 -0.0306  0.0691
30291W        W45760   3.578  15.866  15.815 -0.0570 -0.1531 -0.0196
30292W        W45761   1.751  14.699   4.968 -0.1545 -0.4331  0.0672
30293W        W45762  14.270  12.362   4.596  0.1061  0.0253 -0.0369
30294W        W45763   1.076   3.013   1.804 -0.1515 -0.0288 -0.0751
30295W        W45764  15.741   9.743  15.119  0.1526 -0.2406  0.0291
30296W        W45765   9.450   7.311  16.228 -0.1082  0.3522 -0.2869
30297W        W45766   2.469  12.137  13.620 -0.1148 -0.2719 -0.0190
30298W        W45767   8.000   8.971   4.985 -0.0838  0.1762 -0.0717
30299W        W45768  17.224   4.976   5.327  0.1285 -0.0458  0.2495
30300W        W45769   5.561  16.056   2.520 -0.0952  0.3069 -0.2132
30301W        W45770   0.206   0.429   5.211 -0.0208 -0.1039  0.1956
30302W        W45771   4.797   0.028   2.778 -0.0161 -0.2947  0.0608
30303W        W45772  10.623  11.966  13.480  0.1631  0.0937  0.1283
30304W        W45773  13.962  10.467   3.521  0.2986  0.0190 -0.1666
30305W        W45774   5.755  11.313  12.506  0.1657 -0.0534  0.0555
30306W        W45775  12.083   3.393  14.926 -0.0900 -0.0573 -0.3297
30307W        W45776   7.827   7.749  14.838 -0.0437 -0.3039 -0.1523
30308W        W45777  16.830   5.374  14.358 -0.2034 -0.2337  0.2897
30309W        W45778   6.333   1.535   6.665  0.2474 -0.0694  0.0435
30310W        W45779   7.376  16.173   1.335  0.0855 -0.2210 -0.2508
30311W        W45780   2.289   0.844   0.953  0.0090 -0.2317  0.2644
30312W        W45781   1.347   5.822   0.280  0.1056  0.1526 -0.1806
30313W        W45782   0.241  15.696  12.912 -0.1977  0.0529  0.2679
30314W        W45783   8.824   6.063  15.223  0.0788  0.2448  0.0674
30315W        W45784   3.608  12.211  14.926  0.0760 -0.1447 -0.2012
30316W        W45785   8.796   5.458   4.481  0.0223 -0.0501 -0.0633
30317W        W45786   6.147   4.238   1.426  0.2035  0.1527  0.1777
30318W        W45787  15.527  12.087   5.880  0.0018 -0.1882 -0.1724
30319W        W45788   4.469   8.370   3.550  0.0777  0.1471  0.1664
30320W        W45789  13.856   7.007  14.034  0.1963  0.1999 -0.1530
30321W        W45790   5.660  15.053  13.076 -0.0933  0.2343 -0.1913
30322W        W45791   3.219   7.531  12.065 -0.2924  0.2557 -0.2067
30323W        W45792   6.852  16.514  14.076  0.0717 -0.1325  0.1261
30324W        W45793  14.878   8.527  14.858  0.2095 -0.0884 -0.1088
30325W        W45794  14.260  10.847   1.873  0.0721  0.3794 -0.0085
30326W        W45795   5.544   6.024  14.788  0.1132 -0.0153 -0.1088
30327W        W45796  10.614  17.029  16.093  0.0909  0.0763  0.1397
30328W        W45797  12.499  14.653   1.431  0.1042  0.1831  0.3066
30329W        W45798   4.092   0.621  12.441 -0.0204 -0.1566 -0.2889
30330W        W45799   1.093   8.820   1.126  0.0926 -0.1785  0.2770
30331W        W45800   0.254  17.716  13.482  0.0273 -0.0914  0.2039
30332W        W45801   9.312  16.904  12.844 -0.3166 -0.1727 -0.1850
30333W        W45802   3.957  14.357  14.509 -0.2190 -0.1555 -0.1647
30334W        W45803  10.545   4.161  14.568  0.0172 -0.1198 -0.0604
30335W        W45804   5.106  17.609  12.342 -0.4012 -0.0565 -0.3045
30336W        W45805  16.417   8.434  11.248 -0.0365 -0.2136  0.4499
30337W        W45806   3.690   1.305   0.333 -0.0117  0.0323  0.0698
30338W        W45807  15.107   7.342  14.549 -0.1474  0.0563  0.2239
30339W        W45808   6.018  13.882  15.919 -0.1263  0.0992 -0.0946
30340W        W45809  13.510   0.212   0.056 -0.1632  0.0197  0.3658
30341W        W45810   6.771  12.557  13.356  0.0181  0.0839 -0.0600
30342W        W45811  11.787   4.873   4.930 -0.1073  0.0039  0.0305
30343W        W45812   0.068   3.914   4.363 -0.1560 -0.0851  0.1696
30344W        W45813   5.216  16.847   0.036  0.0428 -0.0624 -0.2001
30345W        W45814   3.389  10.140   1.519 -0.0803  0.0111 -0.0589
30346W        W45815   7.576   7.338  16.734  0.0179 -0.1184  0.0684
30347W        W45816  13.789  11.924  14.242 -0.3307 -0.2499 -0.1495
30348W        W45817   3.911   1.036  15.650  0.0736 -0.1274  0.1374
30349W        W45818  17.129   6.031  15.594 -0.2426  0.1059 -0.0462
30350W        W45819  15.332   8.774   4.304  0.1412 -0.2642  0.1025
30351W        W45820  15.107   7.896  12.088  0.0615 -0.1661  0.0631
30352W        W45821  13.602   6.291  12.878  0.0823  0.0525 -0.1771
30353W        W45822  16.665   3.742  14.244  0.0786  0.1471  0.0033
30354W        W45823  11.228  11.289  14.885  0.1854 -0.3043 -0.2685
30355W        W45824  15.262  17.400   0.255 -0.1312  0.1988  0.1537
30356W        W45825   0.995   7.470   3.451 -0.2988 -0.2081 -0.3083
30357W        W45826  13.945  11.074   1.508  0.3515  0.1009 -0.0102
30358W        W45827   1.826  16.202   3.696 -0.0618 -0.1816 -0.0114
30359W        W45828   1.506  17.611  15.925 -0.1641 -0.2870  0.0160
30360W        W45829   3.302  12.675  14.878 -0.1776  0.0380 -0.0539
30361W        W45830   8.082  10.404   5.822 -0.0990 -0.1158  0.0873
30362W        W45831  12.935  11.784   0.491 -0.1892  0.0015  0.2500
30363W        W45832   3.775   8.737  13.844  0.0665  0.0396  0.1748
30364W        W45833   9.640  12.006  12.085 -0.0406  0.3278  0.0220
30365W        W45834  11.006   9.614  12.081  0.1228  0.0640  0.0451
30366W        W45835  13.655   5.318  12.442 -0.1206 -0.1262  0.2583
30367W        W45836   5.838   4.983   0.156 -0.5924  0.1286 -0.0589
30368W        W45837   3.774  14.236   5.608  0.0326  0.2271 -0.2132
30369W        W45838   1.948  13.897   1.646  0.0998 -0.3330  0.4386
30370W        W45839  12.488   3.122  16.224  0.3399 -0.0113 -0.0648
30371W        W45840  16.836  16.991   2.617 -0.0896 -0.1054  0.1272
30372W        W45841   2.770  12.187   1.549  0.3318 -0.0066 -0.0973
30373W        W45842   8.055   2.742  14.647  0.0791 -0.0621 -0.1140
30374W        W45843  14.945   4.385   5.890  0.0141 -0.1035 -0.1188
30375W        W45844  13.419  12.205   5.589  0.3130  0.2984 -0.1236
30376W        W45845  13.385   5.946   3.170  0.0106 -0.2774  0.1701
30377W        W45846  11.262   8.411   0.608  0.1549  0.0703 -0.2457
30378W        W45847   4.058   2.695  13.695 -0.1145 -0.0582  0.1368
30379W        W45848   6.343   4.778  13.652  0.0162 -0.1465  0.2316
30380W        W45849   8.451  10.950   1.931 -0.0267 -0.0931 -0.2114
30381W        W45850  15.109  12.210  14.177  0.1253  0.0956 -0.0644
30382W        W45851   0.971   2.124  10.755 -0.1182  0.0556 -0.0525
30383W        W45852   5.219   1.900   4.081 -0.4102  0.1644  0.0121
30384W        W45853   5.054  14.127   2.553  0.4025  0.0778 -0.1126
30385W        W45854   8.097  15.794   6.145 -0.0302  0.1531 -0.0746
30386W        W45855   8.241   7.283  12.115  0.2210 -0.3077  0.0339
30387W        W45856  16.796   2.196  14.480 -0.1662  0.0455  0.0739
30388W        W45857  13.023  15.693  14.564 -0.0970 -0.0785 -0.0540
30389W        W45858  13.614   7.257  10.967  0.3255 -0.2028  0.2735
30390W        W45859  10.652   8.627   4.906 -0.1541  0.2935 -0.0734
30391W        W45860  15.833   2.070   2.981  0.0906  0.0446 -0.0826
30392W        W45861   8.153  11.653   3.509 -0.0010 -0.1850 -0.0562
30393W        W45862   1.013   2.744   5.703  0.4677 -0.0518  0.1513
30394W        W45863  14.760  10.210  13.877 -0.1253  0.1322  0.1799
30395W        W45864   1.849  10.850  15.879  0.2992  0.2652  0.2218
30396W        W45865   7.872  16.085   1.157  0.0171 -0.1914  0.0797
30397W        W45866  14.984   9.387   4.128 -0.0213 -0.2683  0.0252
30398W        W45867   7.588   2.558  11.271 -0.0128  0.0520  0.1237
30399W        W45868   1.721   2.867   3.999  0.1214 -0.1599 -0.0545
30400W        W45869   2.749  10.137  16.390 -0.0122 -0.0393 -0.1771
30401W        W45870  10.531   9.436   3.677 -0.0239 -0.2297  0.1919
30402W        W45871   4.909   4.939   3.902 -0.1737 -0.0887  0.0790
30403W        W45872   1.369   2.270  16.526  0.3877  0.2188 -0.0770
30404W        W45873   3.775  12.663   3.044  0.1191 -0.1474  0.1192
30405W        W45874  14.304  14.700  14.326  0.1312  0.2759 -0.1788
30406W        W45875   7.576  11.032   5.601  0.0801  0.1382 -0.1498
30407W        W45876   2.720   5.494   0.390 -0.0842 -0.0034 -0.1202
30408W        W45877  11.060   8.719   2.132  0.0593  0.2778  0.1664
30409W        W45878  17.395   4.564   3.888  0.1280 -0.0752 -0.0742
30410W        W45879  14.255  15.237  16.167  0.0882 -0.3573  0.0436
30411W        W45880  13.030   5.867  11.983  0.0204 -0.0570  0.1622
30412W        W45881  15.835   1.368  12.925 -0.1067  0.0130 -0.3020
30413W        W45882  16.124  13.068  13.162 -0.1165 -0.0927 -0.2588
30414W        W45883   3.386   9.165  15.874 -0.0089 -0.0505 -0.4026
30415W        W45884   4.782   7.570   0.923  0.0386 -0.1550  0.2804
30416W        W45885  11.440  17.705  14.899  0.0311 -0.1573 -0.0755
30417W        W45886   9.418  11.821  13.347  0.2241  0.0862  0.0112
30418W        W45887  13.548   7.274   0.799  0.1407 -0.1334  0.2515
30419W        W45888  11.773  14.777   2.009  0.0731 -0.0652 -0.1552
30420W        W45889   0.085  11.783   4.674 -0.1417  0.1143 -0.1605
30421W        W45890   5.291  13.507  11.927  0.1973 -0.1081 -0.0513
30422W        W45891  15.857   5.230   5.782  0.2891 -0.2214 -0.0883
30423W        W45892   3.561   9.074  14.892 -0.0774  0.3937  0.0977
30424W        W45893   9.744   5.240   2.802  0.0030  0.0853  0.0597
30425W        W45894  11.674   6.554   1.032 -0.1338  0.0197 -0.0083
30426W        W45895  17.090  13.169   5.334 -0.1881  0.0381 -0.0115
30427W        W45896   7.583   9.918   2.438  0.0112  0.1439 -0.0947
30428W        W45897   0.173  11.216   2.419 -0.1241 -0.2099 -0.0873
30429W        W45898  17.713  17.653  14.389  0.0743 -0.0496  0.0501
30430W        W45899  15.141  10.151  11.663 -0.1457 -0.4823  0.1538
30431W        W45900  13.082   5.588  12.622 -0.0556 -0.3326 -0.0648
30432W        W45901  13.225   8.248   5.825  0.1026  0.0170 -0.0512
30433W        W45902   8.298   1.773   2.882 -0.0509  0.1727  0.0760
30434W        W45903   7.207  10.399  15.371 -0.1478  0.0850 -0.0112
30435W        W45904   7.341   7.717  16.361  0.0637  0.0101 -0.0834
30436W        W45905  14.704   6.449  15.873  0.1079  0.0395 -0.1177
30437W        W45906   1.675   8.746   2.383 -0.0230 -0.0425  0.0301
30438W        W45907   5.206  14.977   3.949  0.1630 -0.1030 -0.1381
30439W        W45908  15.159  16.568  14.549 -0.0512  0.0381 -0.0824
30440W        W45909   0.159  12.938   3.509 -0.0168  0.2458  0.1914
30441W        W45910   1.931   4.295  10.849  0.2086  0.0183  0.2237
30442W        W45911   2.311   4.300  15.903  0.1182 -0.1248  0.0096
30443W        W45912   3.967   2.197   0.812  0.0817  0.0851  0.3130
30444W        W45913   5.366  11.725  12.463 -0.1043  0.0626  0.2863
30445W        W45914  15.354   1.323  13.064 -0.3321 -0.1527 -0.2607
30446W        W45915   4.859  14.371   5.604  0.0340  0.1087 -0.3127
30447W        W45916   6.882   1.108   5.296 -0.1965 -0.2610  0.0023
30448W        W45917   9.702  10.985   6.129  0.0905 -0.2100  0.0312
30449W        W45918  16.662   6.644   0.168  0.1764  0.1284  0.0739
30450W        W45919  11.172   2.627  12.905  0.1416 -0.1667 -0.1624
30451W        W45920  12.527  12.299  12.679 -0.0955  0.2659 -0.1500
30452W        W45921  10.005   9.763  13.277  0.0826  0.1524  0.0262
30453W        W45922   7.041   6.340  11.973 -0.0777  0.1316  0.0859
30454W        W45923  11.292   6.634  14.403 -0.1481  0.0080  0.2333
30455W        W45924  13.035   6.472  12.784  0.0100 -0.0688  0.1557
30456W        W45925   4.240   6.821  13.221 -0.2519 -0.0418  0.0144
30457W        W45926  17.196  11.421  15.926 -0.1262  0.2866  0.3441
30458W        W45927  11.066   8.040   0.919  0.1104 -0.0527 -0.2216
30459W        W45928   8.554  15.410   3.699 -0.0673  0.2983  0.1985
30460W        W45929  12.366   0.745  11.695  0.0729  0.2140 -0.0015
30461W        W45930   8.359   9.142   3.454  0.0092 -0.1864  0.2549
30462W        W45931   1.563  16.981  15.185 -0.0401  0.2930 -0.1050
30463W        W45932  10.730  12.913   2.698  0.2486 -0.0629  0.2540
30464W        W45933  11.277   2.689  15.031 -0.1265  0.0791  0.1868
30465W        W45934  14.763   5.328  16.731 -0.0845  0.1097 -0.2572
30466W        W45935   7.048  16.574   1.441  0.1235 -0.1988 -0.3976
30467W        W45936  10.038  13.505   5.919 -0.0515  0.2237 -0.1125
30468W        W45937   9.110   3.573  13.279  0.0539  0.1807  0.2893
30469W        W45938  10.973   1.591   1.983 -0.1824 -0.1363  0.1820
30470W        W45939  15.028  13.893   4.552 -0.0399 -0.0327  0.2085
30471W        W45940   0.805   8.319  14.194 -0.3135 -0.2020 -0.2508
30472W        W45941  10.489  14.042  13.874  0.3699  0.0020 -0.1981
30473W        W45942   6.290   8.913  13.877  0.1044 -0.0366 -0.1967
30474W        W45943   3.154  16.384  13.309 -0.2449  0.1159 -0.0427
30475W        W45944  11.649  13.344   5.425  0.2438  0.1465 -0.2038
30476W        W45945  14.825  11.585  11.580 -0.0950  0.0956  0.2265
30477W        W45946  14.313  15.977   0.933 -0.0831 -0.0528  0.1193
30478W        W45947   9.437   4.938   5.600  0.0776  0.1391  0.1519
30479W        W45948  10.941   0.311   5.088  0.0611 -0.0388 -0.2144
30480W        W45949   1.170   8.345   1.455 -0.0674 -0.0761  0.0255
30481W        W45950   1.602  10.320  14.633  0.0564 -0.1772 -0.1094
30482W        W45951   2.013  12.745   3.618  0.1938  0.0307 -0.2125
30483W        W45952   7.140   6.042  14.745  0.1396  0.0378  0.0615
30484W        W45953  10.278   7.247   6.404 -0.0204 -0.0787 -0.1638
30485W        W45954   4.770  16.052   0.550 -0.0648 -0.0142  0.1473
30486W        W45955   0.296   5.338  13.138  0.0307  0.4055  0.2865
30487W        W45956   8.747   5.190  14.817 -0.0541  0.0171 -0.1565
30488W        W45957   9.278  14.892  15.901 -0.2189  0.3244 -0.3969
30489W        W45958  15.908   4.331  12.346 -0.0698 -0.2749 -0.0383
30490W        W45959   7.576  16.545   1.086 -0.0065 -0.2086 -0.0317
30491W        W45960   7.742   1.033   2.838  0.1830  0.0363  0.0472
30492W        W45961  10.705   3.244   5.657  0.0823 -0.2524 -0.0367
30493W        W45962  10.493  11.373   3.140 -0.0360  0.1928  0.1441
30494W        W45963   7.503  13.643  16.699 -0.0278 -0.0574 -0.0619
30495W        W45964   9.807   3.414   3.606  0.3376 -0.1622 -0.3640
30496W        W45965   6.070   0.146  15.682  0.1967  0.1153  0.0310
30497W        W45966   4.417  12.207   0.940 -0.1819 -0.0121 -0.2031
30498W        W45967   5.836   1.384   5.199  0.0431  0.2053  0.2037
30499W        W45968  17.752   2.035  16.467 -0.2904 -0.0436  0.1005
30500W        W45969   1.345  12.865   2.935  0.2047  0.1103 -0.0939
30501W        W45970   5.284  13.780   0.177 -0.0975 -0.0214  0.0969
30502W        W45971  10.551  11.620  11.796 -0.3325 -0.1212  0.1422
30503W        W45972  12.778   4.217  13.744  0.3198  0.0048  0.0236
30504W        W45973  16.133   6.582  14.514  0.2094 -0.2053 -0.0744
30505W        W45974   1.058   4.089   2.750  0.1001 -0.0523  0.1834
30506W        W45975   3.223  11.995  11.074  0.1725 -0.2860  0.1834
30507W        W45976   0.351   2.835   4.054  0.0484 -0.0661  0.1839
30508W        W45977  12.984   6.999   4.611  0.0176  0.1171 -0.1494
30509W        W45978   7.983   8.600  14.282 -0.1419  0.3120 -0.0519
30510W        W45979   5.752  13.115  14.175 -0.0253 -0.0164 -0.1391
30511W        W45980   8.030  16.301   4.948 -0.0212  0.0607 -0.3680
30512W        W45981   2.034   8.839  11.162  0.0238 -0.1278 -0.0506
30513W        W45982  14.186  14.611  11.677 -0.3908 -0.3612  0.1119
30514W        W45983   0.014   4.267  11.198 -0.0241  0.0018 -0.0966
30515W        W45984   8.732  12.375  14.033 -0.0708 -0.4065  0.2021
30516W        W45985   6.245  16.778   5.268 -0.3016 -0.0628 -0.0640
30517W        W45986   4.001  15.722   3.706 -0.1025 -0.0349  0.0335
30518W        W45987   6.400   0.396   2.652 -0.0027  0.0914  0.0507
30519W        W45988  13.599  14.477   3.783 -0.1063 -0.1891 -0.1891
30520W        W45989  10.643  12.139   1.176 -0.1430 -0.1017 -0.2171
30521W        W45990   3.672  14.667   0.013  0.0530  0.2357 -0.1181
30522W        W45991  16.721   1.502  13.309  0.0105  0.0994  0.2355
30523W        W45992  17.287  15.298  11.559  0.1349 -0.1212 -0.1641
30524W        W45993   9.619   6.699  14.383 -0.0240  0.3949 -0.3907
30525W        W45994   4.324   3.764  14.589 -0.1107 -0.1739 -0.0420
30526W        W45995   6.839   7.134  15.751  0.0059  0.1034  0.3188
30527W        W45996   3.493   8.517  14.718  0.1834 -0.1418 -0.2365
30528W        W45997   8.037  16.327   2.457  0.0713 -0.2850 -0.1535
30529W        W45998  16.075  10.045  16.433 -0.2395  0.2414  0.0737
30530W        W45999  12.762  14.430  15.048 -0.1723  0.2168  0.0333
30531W        W46000   5.632   7.014  12.439  0.1156 -0.1269  0.2832
30532W        W46001   5.579   5.478   4.678 -0.0928 -0.2088  0.2399
30533W        W46002   9.623   0.096   4.851  0.0428  0.3631 -0.3014
30534W        W46003   2.293   0.543  14.540  0.2140 -0.1236  0.0729
30535W        W46004  11.910  15.485  14.501 -0.2799 -0.0244 -0.1842
30536W        W46005   8.465   2.379   3.840  0.1007  0.1389  0.1042
30537W        W46006  15.127   8.740  14.483  0.3655 -0.3894  0.1616
30538W        W46007  10.103  14.260  13.544 -0.1097 -0.0821  0.0835
30539W        W46008   5.320  15.278  15.276  0.1620 -0.1630  0.1779
30540W        W46009   8.279   4.668   4.163 -0.2762 -0.0844  0.1347
30541W        W46010  11.962   3.025  14.540 -0.0835 -0.1154 -0.0923
30542W        W46011  15.988  14.334   0.380  0.2760  0.1682 -0.0934
30543W        W46012   7.882  11.889   1.226  0.2071 -0.1002 -0.3844
30544W        W46013   9.483   9.006   5.196 -0.0331  0.1802 -0.4386
30545W        W46014  13.168  12.630   1.691 -0.0297  0.0086 -0.0207
30546W        W46015  14.659   7.146  12.888  0.1774  0.1724 -0.0798
30547W        W46016   6.908   6.619  13.828  0.1404  0.2455 -0.0104
30548W        W46017   2.836  10.228   3.392  0.0865 -0.0817  0.1307
30549W        W46018  14.784  13.154  15.689 -0.2802 -0.0609 -0.0622
30550W        W46019   5.516   3.745   4.133  0.0019  0.0237 -0.2263
30551W        W46020  11.705  13.494  13.417  0.0248 -0.1889  0.1020
30552W        W46021   6.780  15.457   1.775  0.0905 -0.0048 -0.3079
30553W        W46022  17.141   8.137   5.150 -0.2174  0.1329  0.3108
30554W        W46023  11.361   8.895   4.860 -0.2728 -0.1401  0.4057
30555W        W46024  14.002   6.055   2.000  0.0668 -0.1842 -0.2025
30556W        W46025   7.827   1.225   4.077  0.0178  0.0762 -0.3607
30557W        W46026   8.068   1.288   5.508  0.0712 -0.1035  0.7733
30558W        W46027   3.369  16.075  16.605  0.0194 -0.0831  0.2407
30559W        W46028   8.167   6.855  12.543 -0.0011 -0.1100  0.0197
30560W        W46029   5.298  13.297   3.039  0.2386  0.0956 -0.3114
30561W        W46030   9.253  11.844   4.706 -0.1717  0.0731  0.0059
30562W        W46031   9.848  13.442   1.505 -0.1706 -0.0607  0.0320
30563W        W46032   0.393   4.809   2.102 -0.2335 -0.0568 -0.1402
30564W        W46033  11.659   4.390   0.496  0.2560  0.0958  0.2109
30565W        W46034   7.742  12.064   3.886 -0.0673 -0.0080  0.0982
30566W        W46035   5.573  15.372   2.958  0.2467  0.0096 -0.1652
30567W        W46036   4.464  13.106   1.732  0.1716 -0.0067  0.3154
30568W        W46037  13.046  16.256   0.626  0.3440  0.0245  0.1059
30569W        W46038  14.996   7.076  16.086  0.1556 -0.0823  0.2017
30570W        W46039   5.989  11.316  16.050  0.3251 -0.0363 -0.1982
30571W        W46040  10.399   6.185  15.931  0.2725  0.0954  0.3109
30572W        W46041  16.923   5.758  13.561 -0.3052  0.1297  0.0220
30573W        W46042   3.053  10.007   4.545 -0.0579  0.0255  0.1291
30574W        W46043   7.724  16.770  14.490 -0.0874  0.0983 -0.2700
30575W        W46044  17.370   2.242   2.972  0.1055  0.1109  0.0065
30576W        W46045   4.465  17.163   0.417  0.1354 -0.1680  0.2405
30577W        W46046   3.073   8.804  14.471 -0.1262 -0.1480 -0.0140
30578W        W46047   1.490  17.073  13.273 -0.2229  0.2308  0.4480
30579W        W46048   3.651   8.911   2.033  0.1877  0.0924  0.0863
30580W        W46049   7.407  15.020  12.157  0.0676 -0.0665  0.3994
30581W        W46050  10.003   7.343  15.488 -0.0193 -0.0594  0.0108
30582W        W46051   9.116   3.618   5.522  0.3291 -0.1798  0.2747
30583W        W46052  11.429  10.605   3.480  0.0745 -0.0259  0.0797
30584W        W46053  10.726  11.843   5.564 -0.2170  0.3258 -0.2257
30585W        W46054  10.389   7.145  11.743  0.3895 -0.2874  0.0965
30586W        W46055  15.560   5.757   4.065 -0.2236 -0.1227  0.0902
30587W        W46056  11.843   4.565  15.857 -0.0194 -0.0607 -0.0461
30588W        W46057   9.285  17.693   3.321  0.3400  0.0560  0.0984
30589W        W46058  13.043   8.598  11.781 -0.2335 -0.0958  0.0728
30590W        W46059  14.720   8.400  12.162  0.0001 -0.2213  0.0875
30591W        W46060   0.291   4.128  14.637 -0.2824 -0.0231 -0.0618
30592W        W46061  13.569   6.040   2.711 -0.1207 -0.1911  0.0907
30593W        W46062   9.912   0.438  12.045  0.1396  0.2628  0.0913
30594W        W46063  15.530  16.371   4.666 -0.1005 -0.1756 -0.0217
30595W        W46064   8.826  15.421   0.658 -0.0929  0.2376  0.2009
30596W        W46065  11.246   5.969   1.558 -0.3418  0.0786  0.3130
30597W        W46066   3.000  13.883  12.067 -0.3524  0.1930  0.0009
30598W        W46067  12.314   8.485   0.657 -0.3229  0.0392  0.3962
30599W        W46068   4.410   8.668  14.517  0.1370 -0.0004 -0.2530
30600W        W46069  13.246   1.334   3.706 -0.3025 -0.0486  0.1319
30601W        W46070   4.535   6.009  13.836  0.0879 -0.4331  0.0890
30602W        W46071   6.977  15.320   4.638 -0.0120 -0.2369 -0.0621
30603W        W46072   3.845   5.085   3.812  0.1870 -0.2658 -0.0343
30604W        W46073  13.017   9.178  13.183  0.1021 -0.0255  0.1074
30605W        W46074   8.626   8.951   0.163  0.2817 -0.2615 -0.1395
30606W        W46075   1.427  13.818  16.012  0.0424  0.2209  0.1167
30607W        W46076   7.212   4.671  15.642 -0.2645 -0.0957  0.0246
30608W        W46077  15.621   4.329   1.299 -0.2160 -0.0023 -0.0134
30609W        W46078   0.747   5.226  11.849 -0.2795  0.1862  0.0316
30610W        W46079   6.736   2.339   3.843 -0.4453 -0.0813 -0.1414
30611W        W46080  15.387  13.983   2.219 -0.2833 -0.1086 -0.1793
30612W        W46081  15.011  15.480  15.134  0.0238  0.0081  0.0163
30613W        W46082   4.878   1.475  13.821  0.0723 -0.1536  0.4299
30614W        W46083  13.369   9.193   0.712 -0.0562 -0.1756 -0.1992
30615W        W46084   1.144  12.295   1.105 -0.1405 -0.0183 -0.1908
30616W        W46085  17.701   0.536   4.733  0.0936 -0.2709  0.1335
30617W        W46086  16.108   8.641  12.911 -0.1457  0.1862 -0.2916
30618W        W46087   4.235   9.947  12.535  0.1369 -0.2032 -0.0759
30619W        W46088  11.224   0.667  16.744  0.0448  0.1232  0.3692
30620W        W46089   3.839   6.899  11.498 -0.0724 -0.2556 -0.0099
30621W        W46090   5.736   8.373   1.381 -0.3361 -0.0108 -0.1449
30622W        W46091   2.462  13.119  13.523 -0.0184 -0.0377  0.1789
30623W        W46092   3.349   8.546  11.177  0.4083  0.0147 -0.3024
30624W        W46093  15.894  10.675   1.405 -0.5118  0.1235 -0.0424
30625W        W46094  16.026   7.351  13.452 -0.0425  0.1770  0.1454
30626W        W46095   8.818  10.949  12.605 -0.0481 -0.0493  0.1548
30627W        W46096   8.662  11.700   0.584  0.1432 -0.1101 -0.2699
30628W        W46097   3.857   2.512  11.357  0.1533  0.0382 -0.3503
30629W        W46098   0.844   6.738  10.828  0.1430 -0.2423  0.0737
30630W        W46099  12.419  10.402   1.500 -0.3094  0.1216  0.1141
30631W        W46100   3.936   3.195  16.598 -0.0458  0.0296  0.3134
30632W        W46101   2.166   6.829   2.703  0.0677 -0.1950  0.0500
30633W        W46102   3.317   7.188  15.795 -0.1021  0.0200  0.2259
30634W        W46103  15.630   5.417   2.149  0.1121 -0.2011 -0.2358
30635W        W46104  16.053  11.380   2.139 -0.2212 -0.2119 -0.1885
30636W        W46105  13.885  13.477  13.592  0.0406 -0.1927  0.2028
30637W        W46106   7.434   5.347  13.076  0.1214 -0.0714  0.3319
30638W        W46107  13.494   0.440  15.519 -0.3125 -0.0968  0.0801
30639W        W46108  12.567   7.307   4.640  0.1222  0.1605 -0.0175
30640W        W46109   3.905   0.173  14.730 -0.2312  0.1150  0.0698
30641W        W46110   8.091   9.179  15.149  0.4055  0.0727 -0.1889
30642W        W46111   5.322   4.044  11.783  0.1159 -0.1673 -0.1131
30643W        W46112   5.750  10.667   0.376 -0.3048  0.2353  0.1896
30644W        W46113  11.369   6.993   3.472  0.0255  0.1177 -0.0915
30645W        W46114   5.401  10.932   0.104  0.1560 -0.0280 -0.1940
30646W        W46115  10.780  15.528  15.187  0.0039  0.0384 -0.1070
30647W        W46116   6.591  15.510  16.553 -0.0765  0.1304  0.4998
30648W        W46117   7.438  13.920  11.718 -0.1061  0.0760 -0.1858
30649W        W46118  17.199  15.330   5.082 -0.1828  0.1498  0.0839
30650W        W46119  15.406  15.100  11.375 -0.0222  0.1232 -0.0285
30651W        W46120  11.663   2.461   2.085  0.1786  0.3037  0.0895
30652W        W46121   9.480  10.686  12.563 -0.0997  0.0531  0.2516
30653W        W46122  14.422  14.555  10.632 -0.2432 -0.0402  0.2423
30654W        W46123   3.274  13.113   4.760  0.1461  0.3378  0.2695
30655W        W46124   5.263   8.252   1.631  0.1585 -0.1603  0.0505
30656W        W46125   1.620   1.626  12.849 -0.1015 -0.2974 -0.1232
30657W        W46126  17.765  15.244  14.685 -0.0664  0.2820  0.0304
30658W        W46127   1.687   3.979  13.332  0.2895  0.0176 -0.3347
30659W        W46128   8.170  14.872   1.720  0.0568 -0.0385  0.1920
30660W        W46129   5.800   6.503   1.494 -0.0627  0.3998  0.0175
30661W        W46130   7.258  13.594  14.840  0.1828  0.2413  0.0750
30662W        W46131   1.939   0.508   1.095 -0.1691  0.1467  0.0108
30663W        W46132   6.154   0.189  11.837 -0.0608 -0.2697 -0.0009
30664W        W46133  11.312   8.503   4.502 -0.0113  0.1316 -0.0610
30665W        W46134   0.989   2.091   3.698  0.1087 -0.1381  0.0589
30666W        W46135   5.951   6.496  12.612 -0.1213  0.3454 -0.0838
30667W        W46136  14.872   1.164   5.966 -0.2953  0.1032 -0.3940
30668W        W46137  11.079   5.963  13.693  0.1382  0.0811 -0.0985
30669W        W46138   0.597   3.627   4.512 -0.2492 -0.2145 -0.0636
30670W        W46139   0.921   5.078   2.779 -0.0785 -0.2482  0.2021
30671W        W46140  17.699  14.743  16.773  0.1473  0.0252  0.1705
30672W        W46141   9.962  16.916  11.968  0.0837 -0.1044 -0.1242
30673W        W46142  14.500  15.877  15.477 -0.1155 -0.2240 -0.4127
30674W        W46143  16.396   2.229   4.574  0.1210  0.2996 -0.0627
30675W        W46144   2.698  12.589   1.265 -0.0092  0.2714  0.4254
30676W        W46145  16.590   9.383   3.253  0.0276 -0.2150  0.1751
30677W        W46146   8.757   9.260   3.711 -0.1568  0.0228  0.0404
30678W        W46147   4.621   7.037  16.634 -0.5480  0.1356 -0.1121
30679W        W46148  15.442  11.963   0.868 -0.1854  0.2758 -0.3112
30680W        W46149  14.401   3.088  12.898 -0.0049  0.0070  0.2274
30681W        W46150   3.449  15.327  15.623 -0.2218  0.2399 -0.0124
30682W        W46151  13.816  10.447   5.505 -0.0468  0.0554 -0.0832
30683W        W46152  11.003   9.116   1.217  0.1946  0.1002  0.0531
30684W        W46153  15.832   0.326  14.867  0.1211  0.1870  0.0365
30685W        W46154   6.175   5.928   2.372  0.1743 -0.3238 -0.3410
30686W        W46155   0.138   3.834  14.200  0.0165  0.0550  0.0347
30687W        W46156  12.564  16.628  14.222 -0.3986 -0.0288  0.2266
30688W        W46157   7.374  10.771  11.699 -0.2312 -0.1374  0.2316
30689W        W46158   2.880  14.894   1.393  0.3410 -0.0742  0.0464
30690W        W46159   2.118   8.413  15.410  0.0568  0.2125  0.1964
30691W        W46160   2.147  13.083   2.894 -0.1192 -0.2263  0.1613
30692W        W46161  12.918  14.894   0.843 -0.1147 -0.3219 -0.1168
30693W        W46162   1.674   5.430  14.622  0.0320  0.0027 -0.0093
30694W        W46163  17.101   6.540   5.140  0.2346  0.1142 -0.0097
30695W        W46164   2.809   5.812  14.341 -0.2915 -0.0541  0.3332
30696W        W46165   6.447   4.407   4.582 -0.1073  0.0594  0.0242
30697W        W46166   3.543  14.289  16.134 -0.0382 -0.1094 -0.0304
30698W        W46167   2.982  11.672  14.907  0.1913 -0.1137 -0.2454
30699W        W46168  12.315   4.210  13.971  0.0316 -0.2364  0.1795
30700W        W46169   7.820   3.563   5.636 -0.1815 -0.1543 -0.3558
30701W        W46170   5.869   9.070  16.276 -0.0988  0.2874  0.0805
30702W        W46171  11.948  14.205   2.000  0.3300 -0.0009 -0.2450
30703W        W46172   4.390   2.154   1.353  0.2979  0.3535 -0.1432
30704W        W46173   1.978   2.004   2.171  0.2734 -0.0275 -0.2220
30705W        W46174  10.365  16.567  14.646 -0.2301  0.0211 -0.0780
30706W        W46175   1.035  13.508   0.663  0.2418  0.1994 -0.1057
30707W        W46176   9.080   3.854   0.924  0.3185 -0.0012  0.2298
30708W        W46177   9.447  16.457  14.066 -0.0763 -0.0273 -0.2010
30709W        W46178  15.639   6.138   3.758 -0.0070  0.1507  0.2020
30710W        W46179   0.328   8.360  14.130 -0.2506 -0.4206 -0.3240
30711W        W46180  10.022   8.229   4.084  0.0263 -0.0337  0.2562
30712W        W46181   8.621   9.701  13.261  0.0111 -0.1745  0.0730
30713W        W46182   7.087  12.896  13.032  0.2834  0.0249  0.1845
30714W        W46183  15.297   3.627   1.344 -0.3996 -0.1122 -0.0911
30715W        W46184   4.788  12.429   4.906 -0.2057 -0.2943  0.2162
30716W        W46185   9.953   9.569  12.799 -0.1058 -0.2911 -0.2173
30717W        W46186  17.171  12.203  13.035 -0.1214  0.0170 -0.2899
30718W        W46187   7.326  13.920   4.001 -0.1354 -0.1107 -0.1066
30719W        W46188   9.450   9.325  16.576  0.0632  0.1119 -0.0692
30720W        W46189   3.809   7.180  14.577  0.3081  0.1111 -0.3305
30721W        W46190  13.392   1.903   5.695 -0.0158 -0.2677  0.0186
30722W        W46191  14.410   6.732   0.929 -0.2916  0.0683  0.1565
30723W        W46192  16.723   4.951   1.444  0.2591 -0.0657  0.3984
30724W        W46193   6.498   3.273  11.554  0.0577 -0.1383 -0.1779
30725W        W46194   3.171  13.584  16.558 -0.1827  0.0524  0.0938
30726W        W46195   9.690  16.886  14.583 -0.1302 -0.0606 -0.0572
30727W        W46196  10.315   5.796   6.361 -0.1694  0.2735 -0.0913
30728W        W46197   5.441  14.445   2.618 -0.0683 -0.2184  0.0768
30729W        W46198   5.743   7.610  13.990 -0.2173 -0.0861 -0.2025
30730W        W46199   5.815  13.937  13.222 -0.3380  0.0986  0.1961
30731W        W46200  13.829  13.968   5.865 -0.0353  0.2155 -0.0658
30732W        W46201   1.086   9.124   0.762  0.1128 -0.2692  0.0137
30733W        W46202   8.119  10.693  11.832 -0.1326 -0.3670  0.1205
30734W        W46203  16.408  12.194   0.317 -0.3888  0.2349  0.1648
30735W        W46204  15.329   3.519   4.035 -0.0930  0.1070  0.0381
30736W        W46205   6.214  14.696   5.636  0.1197  0.1258  0.0059
30737W        W46206  10.694   7.644  13.187  0.0304 -0.0958  0.4545
30738W        W46207  15.079   1.632   2.983 -0.0298 -0.2364 -0.1196
30739W        W46208  15.544  14.910   5.990 -0.0340  0.1850 -0.0207
30740W        W46209  15.092   5.883   1.538  0.2445  0.1093  0.3753
30741W        W46210   4.750   4.559   1.832 -0.0481 -0.2198  0.2659
30742W        W46211  14.108   8.900  12.763 -0.2969  0.1395  0.0393
30743W        W46212   0.586  11.270  15.885 -0.0682 -0.1442  0.1889
30744W        W46213  13.979   1.034   3.447 -0.0218  0.0757 -0.0509
30745W        W46214  14.057  17.284   1.379 -0.0430  0.1785 -0.0554
30746W        W46215   1.032   7.693  12.564 -0.1058  0.2122  0.0237
30747W        W46216   0.057   9.269   5.148  0.0703  0.1666  0.2763
30748W        W46217   4.940   0.333   1.674  0.2841  0.0711  0.0738
30749W        W46218  16.161   8.057  15.323 -0.0268  0.2767  0.0345
30750W        W46219   6.749   7.534  12.752  0.1509 -0.0332  0.1281
30751W        W46220   8.391  15.592  14.831 -0.2005 -0.4153  0.2208
30752W        W46221   5.874  16.043   1.861  0.3497 -0.1605 -0.0327
30753W        W46222   7.856   1.830   4.725 -0.0215 -0.0823 -0.1476
30754W        W46223   6.669   5.325  16.507 -0.2175 -0.1379  0.2064
30755W        W46224  11.516  10.224   4.539  0.1542  0.0458  0.1431
30756W        W46225  13.116  10.147   4.560  0.1466  0.2032  0.1685
30757W        W46226   9.941   4.041  14.258 -0.1557 -0.1753  0.0806
30758W        W46227   1.297   4.104   0.878 -0.2152  0.1149  0.2247
30759W        W46228   8.763  12.920  13.890  0.1535 -0.0689  0.1329
30760W        W46229  16.150   9.183  12.886  0.5231  0.2483  0.0457
30761W        W46230   1.301  10.069   3.091 -0.3509 -0.1549 -0.1532
30762W        W46231  14.366  16.242   2.213 -0.1249 -0.1751 -0.3415
30763W        W46232   7.268   4.721   6.092  0.0795 -0.0750  0.2796
30764W        W46233  15.859  16.797   0.691  0.0551  0.3326 -0.1744
30765W        W46234   0.718  11.311  13.221  0.0470  0.4521 -0.2664
30766W        W46235   9.650   1.659   0.804 -0.0495 -0.1558  0.4617
30767W        W46236   3.654  17.195   2.603  0.0224 -0.4438 -0.3955
30768W        W46237  10.377   2.797   1.684 -0.1707  0.2550  0.0820
30769W        W46238  13.239  12.696  15.494  0.1175  0.1158 -0.2494
30770W        W46239   5.396  16.168   0.579  0.1475 -0.1392 -0.1210
30771W        W46240   1.122   1.498  12.890 -0.0587  0.0560 -0.2031
30772W        W46241  13.106  16.653  16.620  0.2087  0.0379 -0.0255
30773W        W46242   7.488   9.115   5.394  0.1955 -0.0177 -0.0390
30774W        W46243  15.296   3.408   1.855  0.0646  0.1121 -0.2579
30775W        W46244  14.417   7.358   5.526 -0.0654  0.1789  0.1338
30776W        W46245   8.610   5.120   4.907 -0.0388 -0.1268  0.0177
30777W        W46246   2.154  17.482   5.579  0.0571  0.2377  0.2330
30778W        W46247  16.755   0.995  13.140  0.0336 -0.3069  0.1252
30779W        W46248  16.120  13.890  16.567  0.2037 -0.1349 -0.0152
30780W        W46249   3.255   2.921  15.184  0.0646 -0.0997 -0.1490
30781W        W46250  13.434   2.607   3.237  0.1059  0.0574  0.2534
30782W        W46251  13.253  14.589  14.473  0.0897  0.2264 -0.1929
30783W        W46252  11.102   8.206   5.531 -0.2342 -0.0922  0.1221
30784W        W46253   8.629  13.379   0.804 -0.3316 -0.1713 -0.0122
30785W        W46254   6.503  17.645   3.908  0.1149 -0.3521  0.2438
30786W        W46255   3.300   1.686  15.656  0.2590  0.3396  0.0811
30787W        W46256   8.581  14.138  12.146  0.1056  0.2055 -0.2066
30788W        W46257   0.909  16.222  11.217 -0.1537 -0.1022  0.3799
30789W        W46258  13.483   0.855   2.011 -0.0595  0.0004  0.3200
30790W        W46259   1.510  13.340  16.051 -0.3541  0.1362  0.0831
30791W        W46260  14.475   2.113   2.461 -0.0447 -0.0305 -0.1141
30792W        W46261  13.471   9.730  13.244  0.0503  0.1226  0.1625
30793W        W46262   3.330  17.468  13.367  0.3535 -0.0578 -0.2132
30794W        W46263   0.538  11.629   5.053  0.0301  0.1440 -0.3641
30795W        W46264   9.545  12.125   0.592  0.3563 -0.2037 -0.3790
30796W        W46265   6.546  16.468  15.501  0.0013  0.1256 -0.0500
30797W        W46266   3.816   5.354   1.248  0.0369  0.1960  0.1109
30798W        W46267   0.608  15.363   3.086  0.0026  0.0678 -0.1147
30799W        W46268   6.621  10.141   1.484  0.1763  0.0216  0.4138
30800W        W46269   5.979   6.676  14.097  0.1064 -0.0830 -0.0294
30801W        W46270  13.613   0.856  12.998  0.2491  0.0032  0.0548
30802W        W46271   1.670  16.371   5.424 -0.3981  0.0766 -0.1071
30803W        W46272   4.442  14.779   2.318 -0.0865  0.1396  0.4836
30804W        W46273  11.913  15.429  15.819 -0.0475 -0.1033  0.1886
30805W        W46274   4.925  11.765   1.632  0.1502 -0.2145 -0.0419
30806W        W46275   0.820  10.371  13.462 -0.3803  0.1945  0.0027
30807W        W46276  14.020  15.142   4.073  0.3478 -0.1565 -0.2714
30808W        W46277   0.434  13.331   4.347 -0.0747 -0.1006 -0.2855
30809W        W46278   8.318   8.552   2.374  0.1224  0.0407 -0.1283
30810W        W46279   1.925   0.401   4.760 -0.4290 -0.1874  0.0119
30811W        W46280   3.815   4.639   0.837 -0.2092  0.0377  0.1863
30812W        W46281   1.498  13.978  11.051 -0.2015 -0.2837  0.1807
30813W        W46282  13.596  13.108   3.046  0.0362  0.3670 -0.0749
30814W        W46283   0.520  11.138  14.420  0.2592  0.0956 -0.0064
30815W        W46284  12.488  13.894  15.160 -0.0296  0.2126  0.0025
30816W        W46285   3.971   5.055   3.017 -0.3117 -0.0088 -0.2253
30817W        W46286  11.051   9.845  14.533  0.1863 -0.6629  0.1704
30818W        W46287   8.382  11.160   2.909  0.0111 -0.1317  0.0560
30819W        W46288  14.574   8.768  11.827 -0.0129 -0.0017  0.1094
30820W        W46289  12.990   8.252  15.891 -0.0011  0.1114 -0.0926
30821W        W46290  14.569  14.240  14.600  0.0728  0.4471  0.2218
30822W        W46291   0.342  13.296  13.257 -0.1217  0.1275 -0.1128
30823W        W46292   2.788  13.558  12.801 -0.1135  0.0010 -0.3168
30824W        W46293   0.030   8.626  16.460  0.1143 -0.0649 -0.0177
30825W        W46294   7.421   2.268  12.098 -0.0115  0.0598  0.0372
30826W        W46295  11.870   7.534   4.002 -0.2075 -0.1135  0.1313
30827W        W46296   4.876   2.563   1.147  0.0219  0.4053  0.1279
30828W        W46297  14.012   2.764  11.917 -0.0744  0.1187  0.1499
30829W        W46298   8.131   2.558   4.799  0.1081  0.2054  0.0976
30830W        W46299  11.214   4.081   0.728  0.1554 -0.2416 -0.1431
30831W        W46300  12.215  10.920   5.386  0.1178  0.2850 -0.2475
30832W        W46301  16.401   7.667  16.005 -0.0163 -0.1587 -0.2030
30833W        W46302  12.772  16.040   1.548 -0.2965 -0.0048 -0.0224
30834W        W46303  16.652   1.106   4.430 -0.0614 -0.2858 -0.0111
30835W        W46304  14.014  12.924   1.279  0.2145  0.0973  0.2783
30836W        W46305   2.502  12.577  15.504  0.3270 -0.2574 -0.0145
30837W        W46306  11.155   8.184   4.147  0.2249 -0.0122  0.0545
30838W        W46307   0.884  14.146  16.801  0.2932 -0.1112  0.0192
30839W        W46308  15.832   5.168   1.742  0.0363  0.1093  0.0173
30840W        W46309   2.924   9.458  11.066  0.2384 -0.1289  0.0597
30841W        W46310   3.988  11.471  14.740  0.0500  0.1614 -0.2192
30842W        W46311   9.734   1.643  12.366 -0.1496  0.0513 -0.1159
30843W        W46312   1.370  14.122   0.139  0.2121 -0.2283 -0.1636
30844W        W46313   6.775  15.137   0.447 -0.0286  0.0042  0.0394
30845W        W46314   2.276   5.759  12.680 -0.1215  0.1659  0.1058
30846W        W46315   0.372   3.359  16.708  0.0119 -0.0286  0.1358
30847W        W46316  13.533   0.343   0.553  0.1474  0.0440 -0.3591
30848W        W46317  16.670   6.310  16.597 -0.4474  0.2991  0.0184
30849W        W46318   7.600  14.460   5.335 -0.1524  0.4070  0.0485
30850W        W46319  16.771  10.617  14.597  0.1454 -0.0292  0.0585
30851W        W46320   1.719  12.646  12.745 -0.1589  0.1710 -0.2700
30852W        W46321  17.041  15.245   6.035  0.0540 -0.4909  0.2845
30853W        W46322   2.531   5.836  15.773 -0.3791  0.2286  0.0451
30854W        W46323   2.716   9.387  15.183 -0.1217 -0.0339  0.0491
30855W        W46324   1.150  11.210   3.842 -0.0756  0.2383  0.1225
30856W        W46325  11.942   9.912  12.711  0.1955  0.3877  0.0519
30857W        W46326   5.583   3.329   2.883 -0.2326 -0.0938  0.1973
30858W        W46327   6.491   5.493   3.229 -0.3826  0.0852  0.0352
30859W        W46328  15.762  11.170  15.529  0.0923 -0.2640 -0.1591
30860W        W46329   0.678   5.620  15.335 -0.0597  0.1790  0.1267
30861W        W46330  15.656   4.851   1.368  0.2085 -0.0219 -0.2608
30862W        W46331  11.482   9.623  15.555  0.0709  0.0701  0.0139
30863W        W46332   6.648  16.201  12.007 -0.3397  0.0958 -0.2477
30864W        W46333   1.787  16.790   1.229 -0.4626 -0.2331 -0.4297
30865W        W46334   6.272  12.132  15.655 -0.4145 -0.0102 -0.1741
30866W        W46335  14.257  13.604  10.838 -0.4271  0.0250  0.1790
30867W        W46336  16.372   2.010   4.139  0.0161 -0.0898 -0.1521
30868W        W46337  17.277  13.470   3.731 -0.0999 -0.0321  0.4588
30869W        W46338  12.897   8.976   0.768 -0.1493 -0.0768 -0.1659
30870W        W46339   2.863   0.139   4.827 -0.2825 -0.4969 -0.0083
30871W        W46340   5.233   8.670  12.973  0.0945 -0.1444 -0.0631
30872W        W46341  17.322   2.424  15.777 -0.1212 -0.1903  0.0258
30873W        W46342   2.080   3.344  10.545  0.2753 -0.0723  0.3459
30874W        W46343   2.650   0.814  11.323 -0.0495  0.0069 -0.2475
30875W        W46344  10.565  16.342   4.320  0.0246 -0.1755  0.0047
30876W        W46345  11.997   9.165  11.317 -0.0664  0.0199 -0.1557
30877W        W46346   7.440  17.343   0.691 -0.0298  0.1851 -0.2045
30878W        W46347   0.796  15.936   0.118  0.1760 -0.3007  0.1384
30879W        W46348  16.296   2.108   0.505 -0.0987  0.1120 -0.0638
30880W        W46349   6.332   6.182   3.936 -0.1103 -0.2786 -0.0510
30881W        W46350   6.460  13.217   0.172 -0.0430 -0.4009  0.1239
30882W        W46351   3.120  17.494  16.504 -0.3769  0.2076  0.2129
30883W        W46352  14.452   6.158   3.810  0.0407 -0.1436  0.0884
30884W        W46353   2.575   3.936  16.369 -0.0460 -0.3351 -0.0513
30885W        W46354   4.877   4.323   4.585  0.2538  0.0595  0.0865
30886W        W46355  12.958   4.810   3.432  0.0333  0.0783  0.0818
30887W        W46356  13.772   3.144   4.133 -0.0576  0.1317 -0.2300
30888W        W46357   3.380  15.033  16.699 -0.3947  0.1827  0.0714
30889W        W46358  11.497   2.526   1.118 -0.1460 -0.0696 -0.3281
30890W        W46359  11.401   9.043  16.255 -0.1221 -0.0202  0.2027
30891W        W46360   3.692  15.037  13.294  0.2321 -0.3078  0.0526
30892W        W46361  17.583  13.967  12.770  0.0591 -0.1363 -0.0853
30893W        W46362   3.436  12.789  14.047  0.3101  0.0832  0.1250
30894W        W46363   9.062   1.119   1.096 -0.2459 -0.0624 -0.2032
30895W        W46364  11.448  10.251   3.958  0.2438  0.2476 -0.0345
30896W        W46365   7.818   7.812  13.671  0.0941  0.1371  0.0148
30897W        W46366   6.364   5.697  14.703 -0.0266 -0.1879  0.1642
30898W        W46367   6.700   7.322   0.524  0.0042  0.0801 -0.1718
30899W        W46368  10.220   0.807   3.468 -0.2564 -0.0045 -0.0588
30900W        W46369  14.249  15.359  12.319  0.0383  0.3218  0.1095
30901W        W46370  15.009  13.944   0.421 -0.2344  0.1298 -0.0001
30902W        W46371  14.419  11.444  15.924 -0.3284 -0.0618 -0.0588
30903W        W46372  14.991  11.116  13.756 -0.1032 -0.2209 -0.0742
30904W        W46373   9.239   7.644  12.499  0.3933 -0.0733 -0.0492
30905W        W46374  17.656   9.576   1.654 -0.0792 -0.1490 -0.0515
30906W        W46375   9.013   4.438   1.061  0.0469 -0.2406  0.1222
30907W        W46376   2.245  17.293   3.010  0.1604  0.0210 -0.3895
30908W        W46377   0.707   1.845   2.556 -0.0357 -0.0007 -0.2616
30909W        W46378   0.560   9.004  15.227  0.2803 -0.1235  0.2428
30910W        W46379   7.964   5.781   4.625 -0.1195 -0.0766 -0.0127
30911W        W46380  16.395   7.228   2.433 -0.2557 -0.0339  0.0653
30912W        W46381   6.330  14.067   5.601 -0.1453 -0.0234  0.1042
30913W        W46382   0.062  17.467   1.208  0.3863  0.3580  0.2441
30914W        W46383   5.070  11.418  14.304  0.0277  0.0343  0.1023
30915W        W46384  11.861  15.889   3.631  0.1122  0.2256 -0.1124
30916W        W46385  14.170  12.167   0.595  0.1083  0.0061 -0.2882
30917W        W46386   1.798  16.195  12.238 -0.2076 -0.0026  0.0191
30918W        W46387  10.897  11.219  11.568 -0.0073 -0.2556  0.1787
30919W        W46388  10.081  11.789  12.265 -0.0670 -0.1197 -0.1737
30920W        W46389  17.031  15.657  15.583  0.3660 -0.0662  0.0606
30921W        W46390   6.312   3.809  15.574  0.0392  0.1643  0.1298
30922W        W46391   5.701   0.682  13.070 -0.0394  0.4568 -0.2848
30923W        W46392   4.003  13.280  13.280  0.3701 -0.0580  0.0586
30924W        W46393  13.091   8.006   3.616  0.3025  0.2405  0.0331
30925W        W46394  10.352   5.764  14.428  0.0385  0.0045 -0.0080
30926W        W46395   7.292  10.006   0.018 -0.1494  0.0521 -0.1939
30927W        W46396   9.772  10.669  13.735  0.0002  0.1277  0.1655
30928W        W46397  10.906  13.994   2.811 -0.2545 -0.2130  0.2264
30929W        W46398   3.488  17.055   5.428  0.0422  0.1096 -0.0167
30930W        W46399   8.899   4.320  15.145 -0.2286  0.0240  0.0975
30931W        W46400   4.498  16.196   1.827 -0.2049 -0.2363 -0.1237
30932W        W46401   2.716  12.161  14.559  0.0024 -0.0991  0.3051
30933W        W46402   3.732   1.644   3.054 -0.0629  0.1704  0.0975
30934W        W46403  15.005   8.933  16.021  0.0992  0.3025 -0.1489
30935W        W46404   0.129   1.078   2.862  0.0601  0.2014 -0.0385
30936W        W46405  10.618   2.975   3.234  0.1359 -0.0511 -0.0446
30937W        W46406   8.090   1.903  15.072  0.2189 -0.0456  0.0783
30938W        W46407  15.460  15.744  15.012  0.0554 -0.2802 -0.0206
30939W        W46408  11.180   1.861   2.448  0.2380  0.0417 -0.1107
30940W        W46409  16.021  12.756  12.289  0.0900 -0.0440  0.1317
30941W        W46410   1.014  10.005  13.044 -0.1404 -0.0675  0.4274
30942W        W46411  15.341   7.716   5.800  0.0017 -0.0630 -0.1042
30943W        W46412  13.931   8.296   4.028 -0.1318 -0.0393  0.3657
30944W        W46413  17.155  10.617   5.069  0.1160  0.0349  0.0992
30945W        W46414   1.644   3.019  14.599  0.1329  0.1585  0.1411
30946W        W46415   9.633  14.231   4.226  0.1355 -0.1034  0.3231
30947W        W46416   4.761  10.204   5.040  0.0225  0.1552  0.0481
30948W        W46417   0.246   7.125  12.353  0.0422  0.0665  0.0221
30949W        W46418   4.669  16.540   1.265  0.0064 -0.0591 -0.1187
30950W        W46419  16.872  13.604   4.589  0.0668 -0.0184 -0.3104
30951W        W46420  17.575  14.960  11.975  0.0978  0.1656 -0.0769
30952W        W46421  11.290   2.486  14.033  0.0006 -0.0772 -0.0644
30953W        W46422   1.371   5.529   3.509 -0.1696  0.0036  0.0678
30954W        W46423   3.377   0.065   1.388 -0.1064  0.2627  0.5319
30955W        W46424  10.626   3.985  15.272  0.0321 -0.0038 -0.1727
30956W        W46425   8.600   5.740  11.847  0.0409  0.0476  0.0154
30957W        W46426   1.230   7.295   0.115  0.2986  0.0176  0.3823
30958W        W46427   1.420   4.770  12.844 -0.1477 -0.0029  0.1078
30959W        W46428   3.388  11.781   0.272  0.1426 -0.0607 -0.2671
30960W        W46429  17.034   7.527  11.609  0.1906 -0.3705 -0.1769
30961W        W46430   0.346  17.474   2.110  0.1422 -0.0593 -0.3173
30962W        W46431   6.900   7.559  14.685 -0.0480  0.0415  0.2115
30963W        W46432  11.869   8.095   1.938  0.0994 -0.1611 -0.0145
30964W        W46433  11.312  12.905   2.784  0.0829  0.1164 -0.1974
30965W        W46434  12.956   5.205   1.532  0.2417  0.2384 -0.1428
30966W        W46435  13.876   0.430  16.612  0.2545  0.0551 -0.1738
30967W        W46436   7.469  13.607   5.785  0.0575  0.1983 -0.0635
30968W        W46437   1.785   9.901  13.389  0.0042 -0.0302 -0.2066
30969W        W46438   6.901   4.258   1.811  0.0080 -0.0048  0.0701
30970W        W46439   3.023   0.827  15.029 -0.3190 -0.0615  0.0444
30971W        W46440   7.015   0.238  16.812  0.0793 -0.0969  0.3133
30972W        W46441  12.796   8.845  13.514 -0.2082 -0.3227  0.0567
30973W        W46442   3.515   3.224  15.693  0.2368  0.2144 -0.1710
30974W        W46443   2.763   2.188  13.376  0.0136  0.2638  0.1576
30975W        W46444  10.362   2.270   4.626 -0.1067 -0.2083 -0.3774
30976W        W46445   5.260   9.117  15.560 -0.1880 -0.2302  0.0124
30977W        W46446  15.528   0.448   0.099 -0.0915 -0.0098 -0.0355
30978W        W46447   7.613  12.505   6.449  0.1379 -0.2996  0.0657
30979W        W46448  16.247   7.525  15.017 -0.0064  0.0040  0.0138
30980W        W46449   1.075  16.897   2.016 -0.1218 -0.2795 -0.1603
30981W        W46450  17.104   6.137  13.749 -0.1092 -0.0647  0.2151
30982W        W46451   5.771  13.848  14.791 -0.0164 -0.1575 -0.2508
30983W        W46452   5.100   2.276  10.987 -0.0002  0.2394  0.1098
30984W        W46453   2.787   0.185   3.734 -0.2408 -0.1244 -0.1583
30985W        W46454   2.331   2.240  15.168  0.2064 -0.3204 -0.5953
30986W        W46455   7.959   5.874   1.559 -0.3455  0.0064  0.3152
30987W        W46456  17.185  17.043   4.498  0.0319 -0.2839 -0.2685
30988W        W46457   0.938  15.125  12.788  0.2770 -0.1271  0.0743
30989W        W46458   4.898   0.551   4.671  0.0910 -0.1737 -0.0091
30990W        W46459   3.576   7.936  16.473 -0.2456 -0.0219  0.0904
30991W        W46460   5.747   1.466   0.610  0.2725  0.2573 -0.1175
30992W        W46461   8.509   5.370   2.173  0.3136 -0.0335 -0.0359
30993W        W46462   5.582  10.030   3.096  0.2050 -0.0438  0.0332
30994W        W46463  15.556   2.170  15.455 -0.1862  0.0913  0.2766
30995W        W46464   6.022   8.766   2.546 -0.0693 -0.1192  0.3861
30996W        W46465   3.817  12.431  15.356 -0.2583  0.1703  0.1762
30997W        W46466   2.648   5.576   3.083  0.2239  0.0874  0.0527
30998W        W46467  12.864   8.052   3.183 -0.0895  0.2615 -0.0406
30999W        W46468   3.950   0.408  13.360  0.0427 -0.0813 -0.2289
31000W        W46469   5.707  10.867  12.778  0.3019  0.1196 -0.0187
31001W        W46470   5.781  16.067   4.845  0.1140 -0.1695  0.1340
31002W        W46471  10.009   3.770  11.659  0.0129  0.1363 -0.0999
31003W        W46472   8.430   9.403   2.418 -0.2330  0.0683  0.0699
31004W        W46473  10.441   7.169   3.487  0.0434  0.1249  0.0527
31005W        W46474   0.275  14.609   0.743 -0.2620  0.1316 -0.1407
31006W        W46475  17.183   9.557   3.410 -0.1235 -0.1598 -0.1066
31007W        W46476  12.033  14.347   3.426  0.1582 -0.0935  0.4970
31008W        W46477   7.917   8.058  13.208  0.3083  0.2116 -0.1327
31009W        W46478   9.405   2.217   0.684 -0.4441  0.0690  0.1779
31010W        W46479  13.655   3.773  15.842 -0.0915 -0.0751  0.0260
31011W        W46480  14.817  12.281  12.696  0.0766 -0.2510 -0.1390
31012W        W46481   4.467  13.469  13.777  0.1650  0.3298 -0.0358
31013W        W46482  13.939  10.180   4.878 -0.1383 -0.1295 -0.4296
31014W        W46483   9.735   1.426   2.353  0.0079  0.2617 -0.1763
31015W        W46484  15.083  15.923  14.608  0.2925  0.1983  0.2040
31016W        W46485  10.716   1.398   4.398 -0.0535  0.0777 -0.0987
31017W        W46486   9.244   2.135  12.411  0.3224  0.0517  0.0285
31018W        W46487   3.634  15.635   4.065 -0.0878 -0.2224 -0.0223
31019W        W46488  12.199   7.783   1.762  0.3106 -0.2503  0.0520
31020W        W46489  12.144   4.286   3.307  0.2372  0.0567  0.4744
31021W        W46490   2.026   2.279  12.500 -0.0259 -0.2661  0.3155
31022W        W46491  17.780   1.408   3.856 -0.1224 -0.0958 -0.1095
31023W        W46492   5.601   7.462   2.736 -0.1617  0.0336 -0.1654
31024W        W46493   4.867   6.836  11.792 -0.1878  0.2213 -0.3859
31025W        W46494   5.045  12.296   1.822  0.3211 -0.1470  0.0571
31026W        W46495  17.318   8.778   3.125  0.1789 -0.0778 -0.2000
31027W        W46496   9.865  10.064   1.591 -0.4510 -0.1527  0.1117
31028W        W46497   9.645  10.222  14.069  0.0557  0.1029  0.0447
31029W        W46498  13.790  11.788  16.727 -0.1038  0.2318  0.1015
31030W        W46499  14.008   8.464   3.045 -0.1268  0.2536 -0.0371
31031W        W46500  11.345   2.851   0.262 -0.0775 -0.0941  0.3375
31032W        W46501   0.230   9.611  14.562  0.1359 -0.0539  0.1695
31033W        W46502   1.104   1.396   1.504 -0.1217  0.1317 -0.0331
31034W        W46503   9.152  17.482  15.672  0.0344  0.3615  0.2451
31035W        W46504  13.631   3.342   5.594  0.1580  0.1052  0.0402
31036W        W46505   8.175  15.039  16.155  0.0805 -0.1059 -0.0310
31037W        W46506   4.969  10.521  12.817  0.3524  0.1218  0.1913
31038W        W46507   1.522   5.142  15.516  0.4555 -0.0568 -0.1321
31039W        W46508   9.883   1.558  11.847  0.6273 -0.0798 -0.0624
31040W        W46509   8.103   6.128   0.851 -0.1946 -0.0882  0.1534
31041W        W46510   5.364   7.255   0.821 -0.1106  0.2343  0.2107
31042W        W46511   3.937  17.054  11.207  0.1331 -0.2991  0.0396
31043W        W46512  15.203   4.276  14.870 -0.2646 -0.1504  0.0693
31044W        W46513   6.033  11.500  16.526 -0.1566  0.0800 -0.1708
31045W        W46514  15.932  17.149   2.969 -0.3718 -0.2983  0.1312
31046W        W46515   0.546  14.972  13.075  0.1408 -0.1275  0.1377
31047W        W46516   0.351   9.855   2.893 -0.0666  0.0363 -0.0973
31048W        W46517   6.153   4.229   0.909 -0.2385 -0.0096  0.0743
31049W        W46518  17.317   6.163  14.231  0.2048 -0.1322  0.1385
31050W        W46519   5.549   2.992   2.483 -0.1272  0.2897  0.0474
31051W        W46520  13.151   8.652   4.324  0.0898 -0.0385 -0.0224
31052W        W46521   1.100  15.545  15.537  0.1720 -0.1821  0.1894
31053W        W46522   6.849  12.352   3.808  0.1149 -0.2376  0.0647
31054W        W46523   1.832   0.373  14.542 -0.1032  0.0057  0.3065
31055W        W46524   0.375  17.022  11.379  0.1460  0.1446  0.1500
31056W        W46525  11.755   6.352   3.666 -0.0473  0.0243 -0.0678
31057W        W46526   0.779  14.272  14.000 -0.1321  0.0926 -0.0412
31058W        W46527   3.789   7.338   0.183  0.0529  0.0928 -0.1268
31059W        W46528  13.403   5.723   3.611  0.4310  0.1468  0.0831
31060W        W46529   1.989   0.446  16.567  0.2469 -0.0111  0.2070
31061W        W46530   8.570   7.138   3.347 -0.2185  0.1859  0.1115
31062W        W46531   1.430  15.973  13.149 -0.1149 -0.1574 -0.1958
31063W        W46532  15.986   5.532   0.060  0.1470 -0.2531  0.0902
31064W        W46533   1.800  17.593   5.146  0.1180  0.2787  0.0186
31065W        W46534   3.227  12.692  12.616  0.2029  0.0427 -0.1939
31066W        W46535   0.503   5.242  14.763 -0.2424  0.0678 -0.1563
31067W        W46536  15.253  14.633  13.082  0.2226 -0.0524 -0.1136
31068W        W46537  12.662   2.695  14.908 -0.0112  0.2422  0.1479
31069W        W46538   8.510  16.805  11.869 -0.1373  0.0053  0.1596
31070W        W46539   3.012  11.171  11.279  0.3402 -0.0587  0.1856
31071W        W46540   9.508   4.702  16.264 -0.0578 -0.2429 -0.1260
31072W        W46541   5.307   2.050  15.085  0.2087  0.0352 -0.0710
31073W        W46542   3.916   8.455   2.288 -0.3022 -0.1106 -0.1988
31074W        W46543   0.354  10.150   0.224  0.1964  0.0119 -0.0012
31075W        W46544   6.440   6.280   2.604 -0.1384 -0.4363  0.1015
31076W        W46545   1.042  10.509  16.482  0.1517  0.0240  0.0759
31077W        W46546   6.096  16.827   3.222  0.1633  0.0404 -0.0315
31078W        W46547  17.348   6.438   1.586  0.0468 -0.0472 -0.0951
31079W        W46548  15.427   8.126   3.094  0.0643  0.2656  0.0663
31080W        W46549   9.837   3.415   3.132 -0.0468  0.4469  0.1302
31081W        W46550   8.805   0.366   1.970  0.0916  0.2088  0.1155
31082W        W46551   2.336  13.640   5.655  0.0824 -0.0643  0.1673
31083W        W46552  15.218  11.670  15.964 -0.0767  0.0313  0.0962
31084W        W46553   8.837  15.123   2.438 -0.1790  0.1463  0.3598
31085W        W46554  13.986   0.966  11.690  0.1842 -0.4097  0.1030
31086W        W46555   6.617  11.872   4.568 -0.3840  0.1854  0.0217
31087W        W46556  15.969   4.165   0.907 -0.3072  0.2151 -0.1456
31088W        W46557   4.163   1.367   5.603 -0.2522  0.1621 -0.2217
31089W        W46558  11.518   7.922  11.250 -0.1676 -0.0670  0.0364
31090W        W46559  12.210  13.400   3.235  0.0018 -0.1012  0.0488
31091W        W46560   5.671   3.064   0.149  0.0137 -0.0439 -0.1625
31092W        W46561  15.505  11.169   0.783 -0.0996 -0.1302 -0.1748
31093W        W46562  14.503   0.725   3.663  0.1814 -0.0677  0.1242
31094W        W46563   1.639   7.689  13.275  0.2366 -0.1868 -0.0241
31095W        W46564   1.613   6.193   2.470  0.0691 -0.1331  0.1778
31096W        W46565  13.606   1.263   0.682 -0.2703  0.1615  0.1671
31097W        W46566  15.065   0.551  14.393  0.2038  0.1621 -0.0819
31098W        W46567   3.421  16.708   0.601 -0.2834 -0.2818  0.2252
31099W        W46568  10.508   3.442  13.447 -0.1768 -0.0487  0.0182
31100W        W46569   2.140   6.728  13.230  0.1487 -0.0975 -0.0711
31101W        W46570   0.527  11.201   5.418 -0.1169 -0.2033  0.5002
31102W        W46571  15.941  10.071  15.571 -0.0478  0.1058 -0.0531
31103W        W46572   7.238   3.208  13.000  0.1306 -0.2228  0.0120
31104W        W46573   2.352  16.110  16.220 -0.2868 -0.1288 -0.1103
31105W        W46574  16.249   0.791  15.898  0.1791  0.1090 -0.2007
31106W        W46575   4.685   7.325   2.140 -0.0668  0.1265 -0.0588
31107W        W46576   3.419  15.641   3.249  0.0223  0.0809 -0.1816
31108W        W46577   4.465  14.922  16.482 -0.2146  0.2380 -0.0230
31109W        W46578   1.407   2.600  11.330  0.0871  0.0189  0.2493
31110W        W46579   5.578  11.394  14.197 -0.1249 -0.2081 -0.3204
31111W        W46580  15.077  16.831   4.172  0.1846  0.0348 -0.1288
31112W        W46581  13.258   6.052  12.529  0.0853  0.0330 -0.1457
31113W        W46582  13.439  15.639  14.812 -0.1335 -0.2692 -0.1080
31114W        W46583  11.179   6.714  15.985  0.2356  0.0347 -0.1496
31115W        W46584   2.384   8.683   0.942  0.0644 -0.0737  0.1396
31116W        W46585  16.428   0.181   0.671 -0.1761  0.2745  0.3619
31117W        W46586   1.454   0.729  12.253 -0.0790 -0.1225  0.0980
31118W        W46587  12.726  14.125  12.152 -0.0613  0.1976 -0.1045
31119W        W46588  11.779  16.108  12.261 -0.1391  0.1829 -0.2043
31120W        W46589   9.606   2.767   1.529  0.2772  0.0387 -0.0801
31121W        W46590  12.804  14.473   4.121 -0.1306 -0.0439  0.0019
31122W        W46591   0.657  11.538   2.447  0.0587  0.1502 -0.2113
31123W        W46592   2.496   3.148   5.858 -0.0434 -0.0617 -0.0280
31124W        W46593  16.994   2.932   1.618  0.0648  0.1383 -0.0307
31125W        W46594  13.774  13.318  12.038 -0.3663  0.0052  0.2212
31126W        W46595  13.729   9.786  14.740  0.0835  0.2115 -0.1321
31127W        W46596   1.616   6.784   4.322 -0.3638  0.2022 -0.1557
31128W        W46597  17.604  16.515   5.756  0.3349  0.3631  0.0015
31129W        W46598   7.909   6.051  11.747 -0.2106  0.1366  0.0177
31130W        W46599   1.865   5.770   3.347  0.1275 -0.1944  0.1335
31131W        W46600   7.430  15.406  16.385 -0.0591  0.2342 -0.1049
31132W        W46601  12.957   1.911   6.085 -0.1683 -0.3458 -0.2016
31133W        W46602   7.477   5.789  15.046 -0.1186  0.1517 -0.0502
31134W        W46603   1.574   6.232   0.977  0.0016 -0.0516 -0.4959
31135W        W46604   3.996   9.800  10.931  0.1368 -0.0870 -0.1176
31136W        W46605  15.835  17.123  14.248  0.1011 -0.2544 -0.1840
31137W        W46606  16.654  14.716   0.236 -0.0704  0.0769 -0.2306
31138W        W46607   2.493   2.851   4.630 -0.0858 -0.0486 -0.1029
31139W        W46608   7.820   2.199  14.701 -0.0502 -0.4477  0.1361
31140W        W46609   8.793   6.885   3.774  0.0777 -0.0344 -0.0974
31141W        W46610   0.872  14.443  12.167 -0.1158 -0.0762  0.0178
31142W        W46611  16.324   1.657   3.788 -0.0464 -0.1936  0.0804
31143W        W46612  12.595  15.193   6.035  0.0712  0.2544 -0.2595
31144W        W46613   2.420  10.172   1.936  0.1578  0.0890 -0.1637
31145W        W46614   2.375   0.585   2.891  0.3586  0.1903 -0.0398
31146W        W46615  14.219   5.338   3.315  0.0334  0.0960  0.0600
31147W        W46616  15.795  15.439  16.576  0.0792 -0.2985  0.0521
31148W        W46617   1.404   5.336   0.114 -0.0773 -0.3303  0.0342
31149W        W46618  11.309  12.626  15.040  0.0936  0.3546  0.0698
31150W        W46619  10.109   3.758   3.763  0.2231  0.4839 -0.0965
31151W        W46620   4.397   9.816   5.195 -0.2338  0.1751 -0.1075
31152W        W46621   2.575  10.946  13.725 -0.1150  0.0581 -0.1249
31153W        W46622   6.260   8.988   0.983 -0.0701 -0.1838 -0.0963
31154W        W46623  11.406  15.975   4.813  0.0185 -0.0623  0.0765
31155W        W46624   9.282   9.178  14.791  0.3380 -0.0620  0.1666
31156W        W46625  13.692  16.343   5.396 -0.0507 -0.1793 -0.2980
31157W        W46626  14.701  15.218   3.307 -0.0417 -0.0573 -0.0562
31158W        W46627   5.019  13.942   4.319  0.0395 -0.0414 -0.0388
31159W        W46628  14.170  10.529   6.407  0.0048 -0.0463  0.0042
31160W        W46629   3.371   8.969  11.918 -0.0878 -0.1510 -0.0280
31161W        W46630   8.940   3.667  15.181  0.1020 -0.0844 -0.1124
31162W        W46631  16.924   4.462  15.232 -0.0156 -0.0000 -0.3227
31163W        W46632   9.523   1.084  13.258 -0.0109 -0.1801 -0.1499
31164W        W46633   8.817  17.705  14.445  0.5398  0.3790 -0.0569
31165W        W46634  17.463   6.878  13.108  0.0057  0.0863 -0.1258
31166W        W46635  15.332   9.291  12.914 -0.2676  0.1689 -0.0388
31167W        W46636  17.352  11.931  14.269  0.0023 -0.2612  0.1897
31168W        W46637   0.209  13.119  10.998  0.0183 -0.1072 -0.1054
31169W        W46638  10.235  10.505  15.303  0.2519 -0.0696 -0.2217
31170W        W46639   5.335  17.759   0.344 -0.1053 -0.0517 -0.0575
31171W        W46640  11.686   5.208  11.331 -0.2459 -0.0522 -0.0265
31172W        W46641  17.200  10.379  12.858 -0.0323  0.2276  0.1570
31173W        W46642   6.513   0.161   0.318  0.0476 -0.3450  0.1149
31174W        W46643  10.499  12.241   5.337  0.0364  0.0576 -0.3224
31175W        W46644  16.793  14.042   4.754 -0.1105 -0.2180  0.3542
31176W        W46645  12.480   8.974  11.370  0.0350 -0.0649  0.1334
31177W        W46646   3.907  15.542  14.120 -0.2753  0.1281 -0.1569
31178W        W46647  15.985  12.615  14.972 -0.0606 -0.0259 -0.1138
31179W        W46648   5.261   9.490  14.385 -0.0372 -0.0371  0.2412
31180W        W46649  13.327  12.134   0.483  0.0396  0.3681  0.0580
31181W        W46650   1.570   0.316   4.161 -0.2127 -0.1013  0.0951
31182W        W46651   1.445  14.790   5.436  0.0932 -0.1952 -0.2370
31183W        W46652   5.643   4.722  12.540 -0.2567 -0.3592  0.0866
31184W        W46653  14.958  15.149  12.985 -0.1357 -0.0536  0.1269
31185W        W46654  12.105   3.186   3.233 -0.1400  0.1465  0.1273
31186W        W46655  15.652   1.111  14.606  0.2663  0.0520  0.1315
31187W        W46656  15.528   2.384   4.873  0.2687  0.4004  0.1566
31188W        W46657   9.539  15.073   1.173 -0.0727 -0.0330 -0.2755
31189W        W46658   7.716   2.329  13.150  0.1091 -0.0367  0.0515
31190W        W46659   7.357   4.542   1.762  0.0036  0.0326 -0.1551
31191W        W46660  16.286  15.360   4.165 -0.0606  0.2967 -0.1501
31192W        W46661  10.739   8.479  14.197 -0.0978  0.2178 -0.1559
31193W        W46662  13.313   0.453  16.009 -0.0138 -0.1850  0.1729
31194W        W46663   5.647   3.929   4.936 -0.0448 -0.0232  0.2127
31195W        W46664  13.139   3.106   5.577 -0.2052  0.0852 -0.0730
31196W        W46665   5.188  13.550   2.655  0.0826 -0.2225  0.0841
31197W        W46666  15.542   4.029   2.220  0.0945  0.1056 -0.0050
31198W        W46667   1.021  11.600   2.961 -0.0594 -0.1105 -0.0480
31199W        W46668   4.444   7.258  13.062 -0.1963 -0.0456 -0.1027
31200W        W46669   4.450   9.936   2.443 -0.1178 -0.4164  0.1629
31201W        W46670   3.436  17.308   4.381  0.1648 -0.1687  0.1531
31202W        W46671   7.312   7.965   4.385  0.2159  0.1012 -0.1787
31203W        W46672  11.601  12.681   4.283 -0.0247 -0.0255 -0.2365
31204W        W46673  13.386   4.847  12.487  0.0996 -0.1297 -0.1340
31205W        W46674   0.676   4.882   3.592 -0.0255 -0.2497 -0.0620
31206W        W46675  14.742   0.972   3.285 -0.0412 -0.0001  0.1440
31207W        W46676  11.013  13.410  12.528 -0.1278  0.0776 -0.0165
31208W        W46677   7.248   1.115   4.284 -0.3034 -0.2091 -0.2473
31209W        W46678   1.463   2.182  13.918 -0.2098  0.1373 -0.0023
31210W        W46679   0.125  16.225  13.146  0.2606 -0.2965 -0.0023
31211W        W46680   8.325  14.573  12.124  0.1199 -0.1406  0.2258
31212W        W46681   0.827   9.009   2.588 -0.1333 -0.0679  0.0607
31213W        W46682  16.648   6.296   5.158 -0.2227  0.1002 -0.0539
31214W        W46683  16.557  11.508  14.595  0.0228 -0.1251  0.0727
31215W        W46684  11.118  15.749   4.093  0.3484 -0.2509 -0.0150
31216W        W46685  15.662   7.188   3.124 -0.1749  0.1292  0.0307
31217W        W46686  12.956   5.802  15.165  0.0112  0.0434  0.4474
31218W        W46687  14.810  17.533   3.722 -0.0118 -0.0288 -0.0427
31219W        W46688  17.206  17.449  13.143 -0.0112 -0.3229 -0.2955
31220W        W46689   0.783   7.682   4.007  0.0022 -0.1205  0.1935
31221W        W46690  11.611   3.925  13.048  0.1903 -0.0424 -0.1657
31222W        W46691   9.413   5.052  15.868 -0.2026  0.2460 -0.0796
31223W        W46692  14.098  16.292  11.020 -0.0246  0.2715 -0.0720
31224W        W46693   5.760   0.498  12.005 -0.0403 -0.1170  0.1135
31225W        W46694  17.364   2.306   0.567 -0.0342  0.1423 -0.0925
31226W        W46695   7.954  11.467  11.464 -0.0964 -0.2357  0.0163
31227W        W46696  12.730   1.721   0.530  0.1179 -0.0667 -0.0248
31228W        W46697   1.312   6.840   3.895  0.0105 -0.0755  0.2904
31229W        W46698   7.380   8.620  13.627  0.0755  0.0281  0.1398
31230W        W46699  10.785  11.726   3.859  0.1834 -0.1514  0.2930
31231W        W46700  13.416   6.711   0.795 -0.1653  0.0614  0.2036
31232W        W46701   6.390  14.954   0.719 -0.1371 -0.0957  0.1549
31233W        W46702   3.255   4.848   3.762 -0.2077  0.2481  0.0802
31234W        W46703   1.935   0.907  14.555  0.2066  0.1793  0.0194
31235W        W46704   1.333  11.135  11.367 -0.2821 -0.0631 -0.1068
31236W        W46705  16.384  13.747   4.848 -0.0327  0.0448 -0.0067
31237W        W46706   8.371  16.093   1.393  0.0598  0.0318 -0.1988
31238W        W46707   7.577   6.917  12.668  0.2428  0.1916 -0.0945
31239W        W46708   4.902   1.843  15.710 -0.2104 -0.1268  0.2099
31240W        W46709   3.674   9.302   1.290 -0.3193 -0.3578  0.0996
31241W        W46710   6.028   6.546   0.540 -0.2640 -0.1197  0.2482
31242W        W46711   0.867   3.946  15.977  0.0729 -0.2135  0.0188
31243W        W46712   9.064   9.181   0.018  0.0539  0.1156  0.1694
31244W        W46713  16.540   3.787  11.661 -0.2481  0.1203  0.0052
31245W        W46714   7.561   0.965  13.998 -0.0798 -0.0858  0.1929
31246W        W46715  11.980  11.330   3.837  0.0702 -0.1290 -0.2375
31247W        W46716   7.697  11.550  13.474 -0.5263 -0.1102  0.1502
31248W        W46717  10.293   2.996   5.794 -0.1628  0.0528  0.1311
31249W        W46718   9.595   1.446  16.779  0.0172 -0.0951 -0.2870
31250W        W46719   4.112   6.819  16.828  0.2407 -0.1495  0.0652
31251W        W46720  12.132   9.385   0.864 -0.2164 -0.0570 -0.2502
31252W        W46721   9.666   3.021   0.952 -0.0329  0.3042  0.1911
31253W        W46722   8.508   5.944   1.085  0.3013 -0.0928 -0.3777
31254W        W46723   2.142   1.465  16.492 -0.1699 -0.0064  0.0593
31255W        W46724  12.146   9.439  13.103 -0.1407  0.0953  0.1498
31256W        W46725  12.101   5.350   3.115  0.0541  0.0356 -0.0689
31257W        W46726   0.814  17.248   2.245 -0.1960  0.0386 -0.0753
31258W        W46727  13.322   3.545   5.963  0.1985  0.0215  0.1023
31259W        W46728   8.506  13.810  15.460  0.0908 -0.1121  0.2702
31260W        W46729  16.598  12.988  15.231 -0.0152  0.1095 -0.2509
31261W        W46730   9.247  11.259   3.577 -0.1607  0.4002  0.2578
31262W        W46731  13.277  17.570  12.446 -0.0689 -0.1485 -0.2559
31263W        W46732   8.026  15.389  14.538 -0.0725 -0.1749 -0.1717
31264W        W46733   3.774   3.174   5.179 -0.0797  0.2686 -0.1268
31265W        W46734   7.650  14.935  16.557  0.2991  0.2798 -0.3335
31266W        W46735   0.230  12.127   5.072 -0.0228 -0.1345 -0.3039
31267W        W46736   1.881   5.267  15.929 -0.3322  0.1764  0.1247
31268W        W46737  16.551  11.804  15.314  0.0332 -0.1547 -0.0792
31269W        W46738  17.742  14.479  13.651 -0.0853 -0.0237  0.1828
31270W        W46739   5.027   5.029   5.397  0.1249 -0.0459  0.2848
31271W        W46740   6.173   3.261   4.743 -0.2850 -0.1883 -0.1050
31272W        W46741   7.250   5.197   5.142  0.1227  0.2194 -0.0143
31273W        W46742  10.085  15.129   4.346 -0.2941 -0.0522  0.1332
31274W        W46743   5.433  10.913  11.763  0.2721  0.1886 -0.0352
31275W        W46744  17.268   0.587   5.658 -0.0754 -0.2036  0.0063
31276W        W46745   3.590   5.261  12.287 -0.0208 -0.0838  0.4537
31277W        W46746   2.477   6.936  11.316 -0.0943 -0.1236  0.2359
31278W        W46747   1.039  14.213   1.846  0.0523  0.0974  0.3359
31279W        W46748  11.157  12.498   4.391 -0.0705 -0.1211 -0.0776
31280W        W46749   1.869   4.110   3.468  0.2464 -0.0392  0.0429
31281W        W46750   3.214  14.022  14.639 -0.1282 -0.3388  0.0439
31282W        W46751  13.999   0.157   0.577  0.1638 -0.4019 -0.3742
31283W        W46752   2.232  16.060  11.296 -0.0882 -0.4128  0.3759
31284W        W46753   9.402  16.262   0.510 -0.0116  0.0669 -0.0397
31285W        W46754   1.955  12.333  12.388  0.0821 -0.2766 -0.1192
31286W        W46755   4.196  13.747   1.683 -0.3121 -0.1907  0.1005
31287W        W46756   9.301   0.042  13.508  0.1486  0.2519 -0.3202
31288W        W46757  14.032   3.803   3.713  0.0066 -0.2315  0.0327
31289W        W46758  15.266  11.499   1.732 -0.0511 -0.1851  0.1861
31290W        W46759  15.325  13.858  15.243 -0.0260  0.1057 -0.0987
31291W        W46760   2.673  17.529   0.344  0.2007 -0.2020  0.0498
31292W        W46761  14.415  11.688   1.078  0.1759 -0.0826 -0.0632
31293W        W46762  16.708  17.199  13.112  0.2432  0.0652  0.3619
31294W        W46763   5.110   8.322  16.381 -0.1752  0.1136  0.1555
31295W        W46764  10.147   1.590   4.187  0.1670  0.0116 -0.0318
31296W        W46765   1.820   8.215  11.448  0.1182  0.1233 -0.0127
31297W        W46766  12.540  17.388  12.991  0.2081 -0.3721  0.1754
31298W        W46767   9.402   8.945   2.440 -0.1918 -0.0407  0.1489
31299W        W46768  11.209   5.179   5.355 -0.2492  0.0877 -0.1657
31300W        W46769  10.506  11.287  13.623 -0.0977  0.2497 -0.1794
31301W        W46770  15.612   3.006  14.906 -0.4002 -0.2892 -0.0173
31302W        W46771  13.431   9.591  11.708  0.3018  0.0465 -0.1439
31303W        W46772   4.069  14.514   1.081  0.2284  0.2603  0.1921
31304W        W46773   5.307   5.679   2.485 -0.2743  0.0305 -0.2303
31305W        W46774   9.013   3.060  14.992 -0.2755 -0.1872  0.0605
31306W        W46775  13.654   7.264  12.895  0.0873 -0.2925 -0.0037
31307W        W46776   4.125   6.975  14.285 -0.3101 -0.3084  0.2653
31308W        W46777   2.440   7.646   5.245 -0.2057 -0.1885  0.2481
31309W        W46778  13.156  14.729   5.776 -0.0985  0.0167 -0.0192
31310W        W46779   0.711  10.265  16.739  0.2465  0.2271  0.0101
31311W        W46780  16.973   0.547  14.016 -0.0669  0.0956 -0.4365
31312W        W46781   1.067   4.742   1.895  0.2349  0.1555  0.1561
31313W        W46782   5.993   1.215  11.508  0.0207 -0.0471  0.0078
31314W        W46783   0.738   4.852   5.631 -0.1560  0.0205  0.2321
31315W        W46784  15.522  14.015   3.216  0.1236  0.0588 -0.0955
31316W        W46785  17.156   6.657  10.403  0.0040 -0.1679 -0.0812
31317W        W46786   7.829   7.845   2.083  0.1679 -0.2744  0.0670
31318W        W46787   5.663   0.177  14.128  0.2457  0.2252 -0.0768
31319W        W46788   7.861  12.145   0.346 -0.0134  0.0227 -0.2634
31320W        W46789   9.202   8.250   2.997  0.3622  0.4201 -0.3258
31321W        W46790   3.546   6.724  11.864 -0.3296  0.1496 -0.1048
31322W        W46791   3.495  10.381  14.288 -0.0159  0.0037  0.0761
31323W        W46792   5.331  10.574   6.076 -0.2467 -0.0304  0.0530
31324W        W46793   3.627  14.751  16.378  0.0236  0.0370  0.1489
31325W        W46794  14.211  16.242   1.645  0.3042 -0.0386 -0.1504
31326W        W46795  12.354   5.790   3.279  0.1035  0.0216 -0.2636
31327W        W46796  15.811   3.865  10.927 -0.2651  0.1931 -0.2487
31328W        W46797   0.560   6.068   3.135  0.0264  0.0472  0.0517
31329W        W46798   2.902   8.178  13.270 -0.0329 -0.0523 -0.0990
31330W        W46799   7.523   0.834  13.107  0.0439 -0.1314  0.0931
31331W        W46800  14.626   0.755   4.203 -0.1856  0.0850 -0.0082
31332W        W46801  12.195  11.174   5.822  0.0121 -0.3436  0.1533
31333W        W46802  15.228  14.203   5.556 -0.0034  0.1438  0.0453
31334W        W46803  13.813   8.914  14.415 -0.4477  0.0875  0.2148
31335W        W46804  11.065   2.778   1.232  0.0964 -0.1145 -0.0217
31336W        W46805   0.914   6.812  15.814 -0.0149 -0.4846  0.1065
31337W        W46806   2.719  14.103   3.767 -0.0175  0.0843  0.0415
31338W        W46807  13.799   4.314   1.123 -0.1217 -0.1760 -0.2801
31339W        W46808   3.773  17.714   5.418  0.1385 -0.1325 -0.1017
31340W        W46809   5.905   7.900  16.473 -0.1350  0.0253 -0.1611
31341W        W46810   3.839   5.552   2.081  0.0318  0.1016  0.0144
31342W        W46811   0.157  11.885  11.388 -0.1205 -0.0446 -0.1754
31343W        W46812  15.977  16.817   3.308  0.3712 -0.1143 -0.1748
31344W        W46813   4.270  13.870   3.740 -0.0770 -0.0555 -0.3158
31345W        W46814   6.475   4.238  15.289  0.1082 -0.3381  0.1345
31346W        W46815  14.603   2.323  16.173 -0.2579  0.2030 -0.0424
31347W        W46816   7.502   4.683  11.990 -0.2319  0.1096 -0.0393
31348W        W46817   9.933  14.012  13.114  0.1774  0.1710  0.2264
31349W        W46818  11.369   1.168   0.521  0.3797  0.3089  0.0760
31350W        W46819   6.472  15.997  15.998  0.3067  0.0791  0.0551
31351W        W46820  11.199   0.858   3.741  0.0966 -0.0095 -0.0539
31352W        W46821  10.232   0.630  15.264  0.1400 -0.0647 -0.1002
31353W        W46822  11.267   7.963  14.773 -0.1042 -0.0282  0.4112
31354W        W46823  15.123  14.400  16.037  0.2519 -0.1260 -0.2459
31355W        W46824  14.826   8.773  15.600  0.4487 -0.0204  0.1092
31356W        W46825  13.935   7.384   4.394  0.0038 -0.0456  0.2905
31357W        W46826   6.832   3.556  12.944  0.1356  0.0704  0.2347
31358W        W46827   6.299  11.056   2.162  0.0688 -0.0672  0.1048
31359W        W46828   3.499   5.923   1.335  0.1673  0.2683  0.0838
31360W        W46829  13.551  14.270   0.384 -0.1765 -0.0828 -0.1812
31361W        W46830   8.045  12.242  12.893 -0.0732 -0.3329  0.1593
31362W        W46831   1.666   7.338  11.968  0.1237  0.0417 -0.0567
31363W        W46832  17.561  17.228  14.579  0.2686 -0.0470  0.1861
31364W        W46833   6.106  16.871   1.668  0.1952 -0.1605  0.0002
31365W        W46834   0.759   1.078  15.170 -0.0477  0.2806 -0.1999
31366W        W46835   0.826   0.700   0.477 -0.1079  0.2166 -0.1320
31367W        W46836  17.697   8.449  12.962  0.0091 -0.0295 -0.2758
31368W        W46837   8.041   0.524   4.676  0.4882 -0.0337  0.0642
31369W        W46838  12.528   3.840   3.445  0.5359  0.0782 -0.0660
31370W        W46839  11.480   0.392   3.399  0.1414 -0.0946 -0.0567
31371W        W46840   7.369   3.088  11.706 -0.0034  0.2840  0.2091
31372W        W46841   8.482  10.705   2.439  0.1553 -0.0125  0.0049
31373W        W46842  16.421   2.908  14.532  0.2548  0.1024  0.1106
31374W        W46843  14.800  10.267   5.108  0.0543  0.0678  0.0083
31375W        W46844  14.786  17.257   2.024 -0.1248  0.1553  0.0029
31376W        W46845   7.984  12.610  14.488 -0.2054 -0.1275  0.1065
31377W        W46846   9.803   0.493  15.082  0.0348 -0.0581 -0.1722
31378W        W46847   7.817   7.637   6.426 -0.1008  0.0926 -0.1029
31379W        W46848  16.273  17.154  13.932  0.1959  0.3061 -0.2049
31380W        W46849   0.157   9.284   0.269  0.2630 -0.2318  0.0218
31381W        W46850  15.091  14.268   4.941 -0.1936 -0.1658 -0.3108
31382W        W46851  10.471   1.027   1.254 -0.0509 -0.1971 -0.3217
31383W        W46852   9.432  16.973   5.459 -0.1428  0.0987  0.2390
31384W        W46853  11.986   1.931  12.858  0.3378 -0.3733 -0.1063
31385W        W46854   5.790  16.063  13.125 -0.0657 -0.1291 -0.0744
31386W        W46855  10.830   2.886   0.224 -0.2470  0.0686  0.1598
31387W        W46856   8.843   0.796   5.257 -0.0240  0.3724 -0.1097
31388W        W46857  10.261   1.294   3.619 -0.2792  0.1194 -0.1144
31389W        W46858   6.074  15.193   4.388  0.1013  0.0354 -0.1549
31390W        W46859   0.665   0.347   0.788 -0.3257  0.0969  0.0113
31391W        W46860  11.127  10.593  11.879  0.0183 -0.2725 -0.1254
31392W        W46861   1.491  15.850  12.103 -0.0524 -0.0221 -0.0546
31393W        W46862  15.874   0.582   5.461 -0.0261  0.1618  0.0130
31394W        W46863  14.424  11.257  15.432  0.2161 -0.1861  0.1999
31395W        W46864  16.027  13.253   4.495  0.1852  0.0046  0.3954
31396W        W46865   5.697   0.532  14.949 -0.0535  0.1722 -0.2543
31397W        W46866  16.400  13.728   4.313 -0.1250 -0.0378  0.4561
31398W        W46867   1.458  14.440  16.609 -0.0992  0.0469 -0.0672
31399W        W46868  10.391   5.775   1.940 -0.0400 -0.0808  0.0140
31400W        W46869   6.156  17.104  14.027  0.1120 -0.2849  0.0585
31401W        W46870   1.980   3.615   3.623  0.1562 -0.4419 -0.0010
31402W        W46871   3.849  17.036  12.559  0.0173  0.0001  0.1854
31403W        W46872   3.623   1.323  15.329  0.0068  0.3668 -0.1118
31404W        W46873   5.202   2.910  12.530  0.0579  0.2281 -0.1151
31405W        W46874   2.241   2.222   2.824 -0.0399 -0.0897  0.0019
31406W        W46875   6.616   5.002   2.285 -0.2438  0.4092  0.2495
31407W        W46876   8.424   4.326  16.508  0.2192 -0.0753  0.1069
31408W        W46877   2.829  17.292  13.284 -0.3793  0.0533 -0.1094
31409W        W46878   9.634   3.801   5.135  0.0511 -0.0835 -0.1440
31410W        W46879   5.422   7.734  15.739 -0.0408 -0.2270 -0.0611
31411W        W46880  17.686  16.707  15.955 -0.0579  0.1145 -0.0732
31412W        W46881   8.889   4.537   1.659  0.0615 -0.2100 -0.0003
31413W        W46882  11.611   0.380  12.854 -0.1210 -0.1726 -0.1856
31414W        W46883   7.678  14.644   4.560 -0.2244  0.3551  0.0444
31415W        W46884  13.228   5.091   0.117  0.0038 -0.1058 -0.2216
31416W        W46885  17.611   2.415   4.410 -0.0757  0.1090  0.1831
31417W        W46886  11.148   4.415   2.420 -0.1029 -0.1820 -0.1274
31418W        W46887   0.198   8.206   3.830  0.1969 -0.2492 -0.1671
31419W        W46888   5.518   1.045  12.690  0.0998 -0.1876  0.0083
31420W        W46889   2.105  14.933  16.747 -0.1052 -0.4070  0.1712
31421W        W46890   4.056   6.515  10.793  0.3017 -0.0479 -0.2283
31422W        W46891   1.539  14.665  13.853 -0.0980 -0.1236 -0.0040
31423W        W46892  12.103   6.060   6.466  0.0783  0.0677  0.3716
31424W        W46893  14.879   5.674  13.266 -0.2696 -0.0487  0.0022
31425W        W46894   4.955   3.647   0.806 -0.1436  0.0542  0.1925
31426W        W46895  16.200   2.760  12.959  0.1376 -0.3075 -0.2989
31427W        W46896   1.960   3.911   0.357 -0.1454 -0.1592  0.0669
31428W        W46897  14.420   6.343   5.644 -0.1124 -0.2365  0.0974
31429W        W46898   2.583   2.350   4.788 -0.1437 -0.1345 -0.0858
31430W        W46899   5.303   5.047  11.551 -0.3514  0.1360  0.2473
31431W        W46900   0.441  16.706  13.737 -0.1639  0.0067  0.0535
31432W        W46901  15.792   0.864  16.696 -0.1083  0.1015 -0.2757
31433W        W46902   0.686  10.133  11.378  0.0839 -0.0584  0.0555
31434W        W46903  16.138   8.231   1.014  0.1218 -0.1971 -0.3080
31435W        W46904  12.060  14.867  15.201  0.0959  0.2082  0.0279
31436W        W46905   1.235  15.111  15.048  0.2591 -0.1092 -0.1126
31437W        W46906   2.817   0.459  13.622 -0.1103 -0.2839 -0.1561
31438W        W46907   6.742  15.927  13.533  0.5962 -0.0988 -0.2062
31439W        W46908   3.047   8.439   0.780  0.0149 -0.2685 -0.1052
31440W        W46909   2.271  16.685  10.446  0.1074 -0.0430 -0.1498
31441W        W46910   2.217   0.558  16.153 -0.1001  0.1293  0.0632
31442W        W46911  11.753   0.591  14.161 -0.0467  0.0589  0.0588
31443W        W46912  14.231  16.344   5.352 -0.0445 -0.0288  0.0801
31444W        W46913   0.595   9.319  16.771  0.2911  0.1290 -0.3493
31445W        W46914   4.579   8.341   4.018 -0.0247 -0.6044 -0.1630
31446W        W46915  13.363  11.901  13.834  0.3065 -0.2069  0.1071
31447W        W46916  15.668  13.329   2.166 -0.2038  0.0685 -0.1914
31448W        W46917  13.557   2.912  15.349  0.0232 -0.0864  0.0980
31449W        W46918  12.526  16.512   5.349 -0.1913  0.0408 -0.1762
31450W        W46919  15.790  17.644   2.668 -0.0433 -0.4220 -0.3045
31451W        W46920   1.426  16.723   0.812 -0.0541 -0.1199 -0.1587
31452W        W46921  11.643   8.638  15.403  0.1147 -0.1172  0.1159
31453W        W46922  10.264  15.413   5.859  0.1223 -0.1698  0.2691
31454W        W46923  13.650   5.657  13.551  0.2623 -0.2037 -0.2460
31455W        W46924  12.442   7.793   4.727 -0.2638  0.2295  0.2407
31456W        W46925  10.680  11.756   4.647  0.1148 -0.1023 -0.0878
31457W        W46926   5.044   1.769  12.489 -0.1306  0.0619  0.0370
31458W        W46927   5.003   5.072  15.727 -0.2140 -0.0043  0.4082
31459W        W46928   8.707   4.619   4.609  0.0716 -0.1060 -0.1283
31460W        W46929  14.836   5.974   3.428  0.0597 -0.2601  0.0493
31461W        W46930  15.858  15.288  11.326  0.2811  0.1916 -0.2076
31462W        W46931  11.905  14.521   4.127  0.0903 -0.2278 -0.1063
31463W        W46932   9.343   8.070  13.277  0.0553  0.0460 -0.1770
31464W        W46933  13.900   4.973   4.562 -0.1520  0.0542 -0.3876
31465W        W46934  16.637   0.177  12.897  0.0740  0.5240  0.2540
31466W        W46935   6.329  12.621   3.042 -0.0967 -0.0352 -0.1280
31467W        W46936  10.864   0.525   1.973  0.2513  0.0923  0.3035
31468W        W46937  14.562  13.904  12.739 -0.0242 -0.0339  0.0621
31469W        W46938   6.136  15.170  13.955 -0.2020  0.0658 -0.0638
31470W        W46939  16.017  13.326   5.530 -0.1785  0.2668  0.0063
31471W        W46940  12.467   6.766   5.738 -0.2178  0.0972  0.0772
31472W        W46941  14.238   6.012  11.822 -0.2262  0.0266  0.2627
31473W        W46942   2.791   1.944   2.898  0.1457  0.0112  0.0906
31474W        W46943  17.699  12.235  13.930  0.0056 -0.0052 -0.2345
31475W        W46944  14.031   7.221  16.496 -0.0659 -0.1745 -0.1318
31476W        W46945  11.959   8.745  10.975  0.0555 -0.0823  0.0477
31477W        W46946   6.804   9.814  15.365  0.0249 -0.1752  0.0394
31478W        W46947   3.644   2.632   0.853  0.3590 -0.1480 -0.1794
31479W        W46948   4.814   8.668   0.050  0.1858 -0.0064 -0.2342
31480W        W46949   8.047  17.522   3.497  0.3009 -0.1552 -0.2279
31481W        W46950  14.502   4.791  13.588 -0.0860 -0.1733 -0.2000
31482W        W46951  17.480   8.853   0.963 -0.0492 -0.3031 -0.0539
31483W        W46952  17.589  17.031  12.673  0.0663  0.0155  0.0441
31484W        W46953   0.026   5.861  11.803  0.1951  0.1420  0.5173
31485W        W46954   2.640  12.411  14.025 -0.1623  0.2347 -0.0842
31486W        W46955   4.518  13.603  15.587 -0.0190 -0.1008 -0.2895
31487W        W46956  17.526   0.841  14.201  0.3147 -0.3114  0.0280
31488W        W46957  14.062  15.532  16.546 -0.3112 -0.1148 -0.2642
31489W        W46958   1.331  16.464   5.041  0.2025  0.0408  0.2310
31490W        W46959   4.403  13.008  11.589  0.4750  0.0876 -0.0796
31491W        W46960   0.790   9.369   5.703 -0.0090  0.0838 -0.0119
31492W        W46961   3.477  16.884   3.742 -0.0019  0.1717  0.2863
31493W        W46962   8.832  11.787   1.723  0.2056 -0.0302  0.0281
31494W        W46963  16.634  10.648  15.925  0.3550 -0.1597  0.0599
31495W        W46964  11.413  12.868   1.557 -0.1013 -0.3062 -0.1903
31496W        W46965  15.687   9.111  15.259 -0.1861 -0.2217  0.1708
31497W        W46966  10.859  17.469  16.770 -0.0440  0.0234  0.3991
31498W        W46967  10.449   9.483   1.176  0.0131 -0.0662  0.2238
31499W        W46968  14.324   7.718   4.392 -0.0887  0.1614  0.1595
31500W        W46969  15.204  15.235  15.984 -0.0120  0.0297  0.0741
31501W        W46970  16.529   0.776   1.437  0.1822 -0.1804 -0.1329
31502W        W46971  16.410  16.542   4.397  0.3419 -0.0810 -0.1238
31503W        W46972   1.472  12.233  12.129 -0.1112  0.0607 -0.1883
31504W        W46973   4.936   3.906   3.835 -0.0251  0.0678  0.6064
31505W        W46974  16.840  11.291   1.649  0.3122  0.0004 -0.0807
31506W        W46975   3.966   3.261   4.218 -0.0358  0.2465 -0.1326
31507W        W46976   1.581  11.141   1.779  0.2000  0.2969 -0.1628
31508W        W46977  13.279  14.649   4.892 -0.1170  0.0116  0.1960
31509W        W46978   1.914  13.131   1.100 -0.2664 -0.0991 -0.0574
31510W        W46979  12.683  17.043  12.243 -0.1410 -0.4673 -0.1202
31511W        W46980  12.695  12.762  15.579 -0.3741 -0.0093 -0.1986
31512W        W46981   1.407   3.680  12.326  0.1026  0.2235 -0.1710
31513W        W46982  13.064   4.515  14.077 -0.0054 -0.1512 -0.1371
31514W        W46983  16.070  15.817   1.405  0.2876  0.1204  0.0350
31515W        W46984   5.583  16.880  11.794 -0.0165 -0.0951  0.1833
31516W        W46985   6.120  14.278   5.235  0.0560 -0.3737 -0.0879
31517W        W46986   2.742   8.774   4.375  0.1560  0.1819  0.1334
31518W        W46987  11.264   8.782  11.470  0.2801 -0.0925  0.0028
31519W        W46988   7.247   5.473  13.525 -0.1303  0.0441  0.2275
31520W        W46989   0.213   9.189  12.779 -0.0189 -0.0709 -0.1207
31521W        W46990   4.853  10.366   4.476  0.0751  0.4937  0.1333
31522W        W46991  14.618  10.722  15.449 -0.1712 -0.0607 -0.0087
31523W        W46992   9.755   8.094   0.458 -0.1415 -0.1624 -0.0652
31524W        W46993  13.414  12.616   4.237  0.0665  0.1020  0.0707
31525W        W46994   4.093   0.643   5.115  0.0101  0.1607 -0.0627
31526W        W46995   0.767  14.143  11.715  0.1084 -0.0094  0.1551
31527W        W46996  15.323   8.579   5.774  0.1765 -0.3823  0.0425
31528W        W46997  17.119  15.836  13.189 -0.2531 -0.1775 -0.1423
31529W        W46998  16.903   9.737   0.991 -0.0215 -0.3294 -0.0894
31530W        W46999   2.957  14.603  15.585 -0.3303  0.0770 -0.0945
31531W        W47000   1.996  11.242   4.102 -0.0254 -0.0799  0.2880
31532W        W47001  11.909   4.621   0.881  0.0413 -0.3086 -0.2178
31533W        W47002  14.954  14.790   2.029  0.1230 -0.0116  0.1569
31534W        W47003   7.045  13.866  12.322  0.0744  0.1719  0.0147
31535W        W47004  12.051  14.763   3.179  0.1111  0.1673  0.3554
31536W        W47005   3.763  10.623  10.998 -0.0581  0.1932 -0.3020
31537W        W47006   6.347  16.190   1.026 -0.3134  0.0748 -0.0231
31538W        W47007   5.384  17.024  12.239  0.0269  0.0894 -0.0969
31539W        W47008   9.213  10.720   1.008 -0.5431  0.0220 -0.0371
31540W        W47009  17.142  15.575   2.796 -0.0881  0.0400  0.0225
31541W        W47010   8.950  15.486  14.230 -0.3599  0.0859  0.1177
31542W        W47011  10.008  16.389   6.819  0.1139 -0.0194  0.0001
31543W        W47012  15.993  11.784  10.964  0.5057  0.1362  0.2147
31544W        W47013  15.399   8.298  12.018 -0.1704 -0.0266 -0.1408
31545W        W47014  12.206   8.129  13.432  0.1717  0.0932 -0.1098
31546W        W47015   1.562  17.559  13.098  0.1564 -0.0829 -0.1594
31547W        W47016   4.665  14.440   0.013 -0.0754  0.0475  0.2005
31548W        W47017   9.901   9.904  11.521  0.0515  0.0842 -0.2475
31549W        W47018  15.187   2.164  15.899 -0.2022  0.2321 -0.0199
31550W        W47019   3.561  11.942  14.167 -0.0908 -0.0355  0.4164
31551W        W47020  13.670  11.550  12.131 -0.0611 -0.3078 -0.0236
31552W        W47021  11.642  12.635   4.757 -0.1772  0.1829 -0.1416
31553W        W47022   1.657  17.405  15.500 -0.2350 -0.0877  0.0345
31554W        W47023   2.826  16.952   1.323 -0.1031  0.1252 -0.0563
31555W        W47024   0.971   7.973   2.403 -0.2254  0.1897 -0.0214
31556W        W47025   8.246   6.775   3.135 -0.1131  0.2776  0.2857
31557W        W47026  17.715   2.436  12.406 -0.0592  0.1659 -0.2598
31558W        W47027  16.840   7.817  16.290  0.0207 -0.2127 -0.1419
31559W        W47028  15.237   0.983  11.213  0.2075 -0.1492 -0.0806
31560W        W47029  13.851  10.789   2.612 -0.0596  0.2070 -0.2817
31561W        W47030   0.498  16.522   0.050 -0.0412 -0.1431 -0.1119
31562W        W47031   2.383  16.908   3.570  0.0229 -0.0681  0.1845
31563W        W47032  13.776  14.536  15.088  0.1601  0.1801 -0.1432
31564W        W47033   7.697  15.906   2.508  0.0294 -0.1132  0.3303
31565W        W47034   8.127   9.351   1.975  0.2710  0.1342 -0.1967
31566W        W47035   6.916   7.734   6.394  0.4438  0.1297 -0.1571
31567W        W47036  16.307   7.985   2.987 -0.1516  0.0868 -0.0930
31568W        W47037  16.747   8.903  14.127  0.1024 -0.0471 -0.3472
31569W        W47038   0.204   5.000   0.433 -0.2478  0.3331  0.0874
31570W        W47039   2.628   4.697   3.160  0.0318  0.1593  0.0497
31571W        W47040  15.104  17.238  16.043 -0.0842 -0.2597  0.0904
31572W        W47041  13.938   5.155  14.989 -0.0470 -0.1548 -0.0817
31573W        W47042  15.247   9.686   3.865 -0.1178 -0.0824 -0.0241
31574W        W47043   2.648  15.976   3.594 -0.2253 -0.2623  0.2266
31575W        W47044   6.995   0.885   0.744 -0.2326 -0.5723 -0.3036
31576W        W47045   3.238  15.370  13.367 -0.4639 -0.3016  0.1350
31577W        W47046  16.969   6.888  11.658 -0.0056  0.0672 -0.1573
31578W        W47047   7.894   6.350  12.127 -0.1464 -0.2022  0.0957
31579W        W47048  11.305  10.098  15.850 -0.0599  0.1154 -0.1187
31580W        W47049   6.292  16.807   2.308  0.3658  0.1149 -0.1936
31581W        W47050  11.616   6.781   4.472  0.1573 -0.0190  0.1181
31582W        W47051   0.273  16.276   0.425 -0.1983 -0.0374 -0.2483
31583W        W47052  11.289   1.616   0.742  0.0124 -0.1517 -0.0220
31584W        W47053   5.859  14.378   3.872 -0.2471 -0.0466  0.2553
31585W        W47054   9.015  14.552   5.566 -0.2717  0.2675  0.0288
31586W        W47055   9.699   0.045  14.902 -0.0863  0.1679 -0.1120
31587W        W47056   0.335   9.533  11.932 -0.1717 -0.1854 -0.2303
31588W        W47057   8.554  17.150  15.481 -0.0396  0.0964  0.1319
31589W        W47058  15.235   4.853   3.999  0.1670  0.0343  0.1020
31590W        W47059  17.506  15.287  13.255 -0.0575  0.0369  0.0518
31591W        W47060   7.919   1.947   2.512  0.3402  0.1874 -0.1729
31592W        W47061   8.139   5.968  12.642 -0.0832 -0.0081 -0.0634
31593W        W47062  15.421  16.532   1.099 -0.1379 -0.0415 -0.4493
31594W        W47063   4.573  16.658  12.140  0.2373 -0.2599  0.0877
31595W        W47064   8.329  12.508   4.065  0.0621  0.1118  0.1453
31596W        W47065   8.073  17.744  14.894 -0.2308 -0.2464  0.0893
31597W        W47066   2.559   7.137  12.605  0.0927 -0.2818 -0.3358
31598W        W47067  14.555   9.283   4.964  0.1714 -0.1470 -0.2130
31599W        W47068   1.615   2.783  16.759 -0.1143 -0.0172 -0.3460
31600W        W47069   1.844  16.699   3.528  0.1041 -0.0712  0.3180
31601W        W47070   2.201   6.048  13.913 -0.3485  0.1199 -0.0999
31602W        W47071  16.810  11.907  11.970 -0.0592 -0.0297  0.1914
31603W        W47072  10.515   3.375  12.889  0.1203 -0.0262 -0.0610
31604W        W47073  17.158  16.551   4.130 -0.0144  0.0701 -0.0009
31605W        W47074   0.221   4.827   4.406  0.0384 -0.2383  0.0913
31606W        W47075  12.347  11.515   4.146 -0.0118 -0.1222  0.0345
31607W        W47076   0.637   4.166  13.133  0.0398  0.0233 -0.1349
31608W        W47077   4.433   3.704   1.543  0.1529  0.0284  0.0625
31609W        W47078  14.881   3.374   2.127 -0.2166 -0.1383 -0.3610
31610W        W47079   9.605   1.819   2.127 -0.0496 -0.2731  0.2484
31611W        W47080  15.115   6.625  11.744 -0.2195  0.0925  0.1828
31612W        W47081   1.843   4.352  16.058  0.2865 -0.0142  0.2418
31613W        W47082  16.345   0.682  15.445  0.1218  0.1631  0.2634
31614W        W47083  16.736   7.018   3.997  0.2123 -0.2209 -0.1637
31615W        W47084   2.830  11.784   4.916 -0.0259  0.0534  0.0198
31616W        W47085   8.310  12.520  15.695  0.0943 -0.0214 -0.0988
31617W        W47086   8.033  14.847   0.528  0.0904 -0.1942 -0.0378
31618W        W47087  14.238   2.378  13.397 -0.3689  0.1061 -0.0887
31619W        W47088   0.406  12.031  14.564 -0.0856 -0.2526 -0.2130
31620W        W47089   1.498   1.996   4.668 -0.1128  0.1335  0.2908
31621W        W47090  15.239   7.149  12.638 -0.1531  0.3078  0.1803
31622W        W47091   0.559  10.127  10.495  0.2437 -0.1994 -0.1256
31623W        W47092   2.438   4.913   0.403  0.0545  0.3733  0.0050
31624W        W47093  11.500   5.100  12.295 -0.2131  0.1775  0.3486
31625W        W47094   6.787   7.477   5.597 -0.1807 -0.0737 -0.0294
31626W        W47095  14.159   3.580  15.980  0.2849 -0.2427  0.1339
31627W        W47096   9.382  14.841   2.898  0.1322 -0.0621  0.0530
31628W        W47097   7.280  15.803   5.469 -0.2062 -0.0621 -0.2717
31629W        W47098   0.122  12.437   4.686 -0.2183 -0.3401 -0.0774
31630W        W47099   9.603   5.426   0.513 -0.1733  0.1490 -0.1301
31631W        W47100   7.851   8.561  15.758  0.0516  0.2637  0.0383
31632W        W47101   7.535  16.201  12.961 -0.1317  0.2011 -0.0309
31633W        W47102   6.927  17.488   4.436 -0.0012 -0.1150  0.0005
31634W        W47103   5.199  10.076   0.481  0.2259  0.2781  0.1403
31635W        W47104   8.072   3.235   6.000  0.0076 -0.2075 -0.2200
31636W        W47105   2.777   1.399  12.659  0.2628 -0.2029  0.1999
31637W        W47106   4.831   8.239   1.914  0.0062  0.2536  0.0897
31638W        W47107  14.679   0.448  14.694 -0.1741  0.0988  0.1671
31639W        W47108  16.711   4.141   3.647 -0.3562 -0.1636  0.0240
31640W        W47109   3.281  13.588  15.990 -0.1448 -0.2087 -0.1658
31641W        W47110  11.682   3.103  14.950  0.1687  0.1019  0.2070
31642W        W47111   2.108   2.352   4.915 -0.1527 -0.0450 -0.1393
31643W        W47112  16.340   2.420  10.425  0.0381 -0.0314 -0.0413
31644W        W47113   6.928  15.140  13.000 -0.2174  0.1661  0.1796
31645W        W47114  11.553   3.933   5.535 -0.4313  0.0205 -0.1154
31646W        W47115   5.613   6.986   3.110  0.0748 -0.1801  0.0250
31647W        W47116   9.093   0.797  13.637 -0.0853  0.1435 -0.0820
31648W        W47117   1.981   5.665   5.059  0.0857 -0.2598 -0.2216
31649W        W47118  13.449  16.718  15.008 -0.1238 -0.1116 -0.0543
31650W        W47119  11.266  14.644  14.226  0.2257 -0.0790  0.0388
31651W        W47120   9.630   9.077  11.880  0.0805 -0.1902  0.1179
31652W        W47121  10.692   0.574  15.043 -0.4192  0.2689 -0.0871
31653W        W47122  12.496   3.252   2.214 -0.1445  0.2849  0.1671
31654W        W47123   5.677   6.430  15.642  0.1749  0.0272  0.1892
31655W        W47124   3.543   4.552   2.597 -0.0142  0.1792 -0.1373
31656W        W47125  10.595  13.659   5.077  0.2753 -0.0571 -0.4525
31657W        W47126   7.284  17.328  12.181  0.3231 -0.0413 -0.1461
31658W        W47127   0.088  15.718  14.210 -0.1043  0.2264  0.0723
31659W        W47128  14.030   5.623  14.842  0.0511 -0.2918 -0.0030
31660W        W47129  15.019  16.307  11.437  0.1573  0.0788  0.1137
31661W        W47130   7.654   9.490  16.779  0.2467  0.0672 -0.1154
31662W        W47131   9.909   5.906  12.242 -0.2829 -0.0873  0.0909
31663W        W47132  11.505   9.204  11.632 -0.5232 -0.0973 -0.1585
31664W        W47133  16.283  15.531   3.725  0.3368  0.0154  0.3107
31665W        W47134  14.357  12.232  12.447 -0.0707  0.2072 -0.1412
31666W        W47135  15.357  12.494  16.286 -0.0906  0.0323  0.0856
31667W        W47136  11.552  14.856  15.129  0.0808 -0.0381 -0.1533
31668W        W47137   6.383  17.478   4.346  0.2169 -0.0875  0.0881
31669W        W47138   1.783  16.312  11.436 -0.0862  0.0560 -0.1658
31670W        W47139  11.849  14.665  11.269 -0.1087  0.1205 -0.1345
31671W        W47140   5.768  16.664  14.073 -0.0580 -0.0704 -0.1271
31672W        W47141   7.669   4.944  13.158 -0.0745 -0.0706  0.0748
31673W        W47142   0.061  13.586  11.910  0.2231 -0.1535  0.2354
31674W        W47143   2.737  15.354   5.299  0.0166  0.0573  0.1434
31675W        W47144   4.294  16.552  12.567  0.1370 -0.0223  0.1047
31676W        W47145   4.720   5.267   0.652 -0.2643  0.1309  0.0746
31677W        W47146   6.575   2.018   0.214  0.1624  0.0012 -0.0850
31678W        W47147   3.533   9.014  11.137  0.1519  0.2482 -0.0417
31679W        W47148  16.990   7.019   5.418 -0.1688  0.3800  0.2621
31680W        W47149   9.760  14.729   4.218 -0.1428  0.3688  0.1613
31681W        W47150   7.649   9.067   2.843  0.1396  0.0294 -0.0171
31682W        W47151   9.040  13.940  12.485  0.2167 -0.1748 -0.0621
31683W        W47152   1.599   2.013   3.989 -0.2045  0.0696  0.1192
31684W        W47153  16.595  15.506   4.539  0.1298 -0.0824 -0.1963
31685W        W47154  12.385  16.926  14.942  0.0701 -0.0543  0.0751
31686W        W47155   7.724  12.272   4.410  0.1631 -0.0658 -0.1922
31687W        W47156   4.075  16.957  14.394  0.1703  0.2953 -0.2197
31688W        W47157   6.181   5.945  12.947 -0.1155 -0.0043  0.0882
31689W        W47158  15.654  10.996  16.116  0.1077 -0.0428 -0.0751
31690W        W47159  15.840   5.229  14.349 -0.0898 -0.3719 -0.3072
31691W        W47160   6.162   0.539  16.721  0.1204  0.0129  0.1397
31692W        W47161   2.139  11.496   4.589  0.2406  0.0960 -0.0606
31693W        W47162  11.105  15.161   1.562  0.2373  0.2302 -0.2349
31694W        W47163  16.956   6.107   4.873  0.0476 -0.0206 -0.4423
31695W        W47164   3.687  11.483  16.152  0.0694  0.1495  0.2403
31696W        W47165  14.871   5.039  15.242 -0.1998 -0.1147 -0.0997
31697W        W47166  14.814   1.680  13.662 -0.1117  0.2101 -0.0498
31698W        W47167  17.437  11.699  15.314 -0.3004 -0.1724  0.2245
31699W        W47168  17.569   5.382   3.294 -0.0700 -0.1901  0.3853
31700W        W47169   1.239  13.052  12.099 -0.2386  0.1132  0.0678
31701W        W47170  10.179   8.681  12.265  0.0199 -0.0773 -0.1087
31702W        W47171   7.249  15.974   4.182  0.0248 -0.0069  0.0845
31703W        W47172   3.417  11.929  16.193 -0.0378  0.4949 -0.0661
31704W        W47173   3.799  13.075   2.178 -0.1111 -0.1227  0.0573
31705W        W47174   3.138   8.247   1.482  0.0965 -0.2794 -0.1344
31706W        W47175  11.701   6.313   4.203  0.0842  0.0051  0.2457
31707W        W47176  15.208  15.014  13.812  0.0035 -0.1146  0.0499
31708W        W47177   2.808  13.514  13.308 -0.0523  0.0848 -0.2003
31709W        W47178   6.371  14.376   1.387 -0.0212 -0.1544  0.0312
31710W        W47179   6.316   4.296  14.551 -0.3008 -0.2827 -0.0242
31711W        W47180  12.567  10.087   2.334 -0.1496  0.2358  0.1012
31712W        W47181   7.251   7.111   4.832  0.3337  0.1522  0.0506
31713W        W47182  15.906   8.360   3.771 -0.3038  0.3995  0.0535
31714W        W47183  15.926   7.505   4.014 -0.1824 -0.1665  0.1223
31715W        W47184  10.917   9.789  11.649 -0.2007  0.1285  0.0578
31716W        W47185   6.556   3.413   5.051  0.1158  0.0085 -0.1424
31717W        W47186   0.100  11.002  14.223  0.1072  0.1131 -0.0362
31718W        W47187   3.743  17.765   4.112 -0.1070  0.0833 -0.1366
31719W        W47188  13.053  12.348   4.804  0.0089  0.0946  0.1436
31720W        W47189   9.970   4.070   4.899 -0.1620 -0.0494 -0.1018
31721W        W47190   6.967   5.254  12.485  0.1866 -0.2936 -0.4988
31722W        W47191   8.035   7.608   4.336  0.0667 -0.1305  0.1206
31723W        W47192   4.007   1.000   1.931 -0.0156 -0.1744 -0.3515
31724W        W47193  10.718  13.041   6.443  0.1737 -0.0093 -0.1583
31725W        W47194   9.966   6.916   0.826  0.2832 -0.3386 -0.1329
31726W        W47195  16.506   4.956  12.179  0.1636 -0.1922 -0.0514
31727W        W47196   0.283   2.258  15.294 -0.1000  0.0399  0.0140
31728W        W47197  14.858  11.899   5.039 -0.1107 -0.1615  0.0122
31729W        W47198   4.916   1.064  12.193  0.1846  0.2453  0.1375
31730W        W47199  10.085  10.035  12.346  0.2396  0.3957  0.1573
31731W        W47200   6.885  12.200  15.217 -0.1538  0.1282  0.0624
31732W        W47201  15.188   7.023   4.474 -0.3157  0.0576 -0.1990
31733W        W47202   3.385   8.969   5.824  0.0268  0.0953 -0.0872
31734W        W47203   6.445  15.311  12.981 -0.0081 -0.0928  0.1882
31735W        W47204  12.619  11.417  16.488  0.2804  0.0388  0.0979
31736W        W47205  12.611   1.902   0.942 -0.1250  0.1500 -0.0927
31737W        W47206  17.172  11.034   3.481 -0.1528 -0.1881  0.2906
31738W        W47207   4.479  11.557  10.866 -0.2463  0.2315 -0.1346
31739W        W47208   8.170  10.079  16.475 -0.4124  0.1705 -0.0101
31740W        W47209  10.846   2.160  15.991 -0.1477 -0.0483  0.2184
31741W        W47210   4.013   9.078   3.997  0.2675 -0.0149 -0.0073
31742W        W47211  16.304   8.385  16.633 -0.1729 -0.0956 -0.1681
31743W        W47212   6.383  17.016   2.783 -0.0501 -0.0384 -0.2166
31744W        W47213   3.461  11.916  11.552 -0.0325 -0.0503 -0.0208
31745W        W47214   1.755  11.959  15.776  0.0038 -0.0824 -0.2572
31746W        W47215  13.231  17.472  13.524 -0.1452 -0.2241 -0.4118
31747W        W47216   6.622   3.929   4.537 -0.2080  0.0067  0.3339
31748W        W47217  11.292   5.442  14.545 -0.2478  0.0695  0.0413
31749W        W47218  15.775   5.881   2.814 -0.4189 -0.0390 -0.0874
31750W        W47219  10.345   8.132  13.482  0.1354 -0.1936  0.0955
31751W        W47220  11.929  15.639  15.041  0.1226 -0.0046  0.0259
31752W        W47221   9.887  12.475   4.668  0.1509  0.5453 -0.0231
31753W        W47222   3.998  10.428  12.749  0.2387  0.0961  0.0634
31754W        W47223   9.945   4.438  16.347 -0.2707 -0.1180  0.0157
31755W        W47224  12.916   9.470   1.497  0.0922 -0.4085  0.0739
31756W        W47225   2.236  11.474   3.596 -0.1441 -0.1058 -0.1515
31757W        W47226  11.758  13.332   1.572 -0.0100  0.0519  0.1163
31758W        W47227   6.313   3.034   3.941  0.0994  0.0792 -0.0533
31759W        W47228   9.334   8.498  12.402 -0.3130  0.0538  0.2555
31760W        W47229  11.832  16.366  15.504  0.0069  0.2113  0.1893
31761W        W47230  12.681   4.178  14.317 -0.2838 -0.0646  0.0594
31762W        W47231   7.538   5.029  15.678 -0.2300 -0.2068  0.1945
31763W        W47232  17.314  13.745   1.146 -0.0885  0.2209  0.0346
31764W        W47233   5.077   0.469   2.701  0.0482 -0.0267  0.2205
31765W        W47234  16.135   7.793   3.650 -0.1413 -0.0232 -0.1625
31766W        W47235   6.976  11.771  11.000  0.2568 -0.0550  0.0289
31767W        W47236  11.576   3.547  15.070 -0.0748 -0.2870 -0.0766
31768W        W47237   5.949   7.509  16.039 -0.0656  0.1851 -0.1350
31769W        W47238   2.429   6.201  13.488  0.3363  0.0180 -0.1819
31770W        W47239  12.947  17.648  14.973 -0.0099 -0.0450  0.0848
31771W        W47240  13.861  13.941   3.935 -0.1727  0.1300  0.0875
31772W        W47241   5.369   8.695  14.184 -0.0852 -0.0961  0.1741
31773W        W47242   3.034  15.250   1.093 -0.0376 -0.1403  0.2221
31774W        W47243   7.593  11.237   0.310  0.0209  0.5416  0.3877
31775W        W47244  10.862  13.597   3.309  0.0594  0.0883 -0.0274
31776W        W47245   7.106   4.493  16.513 -0.0835  0.0700  0.0680
31777W        W47246  15.289   1.883   3.397  0.2265 -0.0338  0.2285
31778W        W47247   8.780  12.243   5.184  0.1236 -0.1213  0.0051
31779W        W47248   2.813  16.527  15.588 -0.1006  0.0869 -0.1974
31780W        W47249   7.824  13.845   1.351 -0.2576  0.2742 -0.1541
31781W        W47250   3.151   2.825   3.877  0.1902 -0.0754 -0.2255
31782W        W47251  16.696   0.600  12.501 -0.0055  0.1603  0.0081
31783W        W47252  16.855   2.896   4.504  0.2814 -0.2587  0.0518
31784W        W47253  16.544  17.549   3.650  0.0485  0.1735 -0.2170
31785W        W47254   2.115   7.043  12.840  0.1250  0.3323  0.1447
31786W        W47255   1.497   5.052  13.634 -0.1548  0.1495  0.2137
31787W        W47256   8.498   6.331   5.540  0.1319  0.1589 -0.0975
31788W        W47257  15.022  10.363   3.396 -0.2607 -0.4125 -0.1727
31789W        W47258   8.388  17.064  12.314 -0.1807  0.2340  0.2306
31790W        W47259   4.110   5.120  11.037  0.0634  0.0654 -0.3075
31791W        W47260  16.592  11.430  13.718 -0.0562  0.0347  0.2598
31792W        W47261  15.764   6.381   2.643  0.1409 -0.2028  0.0040
31793W        W47262  17.757  14.531  11.761 -0.0132 -0.0762  0.0739
31794W        W47263  13.994  16.933  12.394 -0.1318  0.0319 -0.1521
31795W        W47264  13.698   4.334  12.064  0.1429 -0.1009 -0.0508
31796W        W47265  11.523  10.900   0.040 -0.2743  0.0581  0.0243
31797W        W47266   4.945   9.173  12.301  0.0687  0.1749  0.2013
31798W        W47267  14.263   5.963   4.744  0.0118 -0.0704  0.2683
31799W        W47268  15.914   2.297  15.159 -0.1689  0.1534  0.1497
31800W        W47269   2.639  15.271  15.981 -0.1753  0.1913  0.1723
31801W        W47270  16.052   2.797  15.107  0.2068 -0.0302  0.0042
31802W        W47271  12.687   3.247   5.291  0.1239  0.0330 -0.0062
31803W        W47272  10.118   4.574  16.821 -0.2208  0.3205 -0.1344
31804W        W47273   6.251  14.680   2.582 -0.0012 -0.0108 -0.2966
31805W        W47274   5.378   0.814   1.944  0.3119 -0.0982 -0.3819
31806W        W47275  12.278  14.366  15.239  0.0438 -0.1531  0.0700
31807W        W47276   4.713   4.212  11.031 -0.2424 -0.0110  0.0398
31808W        W47277   3.773  15.509   6.156  0.0532 -0.0507 -0.0116
31809W        W47278  13.036  13.554  13.161  0.1121  0.4204  0.1262
31810W        W47279  11.089  10.586  16.008  0.2523 -0.1385 -0.0459
31811W        W47280  13.625   2.614   2.393 -0.0207 -0.2800  0.2609
31812W        W47281   4.389   4.330   2.222  0.0647  0.1161  0.2138
31813W        W47282  10.129  17.734  16.365  0.2649  0.1114  0.1229
31814W        W47283   8.657   5.374   2.890 -0.1222 -0.2775  0.0807
31815W        W47284   3.438  11.231  15.727  0.0260  0.1838 -0.1483
31816W        W47285   6.461  14.859   1.215 -0.1423  0.1138 -0.0373
31817W        W47286  12.469   9.940   1.274 -0.0201  0.0205  0.0398
31818W        W47287   0.442   0.114  15.188 -0.0348 -0.2922 -0.1059
31819W        W47288   4.974   1.683   0.899  0.0358 -0.0714  0.0200
31820W        W47289  16.199   0.980  14.819 -0.0224 -0.0632  0.0754
31821W        W47290   6.795   2.161  13.907  0.2541 -0.1464 -0.0052
31822W        W47291   3.922   1.655  13.641  0.0432 -0.1548 -0.1215
31823W        W47292   8.340   2.815   0.267 -0.1169 -0.0013  0.1511
31824W        W47293   7.147   7.424  12.494 -0.2018 -0.0083 -0.0270
31825W        W47294   7.667   3.964   4.260  0.1343 -0.0458 -0.1513
31826W        W47295   0.940  12.392  11.481 -0.2492  0.1043 -0.0333
31827W        W47296   5.598   5.023   3.889  0.0029  0.3022 -0.0205
31828W        W47297  12.855   7.455   2.260 -0.0441  0.2523 -0.2020
31829W        W47298  14.505  12.127   2.565  0.0748 -0.2742  0.0081
31830W        W47299   3.326  10.626   2.157 -0.0126 -0.2941  0.0024
31831W        W47300   4.837   2.777  14.243  0.1217 -0.0334 -0.1293
31832W        W47301  15.792   4.706   5.669 -0.1397  0.0610 -0.3178
31833W        W47302  13.640  14.206  14.708  0.1215 -0.1358  0.1989
31834W        W47303   7.762   4.188   2.739 -0.0973  0.0168 -0.0903
31835W        W47304   5.857   4.970  13.396  0.2222  0.1351  0.0311
31836W        W47305  17.726  14.743  15.061 -0.2100  0.0156  0.1215
31837W        W47306   0.243  12.536  14.487 -0.0108  0.1112 -0.1274
31838W        W47307  16.362   5.419  16.669 -0.3326 -0.2081  0.0807
31839W        W47308   8.987   1.746  12.634 -0.2658  0.0435  0.3237
31840W        W47309  16.582  16.033  14.560 -0.1160 -0.0658  0.0914
31841W        W47310   3.176  13.506   5.880  0.0050 -0.1726 -0.0259
31842W        W47311   1.141  17.187  15.368 -0.0194  0.0970 -0.1113
31843W        W47312  10.876   6.843   3.596 -0.0601 -0.1214  0.1710
31844W        W47313  13.811   4.278  14.676  0.5329  0.0478  0.0250
31845W        W47314  11.690  15.283   5.748 -0.1859 -0.2643 -0.1291
31846W        W47315  10.805   7.658  15.851 -0.0478 -0.2943 -0.0005
31847W        W47316   6.917  15.813   5.102 -0.0942 -0.1353 -0.0331
31848W        W47317  10.772  16.515   2.815  0.3101 -0.2640 -0.1884
31849W        W47318   1.326   3.715  13.535 -0.1751 -0.0332 -0.1920
31850W        W47319  12.857  14.947  15.843 -0.2600  0.0011  0.1276
31851W        W47320  10.696  10.063  11.238 -0.1234  0.0203  0.0786
31852W        W47321  10.769  10.687  14.027 -0.1246  0.2893 -0.2947
31853W        W47322   6.925   5.281   1.978  0.1973  0.2402 -0.2808
31854W        W47323  12.641  15.055  12.366  0.0497 -0.3472 -0.0783
31855W        W47324   6.436   7.736   0.077 -0.1915 -0.2155 -0.0686
31856W        W47325   0.913  16.152   3.891  0.0632  0.0196  0.0674
31857W        W47326  15.746  11.309   4.399  0.1068  0.0097  0.1616
31858W        W47327  14.844   6.489  12.185 -0.4622  0.2405 -0.0367
31859W        W47328  10.427   1.583   1.221  0.1555 -0.3472  0.3794
31860W        W47329   6.025   2.270   5.037 -0.1532  0.1215  0.4474
31861W        W47330  15.756  15.405  13.167  0.0186 -0.1585 -0.3023
31862W        W47331  11.449  14.355   1.838 -0.3882 -0.1681  0.1083
31863W        W47332  11.424   5.820   0.392  0.0315  0.0074 -0.2332
31864W        W47333  16.509   4.323  16.737  0.0316  0.0839 -0.2782
31865W        W47334   4.265   4.128  12.613 -0.1931  0.0765 -0.1514
31866W        W47335   3.744   6.035   0.325  0.5789  0.0224 -0.2702
31867W        W47336   3.707   4.621   4.496  0.1662  0.5097 -0.1252
31868W        W47337  12.014   5.499   5.615 -0.0566  0.0258  0.0224
31869W        W47338   2.049  10.000  12.983  0.0412  0.1132  0.1087
31870W        W47339   1.103   3.766  12.703 -0.0596  0.2402 -0.0159
31871W        W47340  16.530   8.906  12.646  0.2040  0.2092  0.0114
31872W        W47341  11.658   3.755   1.251 -0.0577 -0.2047  0.1592
31873W        W47342   3.355  12.121   1.120 -0.0226 -0.1064  0.0802
31874W        W47343   3.074   1.469  11.861  0.0053 -0.2321 -0.0855
31875W        W47344  14.293   6.836   4.448 -0.1557 -0.2253 -0.2632
31876W        W47345   3.586  10.202   0.035 -0.0102 -0.0295 -0.1014
31877W        W47346  10.472  13.877   3.311 -0.0755  0.0179 -0.2282
31878W        W47347   6.986   9.883   4.974 -0.0951 -0.0036  0.1988
31879W        W47348   7.669   1.651   3.434 -0.0709 -0.0377 -0.0981
31880W        W47349  16.873   1.598  14.590 -0.0018 -0.2434  0.2353
31881W        W47350  17.623  17.323   0.047 -0.0971  0.0414 -0.2867
31882W        W47351   1.462  10.572  16.821  0.1259 -0.1746 -0.1800
31883W        W47352   6.907   0.803  15.896  0.2965 -0.0053  0.0835
31884W        W47353  11.057   9.549   1.596 -0.0569  0.2092 -0.0099
31885W        W47354  11.731  12.725   0.713  0.3397 -0.1186 -0.1403
31886W        W47355   5.656  12.193   1.829  0.0096 -0.0808  0.0984
31887W        W47356  11.742  13.763   0.297  0.6188 -0.0591 -0.0890
31888W        W47357  14.949  10.523  11.322 -0.2978 -0.0215 -0.0718
31889W        W47358  15.792  10.260  14.935 -0.3040 -0.2009 -0.0731
31890W        W47359  14.726  14.963  13.934 -0.1685  0.1264  0.2471
31891W        W47360   6.621   8.106  14.118  0.1747 -0.1964 -0.1466
31892W        W47361   9.460   6.717  12.363 -0.0754  0.1918  0.2843
31893W        W47362   6.155   7.144  11.415  0.0002 -0.3237  0.2602
31894W        W47363  14.489  15.017  13.253 -0.1645  0.2015  0.0842
31895W        W47364   7.592   3.039  16.062  0.0594 -0.0498  0.2663
31896W        W47365  13.666   5.742  16.796  0.1082  0.2480  0.1312
31897W        W47366   3.924   8.998   1.591 -0.0896  0.0617 -0.1536
31898W        W47367  14.049  14.108   2.319 -0.0836 -0.1076  0.2438
31899W        W47368   3.522   7.265  15.040  0.0746  0.2745  0.3061
31900W        W47369   9.863   6.440   5.223  0.2176 -0.0795 -0.1007
31901W        W47370   1.915   0.655   3.833 -0.2169 -0.1813  0.1470
31902W        W47371  15.740  12.925   3.521 -0.0844  0.0435 -0.0262
31903W        W47372  13.089   2.093   0.690 -0.2336 -0.0338  0.2401
31904W        W47373  13.458  10.014  15.254 -0.0630  0.4988 -0.2156
31905W        W47374  15.247   3.033  15.880  0.0970 -0.0731 -0.0635
31906W        W47375   7.613  16.474   2.699 -0.1877  0.0484  0.0499
31907W        W47376   4.646   5.236  16.247 -0.1926 -0.1357 -0.0921
31908W        W47377   1.433   7.058  12.863 -0.1136  0.0144 -0.3824
31909W        W47378  10.935  16.373  12.196  0.1869  0.1904 -0.2138
31910W        W47379  16.523   4.324   4.551 -0.0208  0.0749  0.0140
31911W        W47380   2.883   3.191   3.242  0.0710 -0.0235  0.1984
31912W        W47381  13.881   9.712   3.722 -0.3374 -0.4071  0.0634
31913W        W47382  16.877  16.252   3.283 -0.0094 -0.0374  0.0820
31914W        W47383   2.594   9.876  13.659  0.0618  0.0206 -0.1283
31915W        W47384  10.795  10.245  14.888  0.0011  0.0980 -0.1813
31916W        W47385  11.139   7.074  11.386  0.1033 -0.1334  0.0106
31917W        W47386   2.062   5.495   2.038 -0.0238  0.3089  0.2272
31918W        W47387  13.455   9.975   4.924 -0.0737  0.0064  0.2362
31919W        W47388   2.112  11.954  12.706 -0.0556  0.0092  0.1625
31920W        W47389   7.975  12.907   1.812  0.2600  0.5175 -0.0832
31921W        W47390  10.908   3.363  13.172 -0.1859  0.0627  0.2123
31922W        W47391  16.001   6.046   4.191  0.0350 -0.2752  0.0187
31923W        W47392  13.696   0.722   5.656 -0.1600  0.2599 -0.3999
31924W        W47393  12.499  16.179   0.183 -0.1149 -0.1159 -0.1245
31925W        W47394  14.158   8.882   4.969  0.0901 -0.0438 -0.2062
31926W        W47395  11.700   9.434  16.110  0.1718 -0.2524 -0.2015
31927W        W47396  15.609  14.144   4.947  0.0208 -0.0455 -0.1235
31928W        W47397   9.080  17.509   5.360  0.0800 -0.0676  0.0743
31929W        W47398   9.975   0.912  12.151 -0.0792  0.1741 -0.0480
31930W        W47399  14.873  16.843   5.964  0.1915  0.0492  0.2549
31931W        W47400   2.101  10.863  16.297  0.2149  0.1523 -0.0070
31932W        W47401   1.723   7.092  16.124 -0.1261  0.0573  0.1466
31933W        W47402  14.469  10.372   2.749 -0.1895 -0.2248 -0.0996
31934W        W47403  13.985  11.827   3.813 -0.2702 -0.0272 -0.2893
31935W        W47404   2.889   2.126  16.558 -0.0290  0.2464  0.2103
31936W        W47405   7.202   6.529  16.476  0.0759  0.0730  0.0742
31937W        W47406   9.827   0.591  12.632 -0.0056 -0.4951 -0.1481
31938W        W47407   8.207  16.692   2.734  0.1125  0.2195  0.0290
31939W        W47408  16.659  16.469  12.541  0.0161 -0.0350 -0.0470
31940W        W47409   7.428  13.745  12.691 -0.1399  0.0368  0.1532
31941W        W47410  11.279  15.146  13.992  0.1289  0.0537  0.0163
31942W        W47411  13.438   8.867  15.929 -0.2247 -0.3213  0.0838
31943W        W47412   9.685   0.021  14.178 -0.2587 -0.1895  0.0535
31944W        W47413  17.014   5.400  13.863 -0.0451 -0.1167  0.0422
31945W        W47414  11.211  13.908   1.987 -0.0429 -0.1937 -0.0764
31946W        W47415   9.754   5.214  12.782 -0.0376  0.2766 -0.3381
31947W        W47416   3.180   4.625   4.360 -0.1003 -0.0369 -0.0309
31948W        W47417  15.461   4.107   0.097 -0.0244 -0.1308  0.2211
31949W        W47418   3.387   5.330   5.409  0.0573  0.2534  0.0309
31950W        W47419  13.610   9.391  14.468 -0.0772  0.0604 -0.0321
31951W        W47420  16.727   4.799   4.733 -0.1963  0.0137 -0.0915
31952W        W47421  11.444   3.915  14.477  0.2562 -0.0637  0.3963
31953W        W47422   4.938  13.135  12.032 -0.2686 -0.3454 -0.2567
31954W        W47423   8.202   8.598   0.115  0.1849  0.2057 -0.0337
31955W        W47424   5.902   9.332   0.944  0.1050  0.2228 -0.3740
31956W        W47425  13.153  11.515  12.729 -0.1997  0.0293  0.0462
31957W        W47426  13.651   1.397  15.973 -0.0817 -0.1585  0.2400
31958W        W47427   3.397   8.877   3.104 -0.2802  0.0341 -0.1795
31959W        W47428   1.809   4.392  13.073  0.0060 -0.1041  0.1026
31960W        W47429   6.000  15.985   2.729 -0.2539  0.0910  0.4309
31961W        W47430   6.166   8.022  15.967 -0.0478  0.0973  0.1471
31962W        W47431  11.072   6.646  15.145 -0.1089  0.2104 -0.2184
31963W        W47432  13.127   3.014  15.715  0.1315 -0.1436 -0.1429
31964W        W47433   8.734  16.257   3.903 -0.1941  0.2460 -0.2006
31965W        W47434  17.026   3.591  14.559  0.0221 -0.1081 -0.0018
31966W        W47435   2.572  11.906  15.072  0.1571  0.1172  0.0022
31967W        W47436   0.107  17.482  14.812  0.0711 -0.0763  0.0639
31968W        W47437  15.321   6.689  15.235 -0.0084 -0.0706  0.0213
31969W        W47438  17.235   1.106  13.872 -0.0430  0.0630  0.1081
31970W        W47439  11.216  13.786   6.355  0.1569 -0.1657 -0.0147
31971W        W47440  12.673   2.351   5.976 -0.0644 -0.1619  0.2066
31972W        W47441   1.667   0.891   0.935  0.0925 -0.2404 -0.0618
31973W        W47442   9.779   5.422  12.319  0.1537  0.4505 -0.0811
31974W        W47443   3.695  12.308   1.516 -0.0646  0.0973 -0.0658
31975W        W47444   7.690   2.732   1.320 -0.0915 -0.0361 -0.0843
31976W        W47445   6.786  14.313   4.992 -0.0738  0.0292  0.3554
31977W        W47446   7.263  15.469   0.361  0.2057  0.0082 -0.0557
31978W        W47447   5.203   4.764  15.001  0.2060  0.0833 -0.1231
31979W        W47448   3.382   7.369   5.117 -0.0627  0.0799 -0.1804
31980W        W47449   4.514   5.714  15.119  0.0051  0.0683  0.0448
31981W        W47450  12.794  16.912   5.765  0.0074  0.0177 -0.0613
31982W        W47451   9.796  12.544  12.408 -0.2861 -0.0325 -0.0493
31983W        W47452   3.933  11.830   5.906  0.0824  0.0153 -0.0557
31984W        W47453   9.505   4.217  14.340 -0.2397  0.1635  0.0570
31985W        W47454   9.819  17.048   4.573 -0.3063  0.0923  0.0358
31986W        W47455  12.144   7.139  14.299  0.1761  0.2157 -0.0117
31987W        W47456  11.572   1.780   6.066  0.0375 -0.3143 -0.3876
31988W        W47457   7.604  13.614  15.277  0.4721  0.2361 -0.0500
31989W        W47458   5.561   0.573   5.598 -0.1993 -0.0592  0.0674
31990W        W47459   6.492   1.692   3.122  0.0219  0.0289  0.1424
31991W        W47460   9.135  17.102  15.403  0.5009 -0.0866 -0.0434
31992W        W47461   8.996   1.274  11.888 -0.1295  0.1657  0.0061
31993W        W47462   8.654   4.154   0.873  0.2102  0.1590  0.0876
31994W        W47463  17.066   0.422   3.493 -0.0363 -0.3298  0.1970
31995W        W47464  13.492  12.455  12.178 -0.0617  0.3408  0.2909
31996W        W47465   0.717   5.374  12.362  0.0985 -0.2313 -0.1014
31997W        W47466  17.580  11.885  15.805 -0.1885 -0.1611  0.1970
31998W        W47467  10.623  13.304   4.561 -0.0844 -0.2258  0.1490
31999W        W47468  10.258  10.940   2.967 -0.0541  0.0373  0.1523
32000W        W47469   9.885   8.552  16.179 -0.0596  0.2412  0.0463
32001W        W47470   5.594  11.349   3.251  0.3054 -0.0739  0.1096
32002W        W47471  10.295  11.074   0.441  0.3091  0.1048 -0.1259
32003W        W47472   2.561   5.276  16.715  0.0120 -0.0161 -0.3154
32004W        W47473   1.574  12.512   2.152 -0.0968 -0.2286 -0.2700
32005W        W47474  11.743   3.251  15.448 -0.2141  0.1357  0.1766
32006W        W47475   8.359  11.377  15.069 -0.4672  0.3123  0.1574
32007W        W47476   3.941  14.537  12.511  0.1831  0.1986  0.0964
32008W        W47477   4.139   3.091   4.788 -0.0135 -0.0609  0.0713
32009W        W47478  11.026  10.442   4.249 -0.1810  0.2562  0.3426
32010W        W47479  11.555  15.319   1.362 -0.0424  0.0488  0.0951
32011W        W47480   2.344   3.184  16.009  0.2871 -0.4529 -0.1239
32012W        W47481   6.637   9.302   0.052 -0.1475  0.1417  0.0368
32013W        W47482   2.029   8.864  15.054 -0.1042 -0.0199 -0.1382
32014W        W47483   3.739  13.968  13.653 -0.0540  0.0886  0.0256
32015W        W47484   5.168   8.570  14.711 -0.0866 -0.1830 -0.3282
32016W        W47485   7.408  12.743  15.254 -0.0541  0.0216 -0.0916
32017W        W47486   1.724  11.968  13.559 -0.0195  0.1296 -0.2298
32018W        W47487   4.516   5.291  13.351  0.1838 -0.3218 -0.2350
32019W        W47488   8.450   4.636   2.367 -0.5442  0.3099 -0.1718
32020W        W47489   5.117  13.946  15.754  0.3657  0.3190 -0.1075
32021W        W47490  15.548   1.812  12.845  0.1242 -0.0014  0.3189
32022W        W47491   0.506  13.495   0.721 -0.4044 -0.0464  0.0526
32023W        W47492  17.572   2.908  14.000 -0.0333 -0.3955 -0.3255
32024W        W47493   0.456   5.488  11.142 -0.2946 -0.3279  0.2269
32025W        W47494   7.471   6.527  11.896  0.1270 -0.1282 -0.0776
32026W        W47495  11.647   5.934  12.086  0.0980  0.1860 -0.0796
32027W        W47496   6.000  14.013   1.418 -0.0204  0.3218  0.2853
32028W        W47497   7.480   5.341  12.544 -0.2156  0.1222  0.5539
32029W        W47498   6.350   2.744   3.073 -0.2270 -0.0382  0.1864
32030W        W47499   2.269   2.528   3.649 -0.0449  0.0908 -0.2731
32031W        W47500  16.919  14.349  15.335  0.0557  0.0364 -0.0765
32032W        W47501   2.891   6.709   1.113 -0.0264  0.0438 -0.1991
32033W        W47502   2.371   7.768  13.865 -0.0286  0.1952  0.0225
32034W        W47503  16.537  17.160   2.246  0.1056 -0.0783 -0.0506
32035W        W47504   8.175   1.977   5.663 -0.2298 -0.2368 -0.0351
32036W        W47505  11.396  13.332  16.548 -0.0224 -0.0316 -0.1594
32037W        W47506   2.703   9.704   4.704  0.0227 -0.2432  0.0718
32038W        W47507   2.096   0.682  14.136 -0.0214  0.1214  0.4086
32039W        W47508   3.380   5.214   0.080  0.0606  0.0390 -0.2131
32040W        W47509   0.404  15.903   3.782 -0.1930  0.1326 -0.3355
32041W        W47510   2.510  17.534  11.580 -0.1250  0.1886 -0.1015
32042W        W47511   4.849   3.017   5.346 -0.1456 -0.2123 -0.1601
32043W        W47512  16.029   1.554   1.945 -0.0578 -0.0598  0.2024
32044W        W47513  11.235  15.913  11.672  0.0206  0.0240  0.0884
32045W        W47514   3.952   0.847   5.565 -0.0830 -0.0745  0.0277
32046W        W47515   0.724  11.090   0.368 -0.0317 -0.3439 -0.0713
32047W        W47516  12.024  13.938   5.690  0.0438 -0.0478 -0.1758
32048W        W47517   6.239   5.661   6.051  0.1218 -0.1842  0.2484
32049W        W47518   9.418  10.113   0.704  0.0620 -0.1060 -0.2677
32050W        W47519   1.959   0.470  13.080 -0.1531 -0.0144 -0.4942
32051W        W47520  17.556   9.714   2.985 -0.1713 -0.0238 -0.0268
32052W        W47521  10.529   7.048   4.896 -0.0507  0.3065 -0.2515
32053W        W47522  16.903  13.544  16.277  0.0463  0.0687 -0.1726
32054W        W47523  14.035  16.552   1.998  0.0802 -0.0769  0.3129
32055W        W47524   6.123   8.474  10.585  0.0039  0.4510  0.2849
32056W        W47525  17.641   2.855   0.688  0.0688 -0.1976 -0.0586
32057W        W47526   6.452   0.370   4.828  0.1751 -0.0621  0.0708
32058W        W47527  15.412   4.285   5.228  0.1009 -0.0640  0.1390
32059W        W47528  17.223   5.968  16.413 -0.2391  0.2685 -0.0048
32060W        W47529   7.543  15.467   2.239 -0.2080  0.0671 -0.2292
32061W        W47530   9.361  13.516  15.814  0.1525  0.1102 -0.0247
32062W        W47531  10.682  10.740  12.768 -0.1975 -0.0754  0.1987
32063W        W47532  12.599   4.869   1.374  0.2744 -0.0247 -0.0792
32064W        W47533   8.671   7.482  12.264  0.0562 -0.3051 -0.0999
32065W        W47534   9.741   3.342   0.582  0.1999  0.0181  0.1259
32066W        W47535  13.508  12.032  12.020  0.2616 -0.0663 -0.3575
32067W        W47536  11.132   7.424   1.492 -0.1656  0.0650  0.0509
32068W        W47537   2.949  13.066   0.873 -0.1910  0.0041 -0.0620
32069W        W47538   1.523   9.897   4.163 -0.2655 -0.1344 -0.0901
32070W        W47539   3.881   7.125  13.019  0.2788 -0.0490  0.1223
32071W        W47540   1.461   5.694   0.822  0.3321 -0.0201 -0.2538
32072W        W47541   5.238  12.804  14.570  0.1296  0.0922  0.1820
32073W        W47542   8.704  17.465  12.422  0.0057 -0.0732 -0.2847
32074W        W47543   7.642   2.710   4.883  0.1355 -0.0829 -0.2306
32075W        W47544  16.396  14.311  15.332  0.0851  0.3429  0.1185
32076W        W47545  10.768   4.226  13.946  0.0652  0.2892  0.3459
32077W        W47546   0.520  16.041   3.295 -0.0964  0.2909 -0.1708
32078W        W47547  12.892   9.944   1.669  0.2725 -0.1709 -0.1110
32079W        W47548  13.077  11.687  15.081 -0.3399  0.1198  0.3296
32080W        W47549  14.453  17.039   6.115 -0.0015 -0.0522  0.4509
32081W        W47550   2.378   7.998  12.115  0.2403  0.1521  0.0748
32082W        W47551   1.834  10.964  12.004 -0.0233  0.0795 -0.2074
32083W        W47552   2.335   9.846   3.317  0.1093  0.0309  0.0869
32084W        W47553   9.306   8.212  15.297  0.2688 -0.2551 -0.0378
32085W        W47554   6.054   3.453   5.566  0.0212 -0.2532  0.1359
32086W        W47555   6.869  17.491  13.140  0.1384 -0.0290  0.1116
32087W        W47556   8.528   6.048   0.582 -0.0063  0.0108 -0.2358
32088W        W47557  14.977   5.389  14.873  0.0118  0.0309 -0.2465
32089W        W47558  16.991   0.876   2.356 -0.1147 -0.0995 -0.0394
32090W        W47559   7.329   6.211   6.119  0.2135 -0.0544  0.2012
32091W        W47560  12.550   1.829  15.016 -0.4802  0.2761  0.1079
32092W        W47561  11.911   8.944  11.761 -0.1182 -0.0046  0.1317
32093W        W47562   6.674  17.171   0.250  0.0196 -0.0103 -0.0751
32094W        W47563   5.501   1.504  14.981  0.1810  0.0033  0.0093
32095W        W47564   6.672   0.307  12.261  0.1604 -0.1357 -0.1522
32096W        W47565  11.849   2.270  12.023  0.3391  0.1919 -0.1592
32097W        W47566   5.853   9.070  14.446 -0.1151 -0.1639  0.0285
32098W        W47567   8.574   9.274   4.218 -0.0387  0.0342 -0.0077
32099W        W47568   0.729  13.637  14.512  0.0540 -0.3591  0.0190
32100W        W47569   8.287   1.116   0.352 -0.2597  0.0976 -0.0255
32101W        W47570   2.510  11.940  14.075 -0.0967  0.1866  0.1821
32102W        W47571   1.339   7.220  13.329  0.1063 -0.1001  0.1531
32103W        W47572   6.971   8.744   2.530 -0.2036  0.0829  0.1184
32104W        W47573  11.601  12.957   6.424 -0.1097 -0.2037 -0.0742
32105W        W47574  17.139  11.006   1.168  0.5115 -0.2991 -0.0039
32106W        W47575   6.097  15.165   2.413 -0.0770 -0.0659 -0.0086
32107W        W47576   6.187   8.649  16.372  0.0763 -0.3709 -0.1177
32108W        W47577  13.581  10.603  13.111  0.1936 -0.1316 -0.0582
32109W        W47578  15.897   4.950   0.421  0.1746  0.1581 -0.0840
32110W        W47579  12.634   3.252  14.966  0.0754 -0.2889  0.1433
32111W        W47580  10.976   9.372   2.861  0.0568  0.1546 -0.2059
32112W        W47581   0.991   2.659   2.908 -0.1462 -0.3068  0.1157
32113W        W47582   5.403   2.954   3.611  0.0478  0.1151  0.2674
32114W        W47583  16.542  11.863   4.010 -0.0746  0.0185  0.0201
32115W        W47584   1.825  12.395  14.368  0.0170  0.1076 -0.0472
32116W        W47585  15.997   0.858   4.379  0.0423  0.0068  0.3957
32117W        W47586  12.102   9.024   1.281  0.6402 -0.0140 -0.0085
32118W        W47587   4.001   4.102   4.103 -0.1720 -0.1777 -0.1048
32119W        W47588  14.036  15.333  15.303  0.0885  0.1822  0.0510
32120W        W47589  10.901  10.025  13.492  0.5001  0.1008  0.1642
32121W        W47590   0.080   2.645  15.619 -0.1377  0.2130 -0.2140
32122W        W47591  16.679  10.787  12.973  0.1729 -0.1915 -0.1304
32123W        W47592  14.658   1.319   2.296  0.1214 -0.1632 -0.1491
32124W        W47593   3.940  12.751  13.347  0.0272 -0.0494  0.0333
32125W        W47594   9.309   4.250  13.846  0.0533 -0.2162  0.3055
32126W        W47595  10.753   3.204   4.295 -0.0388  0.0010  0.0476
32127W        W47596   9.950  15.538  14.036  0.2219 -0.2034 -0.0341
32128W        W47597   3.221   9.983   3.096 -0.1538  0.1673  0.2075
32129W        W47598   7.604  15.909   3.783 -0.0774  0.1020 -0.2408
32130W        W47599  13.294   0.411   1.010 -0.1732 -0.2485 -0.0584
32131W        W47600  13.003  11.251   1.542 -0.0408  0.0219  0.0886
32132W        W47601   7.376  17.412   4.621 -0.0797  0.0531  0.3782
32133W        W47602   6.955  15.419  16.189  0.2263 -0.1378  0.0467
32134W        W47603  17.665  15.544   5.335  0.0885  0.3008  0.0666
32135W        W47604  14.189  14.055  13.153  0.2363 -0.1195 -0.0370
32136W        W47605  10.008   2.138   2.143 -0.2435  0.0734 -0.0294
32137W        W47606  15.009   6.362  13.836  0.1641  0.1262  0.1698
32138W        W47607   3.652  11.171  11.277  0.1837 -0.0942  0.1379
32139W        W47608  15.059  10.733  14.150 -0.2099 -0.1581  0.3811
32140W        W47609  12.081   9.439   4.387 -0.1429  0.2118 -0.1387
32141W        W47610   3.015  12.777  11.324 -0.0355  0.1885 -0.3016
32142W        W47611   1.027  15.604   1.666 -0.0349  0.0032 -0.2453
32143W        W47612  16.765   6.427   2.370  0.1809  0.0007  0.0195
32144W        W47613  11.596  12.242   0.824  0.0646 -0.4041 -0.0332
32145W        W47614   5.094   6.183   3.291 -0.1725 -0.0166  0.0940
32146W        W47615   1.824   9.796   3.104 -0.0866  0.0471  0.1453
32147W        W47616  15.279   2.577  15.672  0.0231  0.0390  0.4457
32148W        W47617   3.100  14.776   4.136 -0.1852 -0.0598  0.0987
32149W        W47618   1.989   1.321   2.732  0.4734 -0.0973 -0.4531
32150W        W47619  10.108   0.960   1.677 -0.1479 -0.0864  0.0287
32151W        W47620  12.005   6.334   0.646  0.2667 -0.0188  0.0909
32152W        W47621   0.235   1.951   1.135 -0.1541 -0.2976 -0.0264
32153W        W47622  16.758  16.962   5.148 -0.2642 -0.0172  0.0330
32154W        W47623   2.668  11.176   1.248 -0.0149 -0.2576  0.0329
32155W        W47624   9.356   1.375  12.525 -0.2137  0.0126  0.0189
32156W        W47625  17.614   4.004   1.079 -0.2460 -0.2309 -0.1238
32157W        W47626  11.243   4.135  14.016  0.0599 -0.0971 -0.1229
32158W        W47627   3.961  14.291   4.209 -0.1807 -0.2214  0.0265
32159W        W47628  10.854   7.992  14.998  0.1284 -0.1933  0.0372
32160W        W47629  16.471  16.761  15.244 -0.0673  0.0634  0.3220
32161W        W47630  15.864   4.137   5.581  0.1396  0.0216  0.0913
32162W        W47631  16.188  16.402  16.375  0.0716 -0.0555 -0.0257
32163W        W47632   9.135   9.602  13.346 -0.1021  0.1076  0.1278
32164W        W47633  10.637  17.753   3.017  0.1806 -0.1431 -0.3793
32165W        W47634  13.663  16.222   1.722  0.0289 -0.2042  0.1603
32166W        W47635  11.065   6.178   0.338 -0.0300  0.0596  0.0488
32167W        W47636  14.891   2.919  12.969  0.4303  0.1826 -0.0852
32168W        W47637   4.738   6.330   2.243  0.0543 -0.0273  0.0716
32169W        W47638  11.048  11.354   2.325 -0.1796 -0.0068 -0.1482
32170W        W47639  12.343   9.304   6.034  0.0763 -0.0833 -0.1638
32171W        W47640   4.810  15.143   5.146 -0.0981 -0.0315  0.0953
32172W        W47641  12.656   5.101  13.418 -0.0869  0.4611 -0.0921
32173W        W47642  16.183   5.718  12.054 -0.2592 -0.0868  0.0485
32174W        W47643   2.883   0.076   1.927  0.1755  0.0031 -0.2199
32175W        W47644   5.100   7.277   1.770  0.0272 -0.0281 -0.0894
32176W        W47645  13.487   6.074   1.728 -0.0032  0.0744  0.1546
32177W        W47646   6.489   3.672   5.519 -0.0932  0.1613 -0.0675
32178W        W47647   8.194   8.587  13.819 -0.0265 -0.1819 -0.0953
32179W        W47648  17.418   4.285   4.982 -0.2240 -0.0421  0.0713
32180W        W47649   1.678  10.562   2.925 -0.2426 -0.0827  0.0210
32181W        W47650  12.630   0.355   1.660  0.1941 -0.1056 -0.1885
32182W        W47651  16.826  10.278   1.769 -0.0093  0.1228  0.2116
32183W        W47652   3.488   9.419   0.822 -0.1168 -0.2234 -0.1194
32184W        W47653  13.956  17.438   3.745 -0.0687  0.1512 -0.1524
32185W        W47654   4.914   4.090   5.422  0.0708 -0.2710 -0.0990
32186W        W47655   5.798  13.515  12.226  0.0630  0.1393  0.1992
32187W        W47656  10.618  16.969   5.005 -0.2581 -0.0966 -0.0725
32188W        W47657   5.089   4.654  12.950  0.0156 -0.0788 -0.3118
32189W        W47658  16.900   2.180   3.912 -0.0489 -0.1592  0.3051
32190W        W47659  12.546  10.385   4.637  0.3359 -0.0784  0.1321
32191W        W47660   4.132  14.462   2.119 -0.1490  0.4342  0.0327
32192W        W47661   0.199   3.833  16.508 -0.2469  0.1110 -0.0037
32193W        W47662   8.689   0.157  16.095  0.0759 -0.4294  0.0355
32194W        W47663   0.597  10.110  14.391 -0.2849  0.1755 -0.0219
32195W        W47664  12.469   2.438   3.215  0.0623 -0.1465 -0.0352
32196W        W47665   0.864  12.014  15.204  0.1073  0.0212 -0.0437
32197W        W47666  12.134   0.067   5.067  0.3051 -0.1261  0.1100
32198W        W47667  15.635  15.824  14.506  0.1889  0.1319 -0.1364
32199W        W47668   1.998   1.841   1.218  0.1154 -0.0898 -0.1562
32200W        W47669   0.266  11.555  14.662 -0.0997  0.1796  0.4135
32201W        W47670   8.624   8.282  15.832  0.0087 -0.1375  0.0334
32202W        W47671  16.652  12.367   2.530 -0.0442 -0.2347 -0.1550
32203W        W47672  15.287   4.535  12.341  0.0735 -0.2350  0.0133
32204W        W47673  11.899  14.198  13.170  0.0577  0.1620  0.3401
32205W        W47674   7.259  14.380  11.953  0.1192 -0.2096 -0.1786
32206W        W47675   1.052  11.315  15.636  0.1250  0.3744  0.0104
32207W        W47676   2.510  14.427  14.774  0.1433  0.1033  0.0990
32208W        W47677  15.566   2.860   1.702  0.3830 -0.0128 -0.0412
32209W        W47678   4.066  16.144  11.058  0.0766 -0.1387  0.1802
32210W        W47679   9.450  10.350  11.606 -0.1909  0.2788 -0.1589
32211W        W47680   6.320   1.813  13.525  0.0183 -0.3061  0.0718
32212W        W47681  16.999   8.264  15.981 -0.1236  0.1187 -0.0758
32213W        W47682   9.593   5.302   2.368 -0.0162 -0.2652  0.0358
32214W        W47683  17.190   2.665  16.608  0.0136 -0.2410  0.1193
32215W        W47684  11.129  17.754   3.183  0.1658 -0.1612  0.0957
32216W        W47685  10.626   7.309  12.266 -0.1535  0.1279 -0.0890
32217W        W47686   6.873   2.344   5.729 -0.3393 -0.1324  0.0444
32218W        W47687  15.457   0.459   5.777  0.2122  0.1289 -0.2298
32219W        W47688  16.805   7.565  11.062  0.2290 -0.1828  0.1457
32220W        W47689  16.802  14.794   3.747 -0.4136  0.0134 -0.0948
32221W        W47690  15.257  11.909   4.159  0.1718 -0.0885 -0.2440
32222W        W47691  12.589   5.411  14.439 -0.1759  0.0304 -0.4458
32223W        W47692  14.195  17.323   5.012 -0.1402 -0.3421 -0.1325
32224W        W47693   1.987  15.583  13.853 -0.1100 -0.1455  0.1264
32225W        W47694   1.151  16.536   0.235  0.1510 -0.3252 -0.3456
32226W        W47695   0.681  11.980   0.255 -0.2437 -0.0108 -0.3348
32227W        W47696   0.707   6.065   1.536 -0.0948  0.0733 -0.0944
32228W        W47697   0.166   9.687  16.776 -0.1000  0.1361 -0.2954
32229W        W47698   8.048  13.794   5.203 -0.0394 -0.0508  0.1331
32230W        W47699  14.675   6.415  12.710  0.0549 -0.2266 -0.0475
32231W        W47700  17.263  13.395   2.492  0.0538  0.3739  0.1043
32232W        W47701   4.566  14.014   1.858  0.1040  0.0357  0.1881
32233W        W47702   7.853  17.650   4.353  0.1338 -0.0922  0.1651
32234W        W47703  16.252   7.619   5.319 -0.0870  0.0325 -0.1538
32235W        W47704   3.325   8.572   0.342 -0.0158  0.1227 -0.1251
32236W        W47705   3.596   8.155   5.499  0.1055 -0.0432  0.0091
32237W        W47706   2.107   7.935   5.665 -0.0722  0.0294  0.1151
32238W        W47707  17.300   5.448   1.184 -0.1662  0.0078  0.2723
32239W        W47708   4.299   5.427   0.965  0.1617 -0.0585 -0.0216
32240W        W47709  15.685   5.967  12.184 -0.0894 -0.0449  0.1655
32241W        W47710  11.477   6.177   2.199 -0.1509 -0.2904 -0.2637
32242W        W47711   9.572   1.031   1.504 -0.1087 -0.2268  0.1690
32243W        W47712   5.331   3.519  15.359  0.0447 -0.1768  0.0894
32244W        W47713   9.767  16.218   1.358 -0.0455  0.0964  0.0123
32245W        W47714   0.219   6.825  12.776 -0.3327 -0.0242 -0.1154
32246W        W47715   3.310   0.866   2.590 -0.0689 -0.2130  0.1133
32247W        W47716  15.162  12.307   0.700  0.1113  0.0453  0.5089
32248W        W47717  15.981   6.868   1.895 -0.1560 -0.1817  0.0013
32249W        W47718   9.007   6.646   6.130 -0.0135  0.4322  0.0444
32250W        W47719   2.964   6.633   4.855 -0.0581 -0.2188 -0.3230
32251W        W47720   3.345   5.209   1.389 -0.1553 -0.2070  0.2748
32252W        W47721  10.429  14.178  13.103  0.0738 -0.0430 -0.1008
32253W        W47722  12.925   9.579   5.677  0.1408 -0.1985 -0.0544
32254W        W47723  13.127   3.121   3.861 -0.2845 -0.0689 -0.2961
32255W        W47724   8.539  12.551   4.886 -0.2323  0.2878  0.0239
32256W        W47725   3.115  13.064  16.734 -0.1251 -0.2120 -0.0459
32257W        W47726  11.318  13.443  15.580 -0.1151 -0.0080  0.0281
32258W        W47727   0.216  15.605   3.378 -0.0396  0.0833 -0.0168
32259W        W47728   9.492  10.749   2.030 -0.0339  0.1033 -0.0349
32260W        W47729  10.534   8.021  11.526  0.1012 -0.0825  0.1825
32261W        W47730   7.276  13.807   3.499  0.1460  0.4997  0.0165
32262W        W47731   7.107  11.076   0.159  0.0241 -0.0661 -0.1652
32263W        W47732  11.887   9.480  11.718 -0.3270 -0.2641 -0.1772
32264W        W47733  13.923   0.451  14.191 -0.3247 -0.1559  0.1618
32265W        W47734   3.889  11.593   2.942  0.1377 -0.2683  0.1054
32266W        W47735  13.481   0.879   3.376  0.1833  0.0672  0.0479
32267W        W47736   8.862   4.775  15.634 -0.0401  0.1065  0.0433
32268W        W47737   2.068   5.174   1.400 -0.0331  0.3918  0.3172
32269W        W47738   8.617  16.881  11.095 -0.1020 -0.0711  0.0300
32270W        W47739  11.248  16.544   2.496  0.1103 -0.0436  0.1333
32271W        W47740  15.957  14.352  16.730  0.1325 -0.0086 -0.1332
32272W        W47741   5.953   0.411   4.712 -0.0344 -0.1087 -0.0070
32273W        W47742  10.308   3.064   2.162 -0.1314 -0.0953  0.2770
32274W        W47743   3.686   7.300   3.589 -0.0700 -0.0726  0.2518
32275W        W47744  17.022   4.460  16.675  0.1798 -0.1958  0.0422
32276W        W47745   7.692   0.428  12.794  0.2248  0.0156 -0.0377
32277W        W47746  12.864   0.067  10.636 -0.1799 -0.1122  0.2048
32278W        W47747   6.556   8.885  13.238  0.0466  0.0967  0.1638
32279W        W47748  14.033   2.153  15.311 -0.0309 -0.0815  0.1267
32280W        W47749  16.801   9.328  14.969  0.1332 -0.1352 -0.0531
32281W        W47750  14.774  16.768  12.171 -0.2649 -0.1126 -0.0750
32282W        W47751   0.144   8.576  11.959  0.1180 -0.0121 -0.3117
32283W        W47752  12.481   8.053   3.674 -0.0116  0.1615  0.0335
32284W        W47753  17.051  11.375  15.417 -0.0751 -0.0830 -0.1865
32285W        W47754  15.637  16.841   5.326 -0.0090  0.0133  0.0063
32286W        W47755  17.363   9.326  11.429  0.0093 -0.1282 -0.0385
32287W        W47756  12.773   1.708   1.853  0.0431 -0.0519  0.2353
32288W        W47757   3.232  16.851  11.671  0.1746 -0.3175  0.1407
32289W        W47758   5.807  15.856   6.240  0.1594  0.4031  0.0114
32290W        W47759   3.011  14.546   3.583  0.1732 -0.1045  0.0509
32291W        W47760   7.605   1.695   0.019 -0.0680  0.1778  0.0104
32292W        W47761   2.062  10.006   3.685  0.1121  0.3074 -0.1835
32293W        W47762  13.139   0.619  12.354  0.2386 -0.0690 -0.2141
32294W        W47763   4.040  13.455  15.771 -0.2347  0.1044  0.5127
32295W        W47764   4.270   3.099  16.050 -0.1927  0.1297  0.3186
32296W        W47765  14.601   6.658   4.784  0.0070  0.3019 -0.0054
32297W        W47766   7.111   4.803  15.175 -0.1160  0.1962  0.1411
32298W        W47767   7.755   4.479  12.374  0.0982  0.1135  0.0436
32299W        W47768   8.630   7.428  13.122  0.0209 -0.0616 -0.1524
32300W        W47769  16.208  13.884   0.334  0.0625  0.1919  0.1538
32301W        W47770   6.018  12.327  16.015  0.1910 -0.1459 -0.0094
32302W        W47771  16.041  11.514   1.422  0.1496 -0.0243  0.1060
32303W        W47772   3.806   2.917  14.294  0.0057 -0.3152 -0.0621
32304W        W47773  16.828  15.482  14.741 -0.0201  0.1644  0.1951
32305W        W47774   4.917  13.447  15.876 -0.2333 -0.0664 -0.0513
32306W        W47775   5.749   8.830  13.891  0.0218 -0.0946 -0.1987
32307W        W47776   0.946   2.609   4.371 -0.2224  0.0191 -0.2767
32308W        W47777   1.676   6.967  14.548  0.0356 -0.0743  0.2347
32309W        W47778   1.986   1.775  14.532  0.1474 -0.0088 -0.1260
32310W        W47779   3.976  16.225   3.605 -0.0132 -0.2169  0.0714
32311W        W47780  11.229  16.873  13.896 -0.2331 -0.1828  0.1152
32312W        W47781  12.455   5.899   4.998  0.1486  0.3987  0.0522
32313W        W47782  14.748  15.754   2.118  0.0637  0.0547 -0.2515
32314W        W47783   2.603   4.742   5.894 -0.4318 -0.2503 -0.0321
32315W        W47784   8.327   9.915   0.445  0.2365  0.2029  0.3241
32316W        W47785   5.018  16.003   6.206  0.0166 -0.1758 -0.1469
32317W        W47786   5.074   2.276  15.618 -0.1214 -0.3674 -0.1204
32318W        W47787   3.875   8.279  16.677  0.1444  0.0118 -0.2010
32319W        W47788   4.438  15.217   0.420 -0.1450 -0.2298  0.1741
32320W        W47789  12.095   0.158  12.836 -0.0371 -0.2006  0.0910
32321W        W47790  13.811   8.457   3.551  0.2031 -0.1225 -0.1175
32322W        W47791  11.661  17.475   5.579  0.0036  0.1682  0.1860
32323W        W47792  11.409   7.450   3.834 -0.1311 -0.0126 -0.2319
32324W        W47793   0.624  16.956   6.027 -0.1462 -0.2055 -0.0940
32325W        W47794   4.945  15.791  14.234  0.0951 -0.1516 -0.0075
32326W        W47795   7.832  13.065  14.519  0.2099  0.0386 -0.2373
32327W        W47796   1.737  10.401  12.669  0.1798 -0.2592  0.1874
32328W        W47797   5.508   4.431  13.591  0.2262  0.0369  0.1676
32329W        W47798  10.967   7.776  16.309  0.1974  0.3063 -0.1742
32330W        W47799  11.388   8.111  16.783  0.0918 -0.3984 -0.2108
32331W        W47800   0.740   3.093  15.517  0.0172  0.0335  0.1333
32332W        W47801  10.217  16.093  14.489  0.1353  0.1007 -0.1440
32333W        W47802   4.949   1.585   5.214 -0.0505 -0.0466  0.2243
32334W        W47803   0.012  15.469  11.581 -0.0348 -0.2073 -0.2578
32335W        W47804   1.526   1.685   1.346 -0.2626  0.1607 -0.0361
32336W        W47805   5.041   0.747   2.315 -0.0102 -0.2247  0.2899
32337W        W47806   1.321   4.644   0.941 -0.2351 -0.2010  0.2604
32338W        W47807  10.931  15.205   2.159  0.1488 -0.0317 -0.0950
32339W        W47808   4.681   5.314   2.315  0.1658 -0.0893 -0.0914
32340W        W47809   6.246  11.190   4.350  0.1895  0.0797  0.0228
32341W        W47810  11.590  15.106  16.041 -0.3473 -0.2064  0.0894
32342W        W47811  11.648  12.069   4.659 -0.3068  0.2086 -0.1982
32343W        W47812  11.998  16.375   0.591 -0.0992 -0.3029  0.2925
32344W        W47813   1.975  16.879   2.755 -0.0294 -0.2614 -0.0046
32345W        W47814  17.567  10.692  12.973  0.3643  0.1210 -0.0525
32346W        W47815  11.587   7.347   0.658  0.1401  0.2867  0.1830
32347W        W47816  11.176  10.400   2.088 -0.0228  0.0422  0.1879
32348W        W47817   1.496   0.636  16.385  0.1113 -0.2690 -0.1357
32349W        W47818   7.309  14.392   0.810  0.3888 -0.0645 -0.3969
32350W        W47819  13.129   7.198  13.740 -0.1870 -0.0849  0.0930
32351W        W47820   2.286   9.027  12.577 -0.2918 -0.0017 -0.0665
32352W        W47821  17.109   6.135   4.304 -0.1848  0.1072 -0.0955
32353W        W47822  11.884   8.679   5.829 -0.1323 -0.0138  0.2522
32354W        W47823  12.948  12.660   4.359 -0.2037  0.1093 -0.2196
32355W        W47824   1.710   0.316   0.685 -0.0758  0.2576 -0.0197
32356W        W47825  14.612  12.425  16.778 -0.2466 -0.0267 -0.3743
32357W        W47826  15.277   3.885   4.852 -0.2740  0.0381 -0.1510
32358W        W47827   1.835   8.823   2.920  0.3017 -0.0023  0.3099
32359W        W47828  13.459   0.436  12.799  0.2408 -0.1430  0.0962
32360W        W47829   7.314   9.858  12.805  0.0146 -0.1151 -0.2959
32361W        W47830   3.212  12.316  14.076  0.0337 -0.2874 -0.0261
32362W        W47831  16.296  14.365  14.594 -0.2777  0.1629 -0.1009
32363W        W47832   5.790  13.609   2.978  0.0066 -0.2670 -0.0898
32364W        W47833  12.105   7.801  12.391  0.0359  0.2789  0.2881
32365W        W47834   6.256   6.919  12.733 -0.2665  0.1409 -0.0459
32366W        W47835   7.242  17.230   2.248 -0.0503 -0.0941 -0.1435
32367W        W47836  16.913   1.975   1.589  0.0333  0.1054 -0.0213
32368W        W47837   5.176   2.803  13.409  0.1038 -0.0621 -0.1973
32369W        W47838   9.501   0.134  12.115  0.0076  0.1141 -0.0697
32370W        W47839   0.049  14.607   5.504  0.0040  0.1319 -0.1502
32371W        W47840  17.574   9.871   2.517 -0.0845 -0.3217 -0.0493
32372W        W47841   6.191   3.408  14.319  0.1733  0.2731 -0.1975
32373W        W47842   5.427  11.503  15.460  0.0990 -0.1005 -0.2400
32374W        W47843   2.639   7.415   3.121 -0.2543  0.0218 -0.0603
32375W        W47844  13.712   7.613   1.693 -0.1549  0.1435 -0.1174
32376W        W47845  17.569  14.167  11.221  0.0794 -0.1834  0.0193
32377W        W47846  14.111   7.617   2.868 -0.2641 -0.1763 -0.4446
32378W        W47847   4.304   8.216   0.077 -0.1112  0.0331 -0.0476
32379W        W47848   6.095   3.088  15.149  0.4107 -0.1989 -0.0376
32380W        W47849  12.010   4.532   3.766  0.1562  0.1706 -0.2307
32381W        W47850  11.928  13.464   0.687  0.4160  0.1061  0.2561
32382W        W47851   7.912  13.688  12.867 -0.3446 -0.0464 -0.1364
32383W        W47852  11.442   6.233   0.651  0.2074  0.0465 -0.1637
32384W        W47853  14.358  10.112  16.731 -0.2099 -0.1392 -0.2844
32385W        W47854   4.567   6.185   3.451 -0.3236  0.2088  0.0758
32386W        W47855   1.084   8.300  13.382  0.0007 -0.3733  0.1331
32387W        W47856  11.020  16.762  16.032 -0.3549 -0.0379 -0.0700
32388W        W47857   2.173   9.953  16.761 -0.0238 -0.1508 -0.0261
32389W        W47858   1.938  16.308  16.006  0.0095  0.0107 -0.1569
32390W        W47859   4.346   4.995   3.859 -0.1758  0.1790  0.2189
32391W        W47860   9.014  11.359   0.171 -0.2837  0.0364  0.2304
32392W        W47861   1.734  12.476  13.782 -0.0647  0.1537 -0.1106
32393W        W47862  17.108   4.451   0.879  0.2504 -0.0290  0.0598
32394W        W47863  16.485   1.305  14.452 -0.2915 -0.1692  0.1024
32395W        W47864   3.488   2.375   3.063  0.1958  0.2427 -0.3266
32396W        W47865  10.088   3.181  12.704 -0.0844  0.1453  0.1338
32397W        W47866   1.133   0.610   3.310  0.0653  0.0404  0.1757
32398W        W47867   6.829   1.259  14.516  0.0039 -0.1427 -0.0055
32399W        W47868  15.659  12.783   1.286 -0.1531 -0.2145  0.1960
32400W        W47869  14.591   7.219   1.137 -0.2799 -0.1106 -0.1335
32401W        W47870  12.098  13.535   6.516  0.2492 -0.2399  0.0642
32402W        W47871  14.373   0.550  15.305 -0.0396  0.2586 -0.0389
32403W        W47872  13.829  16.181   2.582  0.2377  0.0082  0.4350
32404W        W47873   4.058  16.870   3.056  0.1614 -0.0266  0.1606
32405W        W47874  12.259  11.922   5.630  0.2641 -0.0339  0.2777
32406W        W47875   8.449   0.417  13.656  0.3191  0.2980 -0.0095
32407W        W47876  17.229  14.520  16.422 -0.3387  0.1932  0.2296
32408W        W47877  14.102   5.187  12.024 -0.0254 -0.4138 -0.0996
32409W        W47878   6.202  14.054   0.961  0.0521 -0.1308 -0.1999
32410W        W47879  17.690   3.420   0.013 -0.0427  0.1060 -0.2242
32411W        W47880   5.153  11.369   0.143 -0.2433  0.0568  0.4153
32412W        W47881  15.545   7.925   3.906 -0.0833  0.1157 -0.0767
32413W        W47882   7.514   3.741  15.768 -0.0098  0.1826 -0.1875
32414W        W47883  16.514   3.339   0.733  0.0370 -0.0660  0.2711
32415W        W47884   2.085   9.158  11.531  0.1022  0.0573  0.0410
32416W        W47885  16.105  11.166  11.968 -0.0387  0.2234  0.1881
32417W        W47886   3.789   9.674   0.078  0.3677 -0.0460 -0.1206
32418W        W47887  10.380   7.142   0.924 -0.0174  0.2100  0.0707
32419W        W47888   9.002   5.576   5.610  0.3435  0.0491  0.1710
32420W        W47889  13.911   9.650   0.029 -0.2196  0.1612  0.1809
32421W        W47890   6.919   3.639   5.833  0.0127 -0.0891 -0.2200
32422W        W47891   5.599  16.940   5.320 -0.0669 -0.0622 -0.0450
32423W        W47892   6.530   7.579   3.817  0.1776 -0.1262  0.4039
32424W        W47893   2.584  10.225   4.334  0.0869 -0.1955 -0.3563
32425W        W47894   6.992  14.701   3.319 -0.1916 -0.1295  0.0087
32426W        W47895  10.321   3.366  14.626  0.0391  0.3616  0.2205
32427W        W47896  16.714  17.627   5.714 -0.2370 -0.0556  0.0792
32428W        W47897   2.445   3.402   1.992  0.0454 -0.1663 -0.1043
32429W        W47898   6.791   6.231  12.387 -0.1040 -0.0211 -0.2898
32430W        W47899   2.598   4.429  14.635 -0.1848  0.0364 -0.0597
32431W        W47900   1.192   1.085  16.482  0.0851  0.0667 -0.0436
32432W        W47901   9.602   9.098  16.104 -0.4615 -0.1273  0.0550
32433W        W47902  12.392   3.535   3.030 -0.0633  0.2185 -0.0761
32434W        W47903  16.225  10.303   5.489  0.1717  0.1949 -0.1914
32435W        W47904   3.412   1.684   1.963 -0.0633  0.0746 -0.2223
32436W        W47905   0.643   2.259   0.351 -0.0163  0.0271  0.1317
32437W        W47906  12.970  15.442  15.848  0.1916 -0.3578 -0.1853
32438W        W47907  13.608   5.224   4.950  0.0908 -0.0288  0.1212
32439W        W47908   6.804  15.348  12.013  0.2060 -0.0127 -0.1402
32440W        W47909   6.289  16.772  15.839 -0.1877  0.1284  0.0928
32441W        W47910  11.749   5.763   2.435  0.1645  0.3333  0.1335
32442W        W47911   5.093  14.852   1.572 -0.2170 -0.0718 -0.0095
32443W        W47912  10.771  15.839   3.663  0.2347  0.1436 -0.3720
32444W        W47913   4.596  15.994  16.200 -0.2331  0.2216  0.1205
32445W        W47914  11.029  16.668   4.292  0.2175  0.1611 -0.0333
32446W        W47915   2.030  15.588  16.746 -0.0092 -0.1587 -0.1806
32447W        W47916   2.715  14.085   0.196 -0.2082  0.1878 -0.0489
32448W        W47917   4.042   0.674   4.052 -0.3776  0.0913 -0.3238
32449W        W47918  16.731  14.224  11.361  0.2135 -0.1464 -0.0766
32450W        W47919  13.921   0.927  16.834 -0.2607 -0.0426  0.0677
32451W        W47920  12.225  10.972   3.513  0.3103  0.0260 -0.3222
32452W        W47921  16.123  12.906   4.859 -0.1424  0.0436  0.1332
32453W        W47922   9.815   1.301   3.308 -0.3938 -0.1433  0.0863
32454W        W47923  15.164   7.902  15.399 -0.0118 -0.0908 -0.0646
32455W        W47924   8.659  14.505  11.762  0.2443 -0.1606 -0.0156
32456W        W47925  14.719  13.500  13.557  0.0437 -0.1642  0.1585
32457W        W47926  16.751   2.361   0.682 -0.2132 -0.1798  0.0654
32458W        W47927   3.201  12.539  16.061 -0.2537  0.0863 -0.0440
32459W        W47928   6.638  15.002  16.742 -0.0819  0.1178 -0.1371
32460W        W47929   1.095  11.104  12.915 -0.0618  0.1053  0.1360
32461W        W47930   1.074   3.225  12.749  0.0591  0.0158  0.3682
32462W        W47931   4.119   0.601   3.021  0.0276  0.1205  0.0052
32463W        W47932   6.456  14.093  16.031 -0.0621  0.2816  0.1477
32464W        W47933   0.239  16.309  13.633  0.0352  0.2430 -0.2321
32465W        W47934  16.794   1.594  14.105 -0.0420 -0.2039  0.4059
32466W        W47935   4.968   0.865   3.144  0.2840 -0.0534  0.0826
32467W        W47936  14.162  15.786  15.071 -0.0926  0.0040  0.1866
32468W        W47937  16.055   6.977  16.280  0.0286  0.1284 -0.3536
32469W        W47938   7.593  16.506   5.099 -0.2307  0.0360  0.0983
32470W        W47939  10.021   0.275  11.552  0.3464  0.0886  0.2289
32471W        W47940   1.875   7.625  13.733 -0.2154 -0.3601 -0.2156
32472W        W47941   9.794  16.151   2.339 -0.0142 -0.0530  0.2138
32473W        W47942   3.169  16.172   5.087 -0.1485 -0.0661  0.0386
32474W        W47943   7.962   6.365  14.775  0.2258  0.0241 -0.1173
32475W        W47944   9.441   8.360   0.120  0.2187  0.1017  0.0724
32476W        W47945  16.336   6.985   0.430  0.0175  0.0100  0.0714
32477W        W47946   6.101  13.868   2.733 -0.4021 -0.1924 -0.2876
32478W        W47947  16.873   4.499  13.536  0.1422 -0.1782 -0.1519
32479W        W47948   9.783  17.524  15.959  0.1052  0.1707  0.0301
32480W        W47949  10.667   8.438   2.942  0.2667 -0.0487 -0.0331
32481W        W47950   4.208  15.715  14.969 -0.1149 -0.1182  0.1557
32482W        W47951   2.909   3.519   2.219 -0.2044 -0.1984 -0.1065
32483W        W47952  16.863   1.663   3.907  0.2175  0.0139  0.0434
32484W        W47953  15.650   3.163  12.540  0.0994  0.1131 -0.0212
32485W        W47954   3.772  16.053  11.476 -0.1730 -0.2951  0.4702
32486W        W47955  14.391  12.211   3.137  0.0638  0.0723  0.1428
32487W        W47956  11.109  16.900  14.781 -0.0705 -0.0315 -0.0010
32488W        W47957  13.030  15.415  13.435  0.4403  0.3192 -0.3758
32489W        W47958   4.714   9.821  15.718 -0.1060  0.0423 -0.0230
32490W        W47959   0.637  14.985  11.886  0.0540 -0.2057 -0.1755
32491W        W47960   8.634   1.781  14.286  0.2056 -0.2021  0.0559
32492W        W47961   6.527  16.439  12.795  0.2095  0.1252  0.0681
32493W        W47962  15.308   0.100   2.529  0.0131 -0.2060 -0.3444
32494W        W47963  10.785   6.619  14.603 -0.1114  0.1908 -0.1464
32495W        W47964   6.799  11.418   4.540  0.0467  0.0387 -0.0746
32496W        W47965   2.933   5.044   3.391 -0.0874 -0.2994  0.1654
32497W        W47966   8.646  13.736   1.093 -0.0080 -0.1641  0.0958
32498W        W47967  13.654  13.859   4.405  0.1670 -0.2612  0.0116
32499W        W47968  16.531  10.414  12.250 -0.2614  0.1358 -0.0922
32500W        W47969  16.665   9.435  12.018  0.1606 -0.1766 -0.3618
32501W        W47970  10.224  13.477   4.071  0.0041 -0.0558  0.0252
32502W        W47971   8.889   4.368   5.078  0.0901 -0.2259  0.0024
32503W        W47972   8.469  15.936   3.579  0.0915 -0.0761  0.1865
32504W        W47973  12.021   7.941  15.690 -0.0232  0.1786 -0.1080
32505W        W47974  12.244   3.348  16.591 -0.1931 -0.0377  0.0805
32506W        W47975   0.863   9.969  12.527  0.0533 -0.2034  0.2012
32507W        W47976   3.345  16.281  12.815  0.1424  0.3515  0.2593
32508W        W47977   1.574  12.148   1.238 -0.3589 -0.0158  0.2746
32509W        W47978   4.807  14.965   4.225 -0.2716  0.1175 -0.1217
32510W        W47979   7.752  11.581  16.275  0.0827 -0.0296  0.0356
32511W        W47980   5.871  11.920   3.931  0.0895 -0.0508  0.0492
32512W        W47981   0.241   7.770  16.482  0.2049 -0.2675  0.1367
32513W        W47982  13.225  15.476   4.472 -0.1757  0.0475 -0.1600
32514W        W47983  16.822   1.014  14.165 -0.1781 -0.1706  0.0598
32515W        W47984  15.781  13.617   2.965 -0.0201  0.1288 -0.3205
32516W        W47985   7.916   3.500   4.572 -0.0543 -0.3901 -0.2066
32517W        W47986   1.197   7.925   3.670 -0.0866 -0.0703  0.0566
32518W        W47987  14.482  14.673   0.614  0.0529 -0.1295 -0.1072
32519W        W47988  12.342  14.314   5.836  0.0858  0.0401 -0.0202
32520W        W47989   3.517   9.608  16.503 -0.1324 -0.0885 -0.1069
32521W        W47990  15.698   5.020   2.439 -0.3929  0.0666 -0.2956
32522W        W47991   8.537  14.811   0.241  0.2275 -0.1259  0.3717
32523W        W47992   7.096  10.551   5.620  0.0391  0.4659  0.0587
32524W        W47993  17.647  11.544  14.202 -0.3828  0.1228 -0.2416
32525W        W47994   0.990   6.585   5.514 -0.0227  0.1261  0.0807
32526W        W47995   1.119   0.180   2.286 -0.0676  0.0275 -0.0836
32527W        W47996   6.103   8.415   0.975  0.1765  0.3258 -0.1774
32528W        W47997  14.767   9.840  11.503 -0.0007  0.0511 -0.2839
32529W        W47998  14.238  14.957   4.479  0.3172 -0.3510 -0.1469
32530W        W47999   2.241   8.043   1.281 -0.1934 -0.2393 -0.0515
32531W        W48000   8.471   6.496   2.194  0.1948 -0.1105  0.3405
32532W        W48001   4.782  14.553   3.374 -0.1598  0.2417  0.3688
32533W        W48002   7.497   8.096  12.703 -0.0665  0.2005  0.1775
32534W        W48003  12.838   6.537   4.864 -0.1659 -0.0103 -0.2546
32535W        W48004   1.339  14.525   4.127  0.0929 -0.2711 -0.2114
32536W        W48005  10.143  16.135   4.276  0.0172  0.1355 -0.0188
32537W        W48006   0.376  11.488  12.665 -0.0867 -0.0201  0.1937
32538W        W48007   6.885  12.986   0.882  0.1540  0.0528  0.0840
32539W        W48008   5.360  12.541  15.305  0.0920 -0.2667 -0.1902
32540W        W48009   4.471   9.257  15.910  0.2056  0.1563  0.0309
32541W        W48010   8.626  17.545   0.389 -0.1985  0.0535  0.3749
32542W        W48011  16.200   4.994  13.048 -0.1482  0.0599  0.0561
32543W        W48012   1.374   8.287   5.818  0.0391  0.0573  0.1391
32544W        W48013   9.092   8.738   0.374  0.1052 -0.0231  0.2483
32545W        W48014   1.368   2.986  13.112 -0.1600 -0.1135  0.1214
32546W        W48015   0.752  13.576   5.855  0.1312 -0.0365  0.2038
32547W        W48016  16.775  13.430   2.503 -0.2440  0.1459 -0.0447
32548W        W48017  14.122   0.053  13.389 -0.2169 -0.3621  0.0263
32549W        W48018  16.080  13.069  15.272 -0.1516  0.3451 -0.1348
32550W        W48019   8.933  17.433   3.042  0.1042 -0.1537  0.0177
32551W        W48020  16.771   6.769  15.201  0.1765  0.3471 -0.1371
32552W        W48021   9.775   0.127   5.864 -0.2077 -0.2231  0.0115
32553W        W48022  16.773  14.931  13.656  0.0408 -0.2487  0.0084
32554W        W48023  15.629   4.877  15.972  0.1618 -0.0684  0.1263
32555W        W48024   5.814  13.624  14.310 -0.0959  0.0599  0.3971
32556W        W48025   5.053  14.234  16.197 -0.0069  0.1925 -0.0688
32557W        W48026  16.887   9.565   2.388 -0.0043 -0.0607  0.1680
32558W        W48027  17.662  15.920  16.519 -0.2258  0.1885 -0.2705
32559W        W48028  11.527   5.696   1.206 -0.3564 -0.0425 -0.2167
32560W        W48029   9.559  15.614  13.786 -0.0216  0.0113  0.3046
32561W        W48030  16.956  15.785  13.731  0.1248  0.0342  0.0193
32562W        W48031  17.772   9.400  15.943  0.1702 -0.4242  0.2429
32563W        W48032  11.648   2.081   2.391 -0.3340 -0.1291 -0.2332
32564W        W48033   3.930  13.222   1.707 -0.0206  0.3540  0.0441
32565W        W48034  14.792   2.321   0.770  0.2573  0.1824 -0.2608
32566W        W48035   8.434   0.940   4.849  0.1626  0.3717 -0.1691
32567W        W48036  10.450   9.048   3.982  0.2310  0.1213  0.0355
32568W        W48037  17.331  16.895   5.449 -0.0916 -0.0351 -0.0386
32569W        W48038  14.822   4.301  12.151 -0.1784  0.2916 -0.1511
32570W        W48039   8.716   6.811  16.054 -0.2730  0.1436 -0.1150
32571W        W48040   1.384   9.126  13.685  0.1773  0.0133 -0.2462
32572W        W48041  17.403   0.349   0.638  0.3804  0.0386  0.1982
32573W        W48042   2.428   9.669  15.487 -0.2731  0.1023 -0.2190
32574W        W48043   7.148  17.539   5.048 -0.1385  0.0283 -0.2221
32575W        W48044  13.287  10.673  12.194  0.1352  0.0890 -0.1738
32576W        W48045   2.200   2.582   0.533 -0.1537  0.0071 -0.1424
32577W        W48046   4.949   2.503   5.331  0.0197 -0.5925  0.0269
32578W        W48047   8.345  11.564   4.482 -0.0041 -0.1937  0.1079
32579W        W48048  15.818  13.463  16.502  0.0585 -0.0600 -0.2985
32580W        W48049   8.930   1.109   3.478 -0.2397  0.1821 -0.4312
32581W        W48050   5.131  10.631   4.788 -0.0138  0.0546  0.2750
32582W        W48051  11.609   9.058   0.460  0.0572  0.0842  0.0999
32583W        W48052   2.656  15.992  15.257 -0.1511  0.0313  0.0665
32584W        W48053   2.646  10.144  12.252  0.0440  0.1002 -0.1716
32585W        W48054   8.176   5.176  16.506  0.1849 -0.1787 -0.0125
32586W        W48055   3.153  15.688   2.361 -0.0883  0.2058  0.0695
32587W        W48056   0.219   9.440   3.142  0.2596  0.0542  0.2263
32588W        W48057   0.010   6.443  11.847 -0.0045 -0.0594  0.0832
32589W        W48058   1.660   9.542  11.564  0.0335  0.1856 -0.1575
32590W        W48059   6.988  17.331  12.658 -0.1775 -0.1272 -0.1578
32591W        W48060   8.505   7.283   0.959  0.0116 -0.2237 -0.2460
32592W        W48061   7.498   8.690   5.027 -0.1110  0.1168 -0.0168
32593W        W48062   7.171   5.526   3.958 -0.3146 -0.0126  0.6564
32594W        W48063  16.127   1.536  14.907 -0.0672 -0.2861 -0.1010
32595W        W48064   8.305   4.776   0.454 -0.1683  0.2313 -0.0965
32596W        W48065   0.648   5.730   0.723 -0.2190 -0.3112 -0.0423
32597W        W48066   3.908   1.254  11.576  0.0842 -0.1668 -0.2239
32598W        W48067  13.689   0.202   1.976  0.0329  0.0845  0.3186
32599W        W48068  11.340   4.683  13.178  0.2292 -0.3900  0.2216
32600W        W48069   4.331   4.285  10.667  0.2845 -0.1357 -0.1990
32601W        W48070   6.696  14.809   1.723  0.1922 -0.0292  0.0255
32602W        W48071  14.477  10.771   0.425 -0.0021  0.0431 -0.0621
32603W        W48072   9.018   1.447   4.494 -0.0274 -0.3078 -0.1395
32604W        W48073  14.630  11.274   4.300  0.0651  0.0642  0.1075
32605W        W48074   4.912  13.671   3.891 -0.2137  0.1617  0.0544
32606W        W48075  14.927  13.096  15.193  0.1398 -0.1538  0.1548
32607W        W48076   7.349  13.211  14.406  0.0480 -0.0480 -0.0169
32608W        W48077   6.128   0.205  14.407 -0.1524 -0.0136  0.2278
32609W        W48078  14.920   0.042  14.414  0.0158  0.2644 -0.2586
32610W        W48079   6.297   6.785  16.581  0.0595 -0.0766 -0.0256
32611W        W48080   4.830   6.154   0.986 -0.0671 -0.1980  0.0048
32612W        W48081  10.547  11.220  15.986 -0.2621  0.0804  0.2724
32613W        W48082   2.530  10.130   3.804  0.0920 -0.1755  0.1459
32614W        W48083  13.002  13.202  13.535  0.2624  0.0332  0.0851
32615W        W48084   0.939  15.980  13.222 -0.2258 -0.1463  0.1265
32616W        W48085   4.727  17.233   5.066  0.0180 -0.0075 -0.2849
32617W        W48086   7.375  12.698   2.609  0.1633  0.0035 -0.4042
32618W        W48087  16.538   7.117  16.053 -0.1635  0.1091  0.0777
32619W        W48088  16.457  11.806   3.470  0.0538  0.2816 -0.0561
32620W        W48089   7.416  14.893   4.158 -0.0205 -0.1368 -0.3019
32621W        W48090  11.206   0.388   2.811  0.2582 -0.0549  0.1598
32622W        W48091  12.099   0.272  13.786  0.0713 -0.1156  0.1014
32623W        W48092  15.386  10.289  10.617  0.0255 -0.0141  0.2034
32624W        W48093  13.640  14.267  15.782 -0.0957 -0.0812 -0.0848
32625W        W48094   2.425   0.297  13.303 -0.1457  0.1763 -0.2198
32626W        W48095  17.337  16.565   1.961  0.1676  0.0635 -0.0177
32627W        W48096   1.365   5.384   2.571  0.2015  0.0200  0.0256
32628W        W48097   0.245  11.132   0.128  0.0225 -0.0737  0.1702
32629W        W48098   2.283  11.508  11.034 -0.0224  0.0086  0.0968
32630W        W48099  17.606   8.296  16.821 -0.0771 -0.1909 -0.0912
32631W        W48100   2.650  14.283  11.668 -0.3997  0.1708 -0.2718
32632W        W48101  13.588   9.480  15.949  0.0684 -0.0119 -0.1957
32633W        W48102   9.651  14.903   0.290  0.0289 -0.1294  0.0318
32634W        W48103   7.248  16.724  13.741 -0.1289  0.0189  0.0962
32635W        W48104  15.587   5.906   1.885  0.0041  0.0538  0.0103
32636W        W48105   7.592   2.060  15.138 -0.1109  0.2711  0.1690
32637W        W48106   1.093   9.802  11.391  0.0442  0.1456  0.1508
32638W        W48107   7.542  15.872  12.023 -0.2193  0.1041 -0.1297
32639W        W48108   2.900   7.505   1.532 -0.1574  0.2428 -0.0921
32640W        W48109  17.714   2.170   5.224 -0.1105  0.2237 -0.3432
32641W        W48110  10.462   3.187   0.058 -0.2209  0.0023  0.2155
32642W        W48111   5.856  13.437  16.135 -0.1202  0.0630 -0.2184
32643W        W48112  12.479   3.315   3.651 -0.2569 -0.1011 -0.1368
32644W        W48113   2.365   2.715   5.085  0.0636 -0.1336  0.2216
32645W        W48114  12.190  12.695  13.039  0.4461 -0.0362 -0.0015
32646W        W48115  12.226   4.321   0.132  0.1209 -0.1212  0.1605
32647W        W48116  14.433  12.677  13.754 -0.3948  0.0078  0.0958
32648W        W48117  17.752   2.544   4.868 -0.0613 -0.2555  0.0619
32649W        W48118  10.484   8.716   4.362 -0.1470  0.0131  0.5114
32650W        W48119  16.672  17.245   0.213  0.1838  0.0924  0.0512
32651W        W48120  11.736  11.845   5.455  0.0444  0.2740 -0.1968
32652W        W48121   9.347   2.580   0.198 -0.0715 -0.1040 -0.0048
32653W        W48122  14.201  10.462  13.883 -0.2079  0.0693  0.2221
32654W        W48123  11.336  14.646  16.030 -0.1616 -0.1364 -0.2670
32655W        W48124   4.160   6.867  14.897  0.1466 -0.0823 -0.0684
32656W        W48125  13.671   4.597   3.709  0.0586 -0.2298  0.0922
32657W        W48126   3.859  10.510  11.515  0.2460 -0.0832  0.1517
32658W        W48127   4.970   2.359   4.761 -0.1737  0.0314  0.1837
32659W        W48128  15.286   1.678  13.853  0.5009  0.2831  0.0871
32660W        W48129  10.434  10.912  14.401  0.1518  0.0477 -0.1949
32661W        W48130   2.460  12.030   4.556  0.1915 -0.3538  0.1500
32662W        W48131   8.259   1.981   1.883 -0.0906  0.2024  0.3722
32663W        W48132  17.590  11.771   3.050 -0.2462  0.0277  0.0675
32664W        W48133   8.124  15.556   1.209  0.0074 -0.2397  0.0133
32665W        W48134   1.375  14.214  12.299  0.2735  0.0571  0.0119
32666W        W48135   0.224  15.543   0.949 -0.0381 -0.0622 -0.0166
32667W        W48136  16.539   3.174   4.735 -0.1405  0.1143  0.1355
32668W        W48137   5.614   2.955   4.190  0.2714  0.0778  0.1481
32669W        W48138   9.985  10.559   2.074 -0.0122  0.0974  0.1494
32670W        W48139  10.204   8.021   0.923 -0.4487 -0.0038 -0.1892
32671W        W48140  14.805  12.072  11.469  0.2509 -0.1322 -0.0045
32672W        W48141  12.963  13.448   5.833  0.1266 -0.0005  0.0440
32673W        W48142   7.146   3.879  11.758 -0.2552  0.1753  0.1128
32674W        W48143   5.540   5.295   2.219  0.0353 -0.2832 -0.1898
32675W        W48144  14.546   5.087   0.727 -0.1154 -0.2456  0.2103
32676W        W48145  14.193   7.776   1.897 -0.1850  0.0966  0.0539
32677W        W48146   4.649  13.913  14.075 -0.0703 -0.0372 -0.0384
32678W        W48147   3.139   3.903   0.979 -0.0380 -0.0194  0.1334
32679W        W48148   6.150  17.333   0.821  0.0219 -0.0757  0.1660
32680W        W48149   9.287  12.291   3.285 -0.2195  0.1478  0.2416
32681W        W48150  15.048   4.682   3.493 -0.2440 -0.1737  0.2435
32682W        W48151   4.401  11.199   0.962  0.2067  0.1211 -0.0557
32683W        W48152   0.714  17.281   1.772  0.1069 -0.2027 -0.2469
32684W        W48153  12.666  13.346   0.301  0.0246  0.0466 -0.0340
32685W        W48154  12.358  11.843   5.150  0.1932 -0.0479 -0.0793
32686W        W48155  10.014   6.633  13.748 -0.1085 -0.0996  0.2052
32687W        W48156   7.307  10.062   4.678  0.1845  0.4197 -0.1631
32688W        W48157   9.847   8.207   4.600 -0.1223 -0.0443 -0.0070
32689W        W48158  17.001  16.739   3.150 -0.1305 -0.1564  0.0624
32690W        W48159  10.432   4.206   2.839  0.3488 -0.1387 -0.1315
32691W        W48160   7.317  15.062   3.401  0.2268  0.0042  0.1769
32692W        W48161   2.649   2.655   0.777  0.0385 -0.3037  0.2873
32693W        W48162  10.953  17.041  14.323  0.0938  0.1252  0.1873
32694W        W48163   8.745   0.457   5.882 -0.0291  0.0391  0.0366
32695W        W48164  10.166   8.688   3.774 -0.1292 -0.1921 -0.1150
32696W        W48165  15.285   8.388  12.900 -0.1704 -0.0145  0.0999
32697W        W48166  15.676   2.694  12.878  0.2227  0.1458 -0.2483
32698W        W48167   4.889   8.673  12.283  0.2750  0.1048  0.0353
32699W        W48168   9.869   8.246  12.545  0.1240 -0.1167  0.0635
32700W        W48169   7.539   2.417   1.718  0.0231  0.0290 -0.0038
32701W        W48170  11.266   8.770   6.249 -0.2770  0.1376  0.0660
32702W        W48171  13.789   9.628   3.211 -0.1634  0.2554  0.1993
32703W        W48172  10.384  12.433   4.466 -0.0817 -0.3097  0.2104
32704W        W48173   6.913   6.654   0.777 -0.1601 -0.0555 -0.0200
32705W        W48174  16.632   5.795   0.994  0.0340  0.2701 -0.2000
32706W        W48175  10.611   9.111  13.362  0.1306  0.0484  0.0278
32707W        W48176   6.305   3.808  13.666 -0.0264  0.0532  0.0132
32708W        W48177   5.308   9.583  10.488 -0.0437  0.0833 -0.0795
32709W        W48178  11.085  10.663   3.803 -0.0534  0.0345 -0.0256
32710W        W48179   7.464  11.732   4.780  0.1403 -0.0855 -0.0089
32711W        W48180   9.295   1.463   3.266  0.0834  0.0890  0.0040
32712W        W48181  12.756   5.517  12.188 -0.0481  0.2754 -0.2938
32713W        W48182   7.455   6.744   4.593 -0.0111 -0.1820 -0.1344
32714W        W48183  12.922  10.965   0.310 -0.0559  0.1482  0.0154
32715W        W48184   9.655  16.137  13.763 -0.1744 -0.1784  0.4683
32716W        W48185  14.870   4.371  16.440  0.0496  0.2291 -0.3751
32717W        W48186   1.789  15.425   0.778 -0.4398 -0.0914 -0.0127
32718W        W48187   5.399   3.946   0.442 -0.1533  0.1930 -0.0875
32719W        W48188   7.155   7.415   5.283 -0.1177 -0.2352  0.0947
32720W        W48189  10.643  17.282   2.142  0.0455  0.1640 -0.0816
32721W        W48190   1.100   7.012   0.706  0.2171 -0.1218  0.1902
32722W        W48191  11.448  16.113   3.964 -0.2797  0.1867  0.0753
32723W        W48192  14.063   3.632  16.819 -0.0131 -0.0630 -0.2191
32724W        W48193  16.046   6.943  12.026 -0.0194  0.2089 -0.0544
32725W        W48194   6.856  13.178  14.482  0.1687 -0.0911  0.0318
32726W        W48195   4.151   2.487   1.682 -0.1567  0.2720 -0.2466
32727W        W48196   9.473  14.975   3.437  0.0517 -0.2053 -0.1561
32728W        W48197   5.486  16.264   6.173  0.2916  0.2457 -0.1801
32729W        W48198   7.230  10.981   0.761 -0.0216 -0.1167  0.2176
32730W        W48199  13.177   9.369   4.747  0.1208  0.1562 -0.0046
32731W        W48200   7.333   1.433   2.715  0.1393  0.0670 -0.0391
32732W        W48201   8.541  16.307  12.865  0.0838  0.0075  0.1743
32733W        W48202   8.588   0.290  12.035  0.1779 -0.1659 -0.1581
32734W        W48203   7.740   6.831  12.214 -0.0326  0.0088  0.1860
32735W        W48204   5.502  15.819  15.891 -0.0525 -0.1641  0.0675
32736W        W48205   6.402  14.402   2.047  0.1199  0.0318 -0.0545
32737W        W48206   5.216   0.928  13.114 -0.0008  0.1790 -0.2150
32738W        W48207  12.434   2.235  16.179 -0.0230  0.2908  0.3481
32739W        W48208   4.298  16.869  11.687 -0.3316 -0.0454  0.2808
32740W        W48209  12.767   9.782  14.365  0.1401 -0.1183 -0.0866
32741W        W48210   7.688  17.386   2.541 -0.3003 -0.0551 -0.0332
32742W        W48211   2.548   2.462   0.193  0.0855 -0.3339  0.1130
32743W        W48212   4.370   3.818   0.345 -0.1266  0.3146  0.2585
32744W        W48213   7.329   0.050  16.174 -0.1540 -0.1939  0.0366
32745W        W48214   7.044   0.277   2.708  0.2385 -0.0949  0.3067
32746W        W48215   6.809  12.019   0.640  0.2362 -0.0726 -0.1837
32747W        W48216  14.105   1.985   1.395  0.3520  0.0861  0.1128
32748W        W48217   1.150   6.450  16.395 -0.1661  0.1069 -0.0848
32749W        W48218   2.720   0.323  14.937  0.0461  0.0604 -0.2630
32750W        W48219  14.608  17.249  11.805  0.0989 -0.0088 -0.0541
32751W        W48220  13.508   1.938  15.334 -0.1002  0.0114  0.4597
32752W        W48221   6.939   2.447   2.419 -0.0268  0.2081 -0.1330
32753W        W48222   0.842   2.460   3.361  0.4331  0.0511 -0.0081
32754W        W48223   7.354   9.125  12.215 -0.0272  0.0031  0.0293
32755W        W48224   0.917   0.308   3.741  0.0747  0.2456 -0.1558
32756W        W48225  15.244  10.598   2.137  0.0283 -0.1261 -0.0093
32757W        W48226  14.190   0.307  14.798  0.3230 -0.1420  0.1188
32758W        W48227  13.240   9.589  14.241  0.0125  0.0720  0.0100
32759W        W48228   8.543  10.165   3.230 -0.0680  0.1701  0.1596
32760W        W48229   3.967   0.965  15.156 -0.1754  0.1730  0.2324
32761W        W48230   9.549   1.386  14.494 -0.0418 -0.0313 -0.2610
32762W        W48231  10.844   1.455   1.536  0.0008  0.1946 -0.3503
32763W        W48232   1.518  10.032  12.983 -0.0328 -0.1205  0.2589
32764W        W48233  12.419   9.893   1.912 -0.1011  0.0134 -0.0085
32765W        W48234  15.997  10.521   3.248 -0.2464  0.1664 -0.1278
32766W        W48235  12.005   5.469   3.604  0.0382 -0.3312  0.1801
32767W        W48236   3.217   8.156  10.877  0.1734  0.1171 -0.2576
32768W        W48237  14.352  13.174  13.670 -0.0060  0.2452 -0.2488
32769W        W48238  16.573  12.759   0.301 -0.1519 -0.1267 -0.1161
32770W        W48239   0.768  13.504  12.731  0.0611 -0.3463 -0.1205
32771W        W48240  11.294   1.870  13.295  0.2497 -0.0789  0.1328
32772W        W48241  13.849   5.339  13.114  0.2144  0.1291 -0.2930
32773W        W48242  10.060   3.661  12.744 -0.2129  0.1109  0.1352
32774W        W48243   7.263  14.163   2.384  0.1239  0.0617  0.1980
32775W        W48244  14.172  15.114   0.652 -0.0280  0.1252  0.3154
32776W        W48245   0.985  12.576  15.973  0.1306  0.0080  0.1277
32777W        W48246  17.036  16.721  16.755 -0.0937 -0.3050 -0.0810
32778W        W48247  17.310  15.939  14.986  0.1363 -0.0465  0.2242
32779W        W48248   9.407   1.466   1.325 -0.0421 -0.1911  0.0636
32780W        W48249  14.923   5.113   1.047  0.1349  0.2052 -0.0204
32781W        W48250   5.196   0.353  11.598 -0.1974 -0.1584 -0.3954
32782W        W48251  16.232  13.096  10.966  0.0002  0.2873 -0.2616
32783W        W48252   4.029  10.614  14.616  0.0160 -0.2406  0.2213
32784W        W48253  14.961  15.558   0.487 -0.2912 -0.3079  0.1553
32785W        W48254   5.736   7.552   0.872 -0.0402 -0.2188  0.0352
32786W        W48255   4.664   3.751   2.922  0.1121  0.0543 -0.2839
32787W        W48256   1.142   9.026   3.795  0.2533  0.0596 -0.0982
32788W        W48257   3.696  17.593  15.929  0.0034  0.2799 -0.0689
32789W        W48258   7.098   8.494  11.513  0.1798 -0.0678 -0.1276
32790W        W48259   7.526   6.986   5.282 -0.0222  0.1116 -0.3489
32791W        W48260  12.413  17.351   2.117 -0.0008 -0.2357  0.4124
32792W        W48261   7.289  12.060   5.182 -0.1914 -0.1382  0.1400
32793W        W48262  11.799   3.968   0.298  0.2812  0.0206 -0.4120
32794W        W48263  17.107  17.276  14.846 -0.0897  0.2357  0.1002
32795W        W48264   0.566   3.073  11.537 -0.1149 -0.0096  0.1385
32796W        W48265   8.033  11.577  15.839  0.0147  0.3093 -0.2394
32797W        W48266   9.241  13.656   3.579 -0.1586  0.0103 -0.0668
32798W        W48267  16.342   3.349   5.660 -0.0423 -0.0371 -0.1636
32799W        W48268   6.406   4.131   1.827 -0.0682 -0.0084  0.3828
32800W        W48269  14.776  16.855  14.134 -0.3096  0.0031 -0.3360
32801W        W48270   1.463  10.713  15.183 -0.0268 -0.0455 -0.0382
32802W        W48271   0.278   1.545   2.813 -0.0334  0.0425  0.0108
32803W        W48272  15.169   0.265  15.668  0.5379  0.1835  0.0746
32804W        W48273  15.241   9.644  12.539  0.0379 -0.2452 -0.0109
32805W        W48274  10.646  10.896   6.446 -0.2208 -0.0381 -0.0955
32806W        W48275   9.125   9.655   3.536 -0.0043 -0.0550 -0.4934
32807W        W48276  16.779   0.175   4.649 -0.0573  0.2407 -0.0337
32808W        W48277   5.737   0.869  16.800 -0.0849 -0.1836  0.2553
32809W        W48278   2.381  13.347   3.352 -0.0044 -0.3062 -0.3013
32810W        W48279  13.729  17.240   2.650 -0.2889 -0.1130  0.2765
32811W        W48280   7.040   2.886   0.117 -0.0791  0.1362  0.5782
32812W        W48281  14.145  14.325   0.430  0.0202 -0.1362 -0.3622
32813W        W48282  16.237   4.082   5.288 -0.1165  0.0781 -0.2970
32814W        W48283  11.998  12.182  12.637  0.0835  0.0259 -0.0376
32815W        W48284  15.769   6.679  16.602  0.0120 -0.1304  0.0425
32816W        W48285  11.527  14.146   4.117 -0.0347 -0.3332 -0.3061
32817W        W48286  14.455  17.642  14.604  0.2066 -0.1579 -0.1902
32818W        W48287   1.795  15.996  13.506  0.3247 -0.2173 -0.0071
32819W        W48288  17.002   7.965  14.373  0.1164 -0.1697 -0.2180
32820W        W48289  16.843   5.235   5.000 -0.1921  0.0862 -0.1693
32821W        W48290   2.721   4.775  13.692 -0.1217  0.0076 -0.2109
32822W        W48291   9.226  16.971  14.797  0.0910 -0.0098 -0.0428
32823W        W48292  17.630   2.202   2.402  0.1607 -0.0927  0.2784
32824W        W48293  12.971   9.797   1.026  0.1806 -0.0116  0.1704
32825W        W48294   0.302  15.436   1.532 -0.3082 -0.0180 -0.1547
32826W        W48295   0.732   7.952   3.573  0.0355 -0.3620  0.0238
32827W        W48296   4.810   7.937   3.163  0.1016  0.0396  0.1411
32828W        W48297  10.254  17.120  12.402 -0.0584 -0.0376  0.0547
32829W        W48298   2.975   5.913  11.287  0.0736 -0.0428 -0.2303
32830W        W48299  13.484  11.442   5.238 -0.4521  0.1180  0.1012
32831W        W48300  10.576  11.657   2.399  0.0390  0.0456  0.2809
32832W        W48301   8.188   4.072   2.998 -0.0637 -0.2869 -0.0417
32833W        W48302   9.243   0.128   2.009  0.1329  0.2894  0.0631
32834W        W48303   8.094   6.877  15.516  0.1488 -0.0766 -0.1846
32835W        W48304  14.740  12.550  11.083  0.0428 -0.3047 -0.1681
32836W        W48305   1.079   1.097   1.909 -0.0363 -0.0044 -0.0183
32837W        W48306   5.140   5.166   4.641 -0.1101 -0.0788  0.0311
32838W        W48307  15.356  10.392   2.564  0.3521 -0.1310  0.1768
32839W        W48308  15.388  15.807  12.573 -0.2029 -0.1751  0.1917
32840W        W48309   0.206  15.922  15.711  0.2472  0.0964  0.0608
32841W        W48310   0.768   4.902  15.601 -0.3531  0.2251 -0.0917
32842W        W48311   5.687   4.683  15.269  0.0998  0.0862 -0.0882
32843W        W48312   7.638  13.383  15.777 -0.0554 -0.2252  0.0624
32844W        W48313  15.007  13.738   5.507 -0.1498  0.4268 -0.0397
32845W        W48314  14.036  10.587   3.021 -0.0191  0.2034 -0.2121
32846W        W48315  13.848   6.707  12.709 -0.0293 -0.1773  0.2389
32847W        W48316  10.894  10.911   4.636 -0.0266  0.0843 -0.3376
32848W        W48317   7.554   0.048  12.477 -0.1629  0.0404 -0.1461
32849W        W48318   1.806   4.013   5.038  0.1759 -0.0145  0.2199
32850W        W48319  15.847   8.648  11.312  0.0086 -0.0939 -0.0183
32851W        W48320   0.204  16.978  14.685  0.3223 -0.0876  0.0068
32852W        W48321   8.993  13.910  13.406 -0.0214  0.0221 -0.1094
32853W        W48322  12.895  14.271   1.455  0.0814  0.1879 -0.1214
32854W        W48323   6.373   2.494   4.122  0.2946 -0.0977 -0.0689
32855W        W48324   8.417   2.305   1.518  0.0284  0.0942 -0.4096
32856W        W48325   1.644  14.108  15.626  0.4073  0.5277 -0.1787
32857W        W48326  10.500   4.216  13.027  0.1049 -0.0812  0.3319
32858W        W48327   9.310   4.831  12.544  0.3913  0.0753 -0.2214
32859W        W48328   9.123   9.061   4.647  0.1651 -0.2116 -0.1492
32860W        W48329  15.700   9.827   3.704  0.0614 -0.1124  0.1079
32861W        W48330   1.394   8.723   5.503  0.3165  0.0108 -0.2315
32862W        W48331  15.278  12.881   5.037 -0.0071 -0.3789  0.1413
32863W        W48332   6.736  10.029  16.404 -0.2157 -0.1154  0.2219
32864W        W48333  17.025   6.555   0.468  0.3528  0.1149  0.3024
32865W        W48334   1.208  12.979   4.182  0.2281  0.0254  0.5106
32866W        W48335  10.388  10.389  12.996  0.4871  0.0415 -0.0407
32867W        W48336   6.500  15.288  13.526 -0.2873  0.0500 -0.1152
32868W        W48337   4.948   3.094   3.628  0.0645 -0.1919 -0.0847
32869W        W48338  14.819   2.358  15.689  0.4961 -0.1701 -0.1691
32870W        W48339  15.322  17.712   5.742 -0.0652  0.0872 -0.0410
32871W        W48340   3.214  10.967  12.212 -0.1925  0.1398 -0.1391
32872W        W48341   1.379  12.589  14.200 -0.4784 -0.0234 -0.0500
32873W        W48342   8.257  13.371  15.717  0.0297 -0.3215 -0.0280
32874W        W48343   3.793   3.676  13.959  0.3217  0.2383  0.3206
32875W        W48344   5.610  17.139  14.207  0.2702  0.0983  0.0576
32876W        W48345  12.318  10.194   0.720  0.0375  0.0907 -0.2882
32877W        W48346   4.687   6.512  13.066  0.2218 -0.0579  0.1585
32878W        W48347   5.138   4.300   1.477 -0.1045  0.2480  0.1185
32879W        W48348   9.424  16.275  12.226  0.0954 -0.0135  0.2537
32880W        W48349  11.412   5.508  16.713  0.1769  0.0612  0.2509
32881W        W48350   9.831  10.381  15.066  0.1818  0.1150 -0.1934
32882W        W48351   9.482   9.854  13.082  0.0553 -0.0176  0.0866
32883W        W48352  12.106   8.458  14.739  0.0838 -0.0033 -0.1048
32884W        W48353  10.505   1.217  14.169 -0.0606  0.3487  0.0440
32885W        W48354   0.268  10.023   0.651  0.1549 -0.2283 -0.4975
32886W        W48355   5.866   1.800  15.224  0.0233  0.2184  0.0984
32887W        W48356   8.904   1.311   2.297 -0.1637 -0.2949 -0.0191
32888W        W48357  16.253   1.306   4.699 -0.1211 -0.2392  0.0646
32889W        W48358   5.406  15.524  16.728 -0.0830  0.0871 -0.1657
32890W        W48359   1.058  12.602   1.554 -0.0935  0.1528  0.0952
32891W        W48360  13.968   3.059   4.540 -0.0042  0.2070  0.1719
32892W        W48361   3.157   1.345  12.340  0.0150 -0.0366 -0.0536
32893W        W48362   7.981  11.191   5.901  0.1191 -0.0075  0.0914
32894W        W48363  15.042  11.639   0.887 -0.3643 -0.1634  0.0077
32895W        W48364  14.231   4.115   0.267  0.0540 -0.1397 -0.0370
32896W        W48365   7.473   3.256  15.626  0.0349 -0.0656  0.2278
32897W        W48366  14.041   6.623   6.049 -0.2097 -0.1123 -0.2327
32898W        W48367   0.229   3.356   1.949 -0.0661 -0.0096 -0.1135
32899W        W48368  14.830  12.406  12.136 -0.0958  0.0620  0.0466
32900ION     NA48369   6.095  13.148   1.382  0.3380 -0.0087 -0.0976
32901ION     NA48370  15.690   1.380  10.539 -0.0246  0.1158 -0.0111
32902ION     NA48371   1.021  16.469  13.259  0.2999  0.2332  0.1949
32903ION     NA48372   8.156  14.108  16.819  0.4537  0.0483 -0.1661
32904ION     NA48373   5.751  17.602   6.099  0.0156 -0.0097  0.1630
32905ION     NA48374   4.011   3.477  10.625  0.2557 -0.3533 -0.2683
32906ION     NA48375   3.434   0.199  16.766  0.0759 -0.0961 -0.1638
32907ION     NA48376   2.871  16.935   5.678  0.0210 -0.0510  0.1026
32908ION     NA48377   5.696  11.299   4.447  0.1117  0.1084  0.0310
32909ION     NA48378  14.687  16.031  10.651  0.4939 -0.0007 -0.2408
32910ION     NA48379   0.264   1.560  10.326 -0.2150  0.0252 -0.1710
32911ION     NA48380  12.927  10.422  10.755 -0.3282 -0.0803  0.0742
32912ION     NA48381   3.323  11.050  13.881  0.1591 -0.1620  0.1886
32913ION     NA48382  10.896  10.578  10.679  0.0445 -0.0509  0.1582
32914ION     NA48383  15.198   2.985  10.883  0.1471  0.0518 -0.1096
32915ION     NA48384  16.428   1.370   6.186 -0.0084  0.0908  0.0776
32916ION     NA48385  14.302   7.519   5.987  0.2911  0.2289 -0.0114
32917ION     NA48386   5.737  16.546  10.599 -0.0176  0.1090 -0.1069
32918ION     NA48387   6.321  15.626  15.329  0.1033  0.3130  0.0435
32919ION     NA48388  15.333   7.634  10.603 -0.0273 -0.3479 -0.0821
32920ION     NA48389  16.726   0.305  15.305  0.4036 -0.0231 -0.1050
32921ION     NA48390   7.720   0.494  11.008 -0.0793  0.1973  0.2053
32922ION     NA48391   0.066  16.593  11.063 -0.1126  0.1648  0.0545
32923ION     NA48392   6.457  12.931   2.444  0.2708  0.2162 -0.0146
32924ION     NA48393   0.669   8.076  16.322  0.2904  0.2158  0.1092
32925ION     NA48394   2.959  15.346  10.534  0.0601  0.1570 -0.0628
32926ION     NA48395  11.735   6.030   1.563 -0.2456  0.1460 -0.0401
32927ION     NA48396  15.975  12.007   1.107  0.1912  0.2062  0.3317
32928ION     NA48397  14.797   6.249  10.912 -0.0521  0.0232  0.1073
32929ION     NA48398  12.687  16.204   6.425 -0.2203 -0.2303 -0.0270
32930ION     NA48399   6.587  11.490  14.061 -0.0525  0.0547  0.1706
32931ION     NA48400  12.473   9.687  10.886  0.3357 -0.2556  0.0654
32932ION     NA48401   7.534   5.439  11.107 -0.1333 -0.4002 -0.3134
32933ION     NA48402   4.219  12.380  13.127  0.3001  0.1689 -0.3391
32934ION     NA48403  12.450   3.031  11.219  0.2039  0.1705  0.2497
32935ION     NA48404  14.490   0.678  13.501 -0.1203 -0.2670 -0.3024
32936ION     NA48405   5.300   6.994  10.978  0.0142 -0.1139  0.1253
32937ION     NA48406   8.977  10.839  10.804  0.0728  0.1109 -0.0225
32938ION     NA48407  16.954  14.108  10.057 -0.0789 -0.1202  0.0456
32939ION     NA48408   9.091   7.124   6.256 -0.1246 -0.0119  0.1711
32940ION     NA48409  12.040   9.476   1.799  0.0105  0.0648 -0.0563
32941ION     NA48410   2.998  11.858   5.806  0.1412  0.3481  0.2405
32942ION     NA48411  15.008  12.951  12.032  0.2661  0.0866  0.0008
32943ION     NA48412  11.815  11.196   4.823 -0.0024 -0.1371  0.1119
32944ION     NA48413   8.078   8.483   6.199  0.3539 -0.1614  0.1196
32945ION     NA48414  14.698   8.431  13.165 -0.1609 -0.2083  0.0746
32946ION     NA48415  11.089  15.212  11.273  0.1195 -0.0559  0.0251
32947ION     NA48416   3.747   0.292  10.960  0.1995  0.1284 -0.1492
32948ION     NA48417  14.939   9.581  11.139 -0.1596 -0.2206 -0.0080
32949ION     NA48418  11.583   2.963  10.860 -0.2767 -0.0531 -0.2168
32950ION     NA48419  15.349   8.120  14.166 -0.0476 -0.2185  0.1302
32951ION     NA48420  10.370   8.255   4.536  0.1153  0.0860 -0.1076
32952ION     NA48421  13.110  14.183  10.932  0.0188  0.0408 -0.1471
32953ION     NA48422   3.376   7.706   4.804 -0.2781 -0.1367  0.2000
32954ION     NA48423   2.349  16.166  10.426  0.0918  0.3197 -0.0827
32955ION     NA48424   1.733   0.093  10.470  0.1313  0.0715 -0.1612
32956ION     NA48425  10.787   4.793  11.152  0.0386 -0.1616  0.2791
32957ION     NA48426  15.564  13.631  10.279 -0.2544 -0.2867 -0.0115
32958ION     NA48427   2.763   9.369   5.787  0.1072  0.0853  0.1033
32959ION     NA48428   9.939  12.717  11.029 -0.0431  0.0680 -0.0678
32960ION     NA48429  10.296  16.902   2.824 -0.1173  0.0971  0.2561
32961ION     NA48430  14.013   0.740  10.687 -0.3990  0.0060 -0.3321
32962ION     NA48431   6.082  14.930  10.970  0.3431 -0.0934  0.0380
32963ION     NA48432   6.252  10.591  10.399 -0.1781 -0.1919  0.0714
32964ION     NA48433   5.674  15.532  10.607 -0.0281  0.1716  0.1069
32965ION     NA48434   6.755  16.701   6.334  0.0202  0.1666 -0.2554
32966ION     NA48435  13.470   7.805   6.258 -0.0247  0.0006 -0.0987
32967ION     NA48436  12.350   7.573  11.123 -0.1931 -0.0700 -0.2579
32968ION     NA48437   8.361   1.531   6.715  0.1065 -0.0686 -0.1344
32969ION     NA48438   8.771  16.226   6.721 -0.0560  0.0998  0.1401
32970ION     NA48439   6.898  14.453  10.776  0.0034  0.1769 -0.3110
32971ION     NA48440  10.323   2.354  10.975  0.1563  0.0142 -0.0159
32972ION     NA48441   2.508  13.017  10.551 -0.1701  0.0119 -0.0605
32973ION     NA48442   7.988   2.563   6.571  0.3490 -0.0575  0.1874
32974ION     NA48443   9.165   1.436  15.867 -0.3528 -0.0391  0.0073
32975ION     NA48444   9.414   2.683  11.167  0.0862 -0.0763 -0.0587
32976ION     NA48445   5.065  15.078  11.188 -0.0654 -0.1891 -0.1344
32977ION     NA48446  15.737   4.510   0.673 -0.0527  0.1675  0.1401
32978ION     NA48447   1.819  13.625   5.684  0.0358 -0.2150  0.0681
32979ION     NA48448  16.831   9.688   9.987  0.0391  0.0558 -0.2665
32980ION     NA48449   2.091   2.653  10.029 -0.0097  0.1653 -0.0575
32981ION     NA48450  13.791  11.920   0.394  0.1314  0.3127  0.0308
32982ION     NA48451   9.943  16.678  11.213  0.1051 -0.0251 -0.0644
32983ION     NA48452   2.106  11.705  10.539  0.0168 -0.0338  0.0181
32984ION     NA48453  16.343   2.793  11.580 -0.2691  0.2549  0.1052
32985ION     NA48454  12.893  11.499  10.742  0.1324 -0.1104  0.3630
32986ION     NA48455   6.608  10.307  15.457 -0.1150  0.1058 -0.0826
32987ION     NA48456  12.906   7.898  16.702  0.1294 -0.0415 -0.1892
32988ION     NA48457  14.832   8.605  10.767  0.0247 -0.2899  0.1267
32989ION     NA48458  14.926   5.348  10.761  0.1603  0.1074  0.1286
32990ION     NA48459   5.534   2.158  11.237  0.0139  0.2494 -0.1090
32991ION     NA48460  16.334  15.990   4.940  0.0098 -0.1742  0.0025
32992ION     NA48461  17.623   4.866  10.134  0.1557  0.3067  0.5884
32993ION     NA48462  10.434  13.538  10.969  0.0002  0.1288  0.0784
32994ION     NA48463   4.215  12.756  10.562 -0.2420 -0.1694  0.3099
32995ION     NA48464   0.872   7.479  11.511  0.3465  0.1445 -0.0136
32996ION     NA48465   1.048  17.752  12.218  0.0245 -0.2269  0.3945
32997ION     NA48466   9.976   9.285   6.110  0.2206 -0.2683 -0.1418
32998ION     NA48467   3.373  11.031   5.614  0.0979 -0.1151  0.2955
32999ION     NA48468  16.437   8.078  12.123 -0.1803 -0.1722  0.4046
33000ION     NA48469   3.952   5.987  10.531 -0.1197 -0.1020 -0.2483
33001ION     NA48470  17.001   2.851   6.034  0.2354  0.1474  0.0599
33002ION     NA48471   6.636   6.720  10.869  0.2046 -0.3615  0.0030
33003ION     NA48472   7.613   5.883   0.040  0.0427  0.1059 -0.1141
33004ION     NA48473  10.504   6.389  11.016  0.0720  0.1264 -0.0562
33005ION     NA48474   7.771   3.261  10.795 -0.1627  0.1488 -0.0564
33006ION     NA48475   9.170  13.656  11.077  0.1315 -0.2767 -0.0403
33007ION     NA48476   5.261  11.466  13.789 -0.0794  0.0385 -0.1488
33008ION     NA48477   7.022   6.606   4.826  0.1183 -0.0189  0.0560
33009ION     NA48478  14.190  16.227  10.508  0.0918 -0.0059 -0.0623
33010ION     NA48479   2.711   8.453  12.886  0.1904 -0.0173 -0.1169
33011ION     NA48480  16.188   4.164   3.251 -0.0969 -0.1192 -0.2602
33012ION     NA48481  13.977  13.781   2.688 -0.1599  0.2876  0.1495
33013ION     NA48482  11.176   8.135  10.943 -0.1249 -0.1854 -0.2888
33014ION     NA48483  13.004   9.322   2.590  0.2200  0.1161  0.1732
33015ION     NA48484   8.098   0.133  10.870 -0.2117  0.2773  0.2498
33016ION     NA48485   6.163  11.721  10.545 -0.1323 -0.0939  0.2432
33017ION     NA48486  15.805   1.256   6.180 -0.0792  0.0661  0.0125
33018ION     NA48487  12.778   3.239   4.637 -0.3417  0.0681 -0.1404
33019ION     NA48488   6.231  11.089   0.505  0.1187 -0.3457 -0.2417
33020ION     NA48489   7.826   0.356   6.042  0.2477 -0.1018 -0.1552
33021ION     NA48490  11.104   7.295   6.453 -0.2265  0.1378  0.0489
33022ION     NA48491   1.428   9.314   9.959  0.0220  0.3031 -0.0822
33023ION     NA48492   0.588   2.797  10.095  0.0949 -0.0388 -0.1113
33024ION     NA48493  15.957  15.386  11.852 -0.0242 -0.0643  0.2181
33025ION     NA48494  17.344   7.654  10.142  0.2102  0.1693  0.0405
33026ION     NA48495  15.958   4.854   3.731 -0.1219  0.0218 -0.0880
33027ION     NA48496   3.686  13.472  10.579 -0.0390 -0.2460  0.1444
33028ION     NA48497  10.518  15.766  10.989 -0.2034  0.0307  0.1145
33029ION     NA48498   9.106  11.831  10.899  0.1599  0.0925 -0.0268
33030ION     NA48499   3.978  16.683  10.818 -0.0811 -0.1151  0.0589
33031ION     NA48500   8.435  15.284  11.006 -0.1079 -0.0157 -0.2771
33032ION     NA48501   9.930  10.421  10.656  0.0710  0.1623  0.2459
33033ION     NA48502  16.295  10.277   2.935 -0.0487  0.2434 -0.1906
33034ION     NA48503  16.593  13.177   0.585  0.1795 -0.1608 -0.2320
33035ION     NA48504   6.837   0.785  11.013 -0.0637 -0.0091 -0.0393
33036ION     NA48505  13.380   3.136  11.071  0.2187 -0.1960 -0.1728
33037ION     NA48506   4.426  14.932  10.528  0.2226 -0.0774  0.2565
33038ION     NA48507   6.895   6.031   6.115 -0.1198  0.2263  0.1135
33039ION     NA48508  16.224  14.321  10.298 -0.1727 -0.3799  0.2527
33040ION     NA48509   9.496   5.501   6.292  0.0235  0.0966 -0.2182
33041ION     NA48510  14.443   0.988   6.268 -0.2656  0.2619 -0.0532
33042ION     NA48511  12.764  13.398  10.722 -0.0001 -0.2488  0.0640
33043ION     NA48512  15.423  14.408   6.018 -0.0260 -0.2410  0.1185
33044ION     NA48513   1.906   8.315   9.943 -0.0998 -0.0283  0.2237
33045ION     NA48514   2.909  16.015   5.885 -0.2472 -0.0458  0.2103
33046ION     NA48515  12.588   0.697   6.507  0.0651 -0.0314  0.0708
33047ION     NA48516   5.775  13.968  10.730 -0.2030  0.0120 -0.0996
33048ION     NA48517  15.397   3.743  10.623 -0.1404  0.0805  0.2461
33049ION     NA48518   6.009  15.587   5.780 -0.0607 -0.0383  0.0325
33050ION     NA48519  12.519   9.857   6.725 -0.1495  0.0536 -0.2371
33051ION     NA48520   6.910  11.302   6.141  0.0060  0.0288  0.0520
33052ION     NA48521   5.823  15.823  13.794  0.1916 -0.1878 -0.0284
33053ION     NA48522   5.354  12.588  10.731 -0.1597  0.1118  0.4362
33054ION     NA48523   3.164   1.146   5.814  0.0651  0.0557 -0.0730
33055ION     NA48524  13.863   7.049   6.296  0.0662  0.0141  0.0826
33056ION     NA48525  14.375   4.032   6.032  0.3011 -0.0865  0.3386
33057ION     NA48526   4.796   3.779   6.224  0.0513  0.0687  0.2622
33058ION     NA48527   1.264  11.558   4.311  0.5817  0.1418  0.1881
33059ION     NA48528   6.983   8.971  10.719 -0.0428  0.5445  0.3911
33060ION     NA48529   4.073   0.137  12.764  0.3255 -0.0523  0.1521
33061ION     NA48530  16.090  17.768  12.478  0.1736 -0.3103 -0.2032
33062ION     NA48531   6.092   7.441  10.966  0.1982 -0.0277  0.1870
33063ION     NA48532   2.848   9.691  10.150 -0.1915 -0.1258  0.0228
33064ION     NA48533  12.182  14.460   6.349 -0.1052 -0.2262  0.0503
33065ION     NA48534  11.789   0.799  11.450  0.1087 -0.1558 -0.2587
33066ION     NA48535  14.061  16.761  10.638 -0.4032  0.0486  0.2303
33067ION     NA48536   9.189   0.120   6.556  0.1464  0.2505  0.1083
33068ION     NA48537   6.471   8.269  10.969 -0.1868  0.3417 -0.3360
33069ION     NA48538  12.869  10.528   5.562 -0.0476 -0.0692  0.0342
33070ION     NA48539   8.852  13.694  12.098 -0.1067  0.0339 -0.1430
33071ION     NA48540  10.220  17.428   1.354 -0.1131 -0.1009  0.0228
33072ION     NA48541  12.754   9.845   4.343 -0.0762  0.0505 -0.0874
33073ION     NA48542   2.466   6.972  10.226 -0.0630 -0.1979 -0.0080
33074ION     NA48543   4.257  10.708  15.023  0.3303  0.2158  0.3490
33075ION     NA48544  10.921   5.973   5.440 -0.1129 -0.0399  0.1232
33076ION     NA48545   9.059   6.503  10.955 -0.3695 -0.0146  0.0247
33077ION     NA48546   5.272   1.893   4.631  0.2159 -0.0342 -0.0867
33078ION     NA48547   0.723  13.829   2.100  0.1098  0.0377  0.2954
33079ION     NA48548  17.681  15.905  10.202 -0.1122 -0.1149  0.1276
33080ION     NA48549  11.357   6.100  11.130  0.0903  0.0188 -0.1529
33081ION     NA48550  15.567  17.161  10.576  0.3111  0.0645  0.2735
33082ION     NA48551   1.655  15.425  10.336  0.4955 -0.0845 -0.1389
33083ION     NA48552   2.152   3.662  10.183 -0.1558 -0.0820  0.0588
33084ION     NA48553   8.855   2.019  11.094 -0.6094  0.0466 -0.0764
33085ION     NA48554  13.896  12.563  10.602  0.2054 -0.2852  0.1473
33086ION     NA48555   3.271  17.382  10.462 -0.1449 -0.2622 -0.0131
33087ION     NA48556   0.698  11.025   9.957  0.0706 -0.1325 -0.2288
33088ION     NA48557  14.258   3.103  10.941 -0.2727  0.3648  0.1812
33089ION     NA48558   6.931  15.755  10.750  0.2308 -0.1268 -0.3462
33090ION     NA48559  12.342  16.286  11.066 -0.0294  0.1410  0.0229
33091ION     NA48560   0.008  11.214  10.059 -0.2492  0.0429 -0.0643
33092ION     NA48561  14.150  14.667  13.132  0.1475 -0.2281 -0.3781
33093ION     NA48562   4.869   1.686  10.701  0.0194  0.2110  0.1516
33094ION     NA48563   2.792   4.275  10.121 -0.0687 -0.1427 -0.0644
33095ION     NA48564   7.813   4.657   0.276  0.0286 -0.1217  0.1449
33096ION     NA48565   5.628  14.688   0.020  0.0913 -0.0217 -0.0523
33097ION     NA48566   0.656   9.819  10.094 -0.0005  0.0693 -0.0791
33098ION     NA48567  17.101   3.301  12.631 -0.1059 -0.0229  0.1041
33099ION     NA48568   1.383  13.646   9.953  0.0069  0.0426  0.2025
33100ION     NA48569  14.803  14.209  10.590 -0.1500 -0.2226 -0.1880
33101ION     NA48570   7.483   4.626  10.918 -0.0024 -0.2715  0.1350
33102ION     NA48571   7.355   9.875  10.914  0.1408 -0.0630 -0.1017
33103ION     NA48572   8.634   7.724   4.283 -0.1387  0.1504  0.2991
33104ION     NA48573   1.736   1.727  10.213 -0.0791 -0.1785 -0.1084
33105ION     NA48574  13.545   0.323  11.814  0.0543 -0.0609  0.0757
33106ION     NA48575   2.683   1.716  10.418  0.0621  0.1645 -0.1348
33107ION     NA48576   1.372   3.160  10.092  0.1930 -0.0620 -0.0846
33108ION     NA48577   3.604   4.757  10.611  0.2248 -0.1538 -0.1745
33109ION     NA48578  11.866   9.049   4.852  0.1703 -0.0693  0.2162
33110ION     NA48579  16.230   3.975   4.280  0.1283  0.2156 -0.0094
33111ION     NA48580   8.487  12.776   6.556 -0.0662 -0.3136  0.1629
33112ION     NA48581   1.324  11.966  14.956 -0.0135  0.0729  0.0549
33113ION     NA48582  13.320   3.401   2.078 -0.2889  0.3666 -0.1138
33114ION     NA48583   6.252   3.167  10.867 -0.2276  0.1292  0.1111
33115ION     NA48584  10.556   9.476  11.774  0.2573  0.2432 -0.0307
33116ION     NA48585  14.579  17.637  10.574 -0.0032  0.0338  0.1998
33117ION     NA48586   3.632  16.358   5.286 -0.1321  0.1011  0.1737
33118ION     NA48587   6.903   5.163   4.157 -0.1414  0.0180 -0.2852
33119ION     NA48588  15.022   1.733  10.598  0.3452  0.0073 -0.0396
33120ION     NA48589   7.863  11.247   6.396  0.0554 -0.1231 -0.0095
33121ION     NA48590  17.569   1.456  10.244  0.1648  0.1275  0.0465
33122ION     NA48591  13.225  14.550  12.929  0.1093 -0.0081  0.0377
33123ION     NA48592   3.914   6.886  10.493 -0.0004  0.1105 -0.2544
33124ION     NA48593  13.595   9.871  10.794 -0.1772 -0.0332  0.1075
33125ION     NA48594   4.388  16.445  10.812  0.1519  0.1793 -0.2124
33126ION     NA48595   6.663   8.196  12.838  0.3628  0.0070  0.0928
33127ION     NA48596  14.591   6.590   6.066  0.0992  0.2167 -0.0704
33128ION     NA48597  17.234  14.336  11.500  0.0797 -0.1717  0.0239
33129ION     NA48598  15.413   0.036  10.491 -0.0520 -0.0105  0.0032
33130ION     NA48599  13.470  14.091  10.572 -0.1373 -0.3089 -0.0614
33131ION     NA48600   3.963  17.276  15.622  0.0406  0.0872 -0.2018
33132ION     NA48601   4.631  11.179  10.388  0.0922 -0.0607  0.1230
33133ION     NA48602   4.326   4.595  14.874 -0.0816 -0.3872 -0.2881
33134ION     NA48603   5.561  10.051  10.530  0.2501  0.0798 -0.0513
33135ION     NA48604  13.313  16.220  14.760 -0.0580  0.0184  0.1028
33136ION     NA48605  17.472   2.278  13.505 -0.0369  0.0381 -0.2551
33137ION     NA48606  15.107   4.703  10.783  0.2439  0.4663  0.2683
33138ION     NA48607   4.835   5.435  10.443 -0.2293 -0.0221  0.1949
33139ION     NA48608   7.244   2.374  10.946  0.0529 -0.0519  0.4349
33140ION     NA48609  15.578  10.190  16.677  0.1648 -0.0486 -0.1253
33141ION     NA48610   7.328  16.703  14.857 -0.1694  0.4535 -0.0093
33142ION     NA48611   1.956  17.635   3.376 -0.2599 -0.2322 -0.0994
33143ION     NA48612   9.168  16.984  11.204  0.3681 -0.0800 -0.2592
33144ION     NA48613   7.476   9.357   3.912  0.0583  0.2477 -0.0816
33145ION     NA48614   0.293  16.648  10.580 -0.1904 -0.0296 -0.1317
33146ION     NA48615   4.968   4.350   3.572 -0.1266  0.1504 -0.1336
33147ION     NA48616  14.655   3.416  11.057 -0.1898 -0.0081 -0.0770
33148ION     NA48617   8.961  14.588  11.125  0.1163 -0.3474  0.0110
33149ION     NA48618   1.323   6.050  10.197  0.0480 -0.0143  0.1481
33150ION     NA48619   5.823   2.019  10.887  0.1562  0.0306  0.0472
33151ION     NA48620   1.756   5.529   5.496 -0.1078 -0.1424  0.1117
33152ION     NA48621   1.359   1.642  13.315 -0.3411 -0.0388  0.1485
33153ION     NA48622  15.689  12.525  10.183  0.1141 -0.1074  0.2149
33154ION     NA48623   5.170  10.635   4.097  0.3127 -0.1391  0.0172
33155ION     NA48624   6.002   7.852   6.364  0.1770 -0.1489 -0.2763
33156ION     NA48625  16.271  16.686  10.297 -0.0119  0.1363 -0.1426
33157ION     NA48626   6.928   3.012   2.400 -0.1932 -0.0651 -0.0865
33158ION     NA48627  13.455   1.506  10.923  0.2196 -0.2873 -0.3256
33159ION     NA48628  14.581   0.475  11.556 -0.1452 -0.1217 -0.0003
33160ION     NA48629  13.308   6.598  11.685  0.0001 -0.0403  0.0179
33161ION     NA48630  12.572   2.536  16.565  0.0008  0.0570 -0.1563
33162ION     NA48631  14.571  11.327  10.611 -0.1482 -0.0920  0.1221
33163ION     NA48632   0.911  12.635   9.857  0.2302 -0.0573 -0.0965
33164ION     NA48633   9.957   6.908  10.967  0.1684  0.0964  0.1238
33165ION     NA48634   1.332  16.403  10.484  0.0994 -0.1622  0.1198
33166ION     NA48635  11.421  13.691  11.045 -0.0782  0.0594  0.1047
33167ION     NA48636   0.109   8.548   9.979  0.2925  0.0745  0.2987
33168ION     NA48637   0.465   5.435   0.277  0.1359 -0.0216  0.1777
33169ION     NA48638  14.968   8.125  16.797  0.0029  0.0433 -0.1607
33170ION     NA48639  12.336  17.066  16.575  0.2870  0.0554  0.0367
33171ION     NA48640  12.228   8.328   6.244 -0.0635 -0.1130  0.0960
33172ION     NA48641   9.707   9.708  15.749 -0.1443 -0.0406 -0.2479
33173ION     NA48642  11.808  16.845  13.059  0.1145  0.1486  0.1313
33174ION     NA48643   6.925  17.414   1.495 -0.0400 -0.0771  0.0707
33175ION     NA48644   1.213   7.637   9.929 -0.0400  0.0849  0.0127
33176ION     NA48645   4.273   7.649   1.785 -0.2917  0.0517 -0.2454
33177ION     NA48646   1.353  11.745  12.070 -0.1563 -0.0992  0.1821
33178ION     NA48647   3.509  14.575  10.421 -0.2825  0.4232 -0.0639
33179ION     NA48648   2.030   9.491   0.493 -0.0839 -0.1711  0.0437
33180ION     NA48649   3.820   4.137  14.091 -0.1292 -0.0427 -0.0690
33181ION     NA48650   5.254  10.484  11.989  0.3626 -0.3947  0.0015
33182ION     NA48651  14.608   2.425  10.804 -0.1989 -0.3535  0.0925
33183ION     NA48652   5.929   6.476  11.004  0.0380  0.3438  0.0889
33184ION     NA48653   7.575   6.308  10.976 -0.0803 -0.0591  0.1370
33185ION     NA48654   4.387  10.382  10.255  0.3066 -0.1437 -0.1906
33186ION     NA48655  17.729  14.700  10.305 -0.1109  0.1103  0.2839
33187ION     NA48656  17.696   5.890   9.912 -0.0241  0.0540  0.1477
33188ION     NA48657  12.320   0.804  10.686  0.3354  0.1440  0.1808
33189ION     NA48658   4.382   6.661   3.573  0.0339 -0.2266 -0.1872
33190ION     NA48659  11.842  15.559  10.972  0.0795  0.1394 -0.0832
33191ION     NA48660  10.925  11.556  13.635  0.2261 -0.3319 -0.0148
33192ION     NA48661   2.115  12.147  10.189 -0.3323 -0.0962 -0.1217
33193ION     NA48662   4.453   5.793   4.442 -0.0344  0.0310  0.3971
33194ION     NA48663  10.684   6.373   6.397 -0.3042 -0.2553  0.0285
33195ION     NA48664  10.858  12.539  11.021 -0.0685 -0.0544 -0.3751
33196ION     NA48665  11.245  10.617  11.064 -0.2105 -0.1803  0.0807
33197ION     NA48666  14.255  10.387  10.865  0.3674  0.2405 -0.1032
33198ION     NA48667   5.042   7.408  13.406  0.0584 -0.0105 -0.0496
33199ION     NA48668   2.819  15.520   5.782 -0.1423  0.1250 -0.0321
33200ION     NA48669   3.861   8.675   5.602 -0.4569 -0.1728  0.3346
33201ION     NA48670  12.422  11.268  10.768  0.4264 -0.2428  0.2794
33202ION     NA48671   7.158  11.526  10.538 -0.1432 -0.1128  0.0695
33203ION     NA48672   5.479  16.361  11.012  0.0263 -0.1159 -0.2211
33204ION     NA48673  10.672   0.597  10.953 -0.1863 -0.1642 -0.3619
33205ION     NA48674  16.663   8.721   9.877  0.2738  0.0251 -0.1414
33206ION     NA48675  16.168   5.627  10.754 -0.0974  0.2516 -0.0610
33207ION     NA48676   8.329   5.999  10.900  0.2730  0.2039  0.2209
33208ION     NA48677   4.168   2.345  10.594 -0.1092 -0.0457  0.0562
33209ION     NA48678   9.990   9.407  10.723 -0.1201  0.0633  0.1234
33210ION     NA48679   5.864   6.010   6.153  0.3184 -0.0963 -0.0135
33211ION     NA48680   4.788   4.360  10.586 -0.0350  0.2704  0.1477
33212ION     NA48681   9.295   9.000  10.754 -0.0401  0.1122 -0.3050
33213ION     NA48682   9.992  12.976   0.549  0.0220  0.0355  0.0668
33214ION     NA48683   8.279  10.180  11.166 -0.1606  0.0468  0.0873
33215ION     NA48684  16.927  11.444  10.186 -0.0024 -0.0202 -0.0346
33216ION     NA48685   8.003   0.348   0.978 -0.1338  0.2258 -0.0368
33217ION     NA48686  14.964  16.836  10.593  0.1277  0.1172 -0.2301
33218ION     NA48687   6.757  12.164  15.788  0.1639  0.0532  0.0180
33219ION     NA48688  15.259   5.715   5.459  0.0564  0.1930 -0.2164
33220ION     NA48689   2.220  10.866  10.259  0.2726 -0.2139 -0.0498
33221ION     NA48690  10.413  12.034  10.842  0.2637 -0.0984 -0.1477
33222ION     NA48691  10.407  11.455  16.475  0.1980 -0.1474  0.1842
33223ION     NA48692  11.915   6.714  10.994  0.4591 -0.1828 -0.2363
33224ION     NA48693   2.127  16.066   5.111 -0.0124 -0.4142 -0.0964
33225ION     NA48694  11.716  16.386   6.581 -0.1272 -0.1533 -0.0408
33226ION     NA48695   1.357   0.800  10.423  0.0215 -0.0265 -0.1590
33227ION     NA48696   7.081  16.483   4.100  0.1771  0.3021  0.1336
33228ION     NA48697   5.466   3.095  10.567  0.1361  0.3548 -0.2282
33229ION     NA48698  13.473  17.772   5.808 -0.2409 -0.1420 -0.1063
33230ION     NA48699  16.823  14.968  10.269  0.0935 -0.2441 -0.0693
33231ION     NA48700  12.656  17.636   6.301 -0.1488 -0.0131 -0.0050
33232ION     NA48701  11.331  12.130   6.283  0.1007 -0.1283 -0.0741
33233ION     NA48702  16.151   6.501  10.562 -0.0376  0.3166 -0.1592
33234ION     NA48703  11.444  17.508   1.168  0.1071  0.0145  0.0118
33235ION     NA48704   7.107  15.267   2.519  0.0469 -0.1790 -0.0109
33236ION     NA48705   7.175   5.376  15.233 -0.0019  0.0859 -0.3860
33237ION     NA48706   8.686   0.617  11.069  0.5040  0.0259  0.1009
33238ION     NA48707   4.417   7.814   5.947 -0.1204  0.1141  0.1960
33239ION     NA48708   2.099   5.583  10.037  0.1054 -0.2311  0.1813
33240ION     NA48709  14.668  13.729  10.589 -0.0691  0.0200  0.1821
33241ION     NA48710  16.858   5.149  10.827 -0.1072  0.3449 -0.3684
33242ION     NA48711  12.981  15.414   6.285 -0.2149 -0.1609 -0.0911
33243ION     NA48712   2.937  11.550  10.249 -0.0500  0.1614 -0.2282
33244ION     NA48713   3.135  13.089   2.750  0.0520  0.0492  0.2269
33245ION     NA48714  11.803   9.283  13.448 -0.1474 -0.0619  0.0055
33246ION     NA48715   1.391   6.363   5.324  0.1618 -0.1825 -0.2075
33247ION     NA48716  16.677  12.326   9.988 -0.0688 -0.0475 -0.1741
33248ION     NA48717  17.623   9.488   9.989 -0.1741 -0.0962 -0.2318
33249ION     NA48718   3.603  16.624  13.131  0.5036 -0.0344 -0.2913
33250ION     NA48719  12.015   5.436   1.987  0.3833 -0.1544  0.1422
33251ION     NA48720   0.043  10.335  16.641  0.2110 -0.1665 -0.0500
33252ION     NA48721   7.578  15.122  10.947 -0.0054 -0.4953  0.0427
33253ION     NA48722  15.948   9.393  10.143  0.0812  0.0118  0.0730
33254ION     NA48723  16.252  13.380  10.134  0.0437  0.2124 -0.0636
33255ION     NA48724   0.459   8.475   5.375 -0.2680 -0.0482  0.1501
33256ION     NA48725   1.592  17.161  10.420  0.1432  0.0379  0.1274
33257ION     NA48726  16.115   1.206   5.323 -0.0407 -0.0331  0.1359
33258ION     NA48727   0.735  14.171  10.213  0.0689  0.2712 -0.1800
33259ION     NA48728   9.909   5.082  11.173  0.0245 -0.1546 -0.1083
33260ION     NA48729   4.692  15.856   5.873  0.1542 -0.1858  0.2078
33261ION     NA48730   0.322   7.677   9.929  0.0777 -0.2900  0.0204
33262ION     NA48731   8.290   1.997  14.564 -0.4116 -0.1658 -0.1103
33263ION     NA48732   6.502   9.481  15.035  0.0714 -0.3988 -0.3118
33264ION     NA48733   8.952   7.490  10.933  0.1151  0.2850  0.1405
33265ION     NA48734   3.899  12.224   2.752  0.0617 -0.1611  0.0541
33266ION     NA48735  12.753   1.368  14.905 -0.0288 -0.0771  0.2298
33267ION     NA48736   5.720   3.982  10.596 -0.1039 -0.1956 -0.2597
33268ION     NA48737   1.375  10.531   9.861 -0.0461  0.1479 -0.1008
33269ION     NA48738  13.936   2.271  10.793 -0.1660 -0.2394 -0.0568
33270ION     NA48739  14.054   9.103  10.780  0.0853  0.0736 -0.0540
33271ION     NA48740  11.403  12.107  10.795 -0.0918  0.0523 -0.1781
33272ION     NA48741   0.703   3.282   5.384  0.4553  0.0493 -0.0701
33273ION     NA48742  15.230   3.048   1.381 -0.0815  0.0570 -0.0491
33274ION     NA48743  12.503  17.694   2.516 -0.1745 -0.0638  0.2151
33275ION     NA48744   9.185   1.567   0.801 -0.1605  0.3061  0.3070
33276ION     NA48745   7.950  11.512   1.650  0.2957 -0.3566 -0.2555
33277ION     NA48746  16.423  11.236   2.725  0.0714 -0.0420  0.2844
33278ION     NA48747   1.298  11.847  10.045 -0.0579  0.0442 -0.0864
33279ION     NA48748   0.867   5.419   5.603  0.0983  0.1462  0.0041
33280ION     NA48749  16.520  10.746   5.512 -0.3003  0.1851  0.2286
33281ION     NA48750   2.190   9.094  10.330  0.1165  0.1362 -0.2452
33282ION     NA48751   1.841   4.305   5.583 -0.0492  0.4227  0.3268
33283ION     NA48752  14.618   6.997  10.770  0.1528 -0.0008 -0.1684
33284ION     NA48753  11.235  14.168  11.062  0.2092 -0.3831 -0.0765
33285ION     NA48754   4.823   2.970  16.783 -0.1504 -0.3158 -0.2067
33286ION     NA48755  16.625   7.818   3.857 -0.0687  0.0704  0.2907
33287ION     NA48756   6.475   6.061   6.327  0.1462 -0.1699 -0.2741
33288ION     NA48757   2.885  13.402  10.532 -0.0171  0.1809 -0.2270
33289ION     NA48758  13.603   8.684   1.727  0.0184 -0.0598 -0.0042
33290ION     NA48759   5.398   0.698   6.290 -0.0517 -0.1001  0.1461
33291ION     NA48760   5.522  13.674   6.224  0.0535  0.0732  0.1767
33292ION     NA48761   7.849  16.941  10.673  0.0781 -0.2460  0.0064
33293ION     NA48762   4.624   2.843  10.788 -0.0946 -0.0398  0.0253
33294ION     NA48763  11.606   4.717  11.068 -0.1140  0.1393  0.0568
33295ION     NA48764   2.812  10.296   5.341  0.1013 -0.1743 -0.2635
33296ION     NA48765  13.903  14.327  10.619 -0.1066 -0.1944  0.2268
33297ION     NA48766   5.771   7.999   3.905  0.0653  0.3262 -0.3572
33298ION     NA48767   3.216   5.478  10.483 -0.1635  0.0523 -0.0917
33299ION     NA48768   1.047   1.169  10.208  0.2482  0.2377 -0.3318
33300ION     NA48769  17.253   2.279  10.208 -0.1337 -0.0771 -0.2232
33301ION     NA48770   3.198  16.534  10.649 -0.3776  0.0616  0.1807
33302ION     NA48771   7.841   8.595  10.842  0.1266  0.0755 -0.0438
33303ION     NA48772  15.471  15.437  10.487  0.0404  0.2966  0.1557
33304ION     NA48773  16.339   4.383  10.425  0.2110  0.0750 -0.1820
33305ION     NA48774   4.160  15.591  12.260  0.1776 -0.0406 -0.1607
33306ION     NA48775  16.050   9.850   5.352  0.2483  0.2386 -0.2583
33307ION     NA48776  13.483   6.239  15.325  0.0330 -0.0610  0.0641
33308ION     NA48777  10.799   1.099   5.905  0.1987 -0.2266  0.0138
33309ION     NA48778   7.727  14.974  14.246  0.1329 -0.1944  0.3831
33310ION     NA48779   6.373  17.208  10.671  0.1828 -0.0061 -0.2596
33311ION     NA48780   4.931   9.069   5.597  0.1675 -0.2794  0.0328
33312ION     NA48781   5.432   4.816  10.956 -0.0107 -0.0406 -0.0101
33313ION     NA48782   2.709   6.141  10.422 -0.0530 -0.2782  0.0975
33314ION     NA48783  12.427  12.172  11.130 -0.1993  0.1317 -0.2350
33315ION     NA48784  10.151  16.061   6.482  0.1778 -0.1995 -0.0073
33316ION     NA48785  10.354  10.375   1.666 -0.1064  0.0082  0.2661
33317ION     NA48786   3.335  12.685  10.515 -0.0724 -0.1347 -0.3298
33318ION     NA48787   6.840  11.084  10.575 -0.1790  0.1663  0.0716
33319ION     NA48788   7.095  16.546  10.857  0.0436  0.0636  0.0507
33320ION     NA48789  12.679   8.164  10.667 -0.3736  0.0055  0.1401
33321ION     NA48790  16.534   4.154  15.069 -0.2597  0.0184 -0.1429
33322ION     NA48791   4.182   6.879   5.980  0.0305 -0.1435  0.0883
33323ION     NA48792   9.180  13.451  14.468 -0.1053  0.0646 -0.0420
33324ION     NA48793  10.999   3.569   2.519  0.2923  0.2415 -0.2551
33325ION     NA48794   5.347   7.884  10.929  0.0697  0.1058 -0.0743
33326ION     NA48795   0.925   1.730   5.929 -0.1968  0.1933 -0.0370
33327ION     NA48796   3.836  14.954   4.827 -0.0676  0.2970 -0.3676
33328ION     NA48797   1.093   4.678   9.839  0.3840  0.2664  0.0352
33329ION     NA48798   7.493  13.786  11.206  0.2561 -0.1277 -0.1468
33330ION     NA48799  16.153   7.438  11.159 -0.0179 -0.0373 -0.4821
33331ION     NA48800   9.889   7.657  10.896  0.2015 -0.2803  0.0596
33332ION     NA48801  11.876  12.937  10.960  0.1975 -0.1626  0.1482
33333ION     NA48802   3.673   8.618  10.249 -0.0637  0.0629 -0.2049
33334ION     NA48803  10.590  15.208   6.444  0.3078 -0.1593  0.1621
33335ION     NA48804   4.137   2.135   4.971 -0.0908 -0.1247 -0.3915
33336ION     NA48805  15.916   3.603  10.511  0.0291  0.0600 -0.1417
33337ION     NA48806  17.248   1.745   2.361 -0.3035 -0.3308 -0.0556
33338ION     NA48807   2.122   3.065   0.385 -0.0423 -0.1724  0.1629
33339ION     NA48808  15.010  10.410   5.642  0.2744 -0.0131 -0.1016
33340ION     NA48809   3.801  15.405  10.389  0.2609 -0.1422  0.0100
33341ION     NA48810   9.894   3.836  10.776  0.1265 -0.0045  0.1057
33342ION     NA48811  10.461   3.196  10.914  0.3736 -0.1458 -0.0625
33343ION     NA48812   1.412  11.538   5.269  0.0536  0.2861  0.2680
33344ION     NA48813   7.791  15.037   6.591  0.0628  0.0925 -0.0600
33345ION     NA48814   4.348   1.153  13.027  0.2997 -0.1599 -0.1686
33346ION     NA48815  10.064   5.594  12.813 -0.0540 -0.1621 -0.0150
33347ION     NA48816   7.920   2.347  10.995 -0.2237  0.3478  0.0776
33348ION     NA48817  11.590  16.652  11.444  0.1082 -0.2698 -0.1360
33349ION     NA48818  15.455   4.406   5.994  0.0779 -0.0621  0.0067
33350ION     NA48819   8.117  10.387  10.717  0.0736 -0.4423  0.1228
33351ION     NA48820  12.153   0.087  15.376 -0.2419 -0.0397  0.2138
33352ION     NA48821  13.333   5.543  10.944 -0.0739  0.1522  0.1709
33353ION     NA48822   1.717   9.565   5.563  0.3796  0.2436  0.2137
33354ION     NA48823  10.172   9.245  13.119  0.0793  0.0955  0.1811
33355ION     NA48824   5.502  17.710  10.848  0.0830  0.1546 -0.2792
33356ION     NA48825  13.840   1.974   3.700 -0.1061 -0.2019  0.2898
33357ION     NA48826   1.790  16.976  16.599 -0.1691  0.0003 -0.3087
33358ION     NA48827  13.666  13.701   1.024  0.0351 -0.0906 -0.3652
33359ION     NA48828  13.010   2.228  11.266 -0.2313 -0.2701  0.1861
33360ION     NA48829  15.824   8.628  10.387  0.0573  0.2168 -0.5212
33361ION     NA48830   1.195  13.179  15.703  0.0940  0.1119 -0.1331
33362ION     NA48831   2.136   9.927   9.916  0.0797 -0.1062 -0.0910
33363ION     NA48832   5.177   6.095  10.823 -0.2297  0.0086  0.0911
33364ION     NA48833   9.604  11.918  11.101  0.0343 -0.1433 -0.1039
33365ION     NA48834  17.361   5.809  11.115 -0.0173  0.1616 -0.1731
33366ION     NA48835   0.760  15.128  10.170 -0.0361  0.2616 -0.5990
33367ION     NA48836  14.845   9.611  10.664  0.1501  0.1415 -0.1175
33368ION     NA48837   2.070   8.874   5.491 -0.2980 -0.1117 -0.0157
33369ION     NA48838   0.329  13.200   5.744  0.1608 -0.1085  0.1188
33370ION     NA48839   4.918  17.067  10.716  0.0591 -0.0651  0.2581
33371ION     NA48840   4.802   2.125   6.350  0.0388 -0.1073  0.1577
33372ION     NA48841   7.053  13.108  10.890 -0.3205 -0.0153  0.0402
33373ION     NA48842   6.448   7.294   2.799 -0.0052 -0.3676  0.0546
33374ION     NA48843   9.134  12.053   6.526  0.1679 -0.2467 -0.2948
33375ION     NA48844   8.258   7.814  10.928 -0.0459 -0.0883  0.1221
33376ION     NA48845   6.123  13.094  10.873 -0.0629  0.1625 -0.0106
33377ION     NA48846  16.952  14.539   6.002  0.1045 -0.1560  0.1132
33378ION     NA48847  15.785   4.705  10.639 -0.1163 -0.1723  0.0170
33379ION     NA48848   2.616  14.479  10.494  0.1437  0.1324  0.3407
33380ION     NA48849  13.622   1.460   6.222  0.0600 -0.1816 -0.0440
33381ION     NA48850  12.665   1.355   6.232  0.0924 -0.0133 -0.0878
33382ION     NA48851  12.796  15.523  11.021  0.1029  0.2495 -0.1539
33383ION     NA48852   1.676   8.404  14.293  0.0633  0.2759 -0.1720
33384ION     NA48853   4.423   3.002   6.234 -0.1147  0.0620  0.4677
33385ION     NA48854   3.594   9.711  10.636 -0.0791 -0.0870  0.1363
33386ION     NA48855   1.517  11.339   9.903 -0.1672 -0.4402  0.0064
33387ION     NA48856   7.528  12.427  10.951  0.1531 -0.1615 -0.0375
33388ION     NA48857   1.730   8.232  13.195 -0.1540 -0.0544  0.2007
33389ION     NA48858   5.728   8.524   3.316  0.2999 -0.0708  0.1721
33390ION     NA48859  15.687   4.078  12.012 -0.1835 -0.0021 -0.1676
33391ION     NA48860  16.411   9.609   2.211  0.2889 -0.1651 -0.0080
33392ION     NA48861  17.764   6.890   9.749  0.0552 -0.0037  0.0750
33393ION     NA48862   4.847  14.154  10.814  0.3512  0.0602  0.0747
33394ION     NA48863  12.630   5.044  10.876 -0.2300  0.3624 -0.1125
33395ION     NA48864   9.102  12.620  11.305  0.0802  0.0613  0.0799
33396ION     NA48865  11.260  11.286  15.459 -0.3494 -0.0036  0.2528
33397ION     NA48866   0.433  11.703   5.560 -0.0776 -0.3030  0.0599
33398ION     NA48867   6.792   6.028  11.021 -0.2668  0.1129 -0.0903
33399ION     NA48868   5.909   8.811  10.841 -0.0577 -0.1767 -0.0551
33400ION     NA48869  13.831   3.841  10.926 -0.1584  0.0959  0.1057
33401ION     NA48870   7.681   4.468   6.413 -0.0693 -0.1594 -0.1141
33402ION     NA48871   2.820   2.974  10.394 -0.0308  0.3662 -0.0640
33403ION     NA48872  16.641  17.210  10.421  0.2618  0.0185 -0.1516
33404ION     NA48873  12.299   6.472   6.719  0.2766 -0.1407  0.0378
33405ION     NA48874  15.131  15.213  12.273  0.0343  0.0631 -0.0645
33406ION     NA48875   9.951  14.486  11.210 -0.0567 -0.0480 -0.1501
33407ION     NA48876  15.433  16.324  10.515  0.1486  0.1509  0.1681
33408ION     NA48877   9.022   6.645  12.158 -0.0528 -0.0851 -0.0719
33409ION     NA48878   2.505  17.204  10.577 -0.0868 -0.0111  0.1315
33410ION     NA48879  12.850   4.003  10.776 -0.0942  0.1630  0.2789
33411ION     NA48880   7.247  10.671  10.693  0.2387  0.2065  0.2208
33412ION     NA48881  13.810  11.621  10.775  0.2684  0.2210  0.2061
33413ION     NA48882   6.625  13.454  10.817  0.4800  0.2733  0.0018
33414ION     NA48883   0.715  11.893   9.883 -0.0210  0.0363  0.2708
33415ION     NA48884   9.409   5.532  11.454 -0.1826  0.1218  0.2450
33416ION     NA48885   9.256  11.849  16.111 -0.0202  0.3122  0.1397
33417ION     NA48886  17.041   9.215   5.469 -0.1149  0.0567  0.0981
33418ION     NA48887  10.746   7.337  10.848  0.0855  0.3725 -0.1714
33419ION     NA48888   0.096   3.892  10.364 -0.4230  0.2723 -0.0245
33420ION     NA48889   5.694  17.145   6.380 -0.0939 -0.1294  0.1512
33421ION     NA48890  17.209  16.624  10.399  0.2409 -0.1947 -0.1661
33422ION     NA48891  12.525   3.169   2.686  0.0630  0.2212 -0.2961
33423ION     NA48892  11.968  11.305  11.129 -0.2462 -0.0253 -0.2973
33424ION     NA48893  12.978   0.338  11.057 -0.2342 -0.1172 -0.4326
33425ION     NA48894   3.758  15.960   5.935 -0.3038  0.0198  0.0043
33426ION     NA48895   6.853  14.132   0.092 -0.1410  0.0685 -0.0270
33427ION     NA48896  11.756  17.145  11.012  0.0494  0.1409 -0.0715
33428ION     NA48897  10.130   8.658  10.942  0.0978 -0.0054 -0.2911
33429ION     NA48898   5.422  11.393  10.451  0.1058  0.2231 -0.2130
33430ION     NA48899   9.083   2.858  12.177 -0.0847  0.0554 -0.1353
33431ION     NA48900   3.428   3.992  10.502 -0.1019 -0.3000 -0.1407
33432ION     NA48901  16.160  10.974  10.349 -0.0591  0.0183  0.2003
33433ION     NA48902  17.490  12.058   9.923 -0.0637  0.1551  0.0975
33434ION     NA48903   6.240  12.547  10.784 -0.1607 -0.1650 -0.2375
33435ION     NA48904   8.329  12.097  10.950 -0.1787 -0.0682  0.1605
33436ION     NA48905   6.226  16.185  10.509 -0.0423  0.1529 -0.1101
33437ION     NA48906  11.087   3.635  11.095 -0.1025  0.1630 -0.0325
33438ION     NA48907  16.751  13.213   5.726 -0.1106 -0.0815 -0.2283
33439ION     NA48908  12.616  11.813   5.972 -0.2633 -0.2481 -0.0441
33440ION     NA48909  13.732  17.496  10.684  0.2483  0.1193 -0.0728
33441ION     NA48910   4.753   7.189  10.746 -0.0191  0.1460 -0.1413
33442ION     NA48911   8.851   4.869   6.179 -0.1050  0.1325 -0.2337
33443ION     NA48912  11.429   0.215  10.811  0.1023  0.1561  0.2513
33444ION     NA48913  15.877   0.163   5.818  0.3333  0.1988  0.0814
33445ION     NA48914   9.700  16.077  11.102 -0.1054  0.1898  0.2946
33446ION     NA48915   5.157  10.481   2.434 -0.1532 -0.3502 -0.1142
33447ION     NA48916   7.708  14.566  10.908  0.0601  0.0216  0.0288
33448ION     NA48917   4.696   8.709  10.648 -0.0085 -0.4061 -0.1542
33449ION     NA48918  13.443  11.002  13.961  0.0616 -0.1309  0.1493
33450ION     NA48919  10.000  17.695  11.018  0.1960 -0.1235 -0.1626
33451ION     NA48920  10.669  14.350  11.231  0.1714  0.1948  0.0554
33452ION     NA48921  16.013  14.993   5.898 -0.0156  0.1127  0.0531
33453ION     NA48922   4.573   0.838  10.682  0.0983  0.0766 -0.0536
33454ION     NA48923  11.308   0.100  15.836  0.0239 -0.0483 -0.0430
33455ION     NA48924   3.736   0.395   3.833  0.0474  0.1369  0.1176
33456ION     NA48925  17.609  17.406  10.327  0.2855 -0.2788  0.2913
33457ION     NA48926  16.348   2.529   5.572  0.1171  0.0093  0.0216
33458ION     NA48927   5.090   5.933   1.332 -0.0655 -0.0264 -0.2926
33459ION     NA48928   1.193   8.114   9.794 -0.0998 -0.1624 -0.1190
33460ION     NA48929   8.371  13.952  11.079  0.1129 -0.1230  0.1122
33461ION     NA48930  16.984   9.384   0.491 -0.2036  0.0990  0.0325
33462ION     NA48931  15.122  14.249   2.922  0.0304 -0.1283 -0.1496
33463ION     NA48932  14.814   0.773  10.450  0.2659 -0.4413  0.0864
33464ION     NA48933   4.137  14.231   5.923 -0.0115  0.0020 -0.1193
33465ION     NA48934   8.782   9.531  10.733  0.0679  0.1151 -0.1842
33466ION     NA48935   6.725  15.355  10.532  0.0860  0.2007 -0.2141
33467ION     NA48936  13.571   4.787  10.830  0.0601  0.4324 -0.0713
33468ION     NA48937  10.205   1.660   6.117  0.0173  0.0005 -0.0751
33469ION     NA48938  13.206  16.277  10.733  0.0282 -0.0437  0.1460
33470ION     NA48939  13.809   6.803  10.891 -0.1135  0.3102  0.0262
33471ION     NA48940   3.847   7.879  10.191 -0.4008 -0.2094  0.0485
33472ION     NA48941   8.446  17.402  11.312  0.0548  0.0889  0.0462
33473ION     NA48942  17.432   2.747  11.086 -0.1119 -0.0382  0.0512
33474ION     NA48943  15.884  12.875   5.281 -0.1936 -0.1703 -0.0457
33475ION     NA48944  17.456  15.485  16.323  0.0010  0.0798 -0.0594
33476ION     NA48945  16.158  10.288  10.157  0.1083  0.0332 -0.0812
33477ION     NA48946  16.277   7.963  10.319  0.0094 -0.0545  0.2042
33478ION     NA48947  17.771   2.354  10.210 -0.1636 -0.3017 -0.3302
33479ION     NA48948  15.571   2.203  11.129 -0.1767  0.0896  0.2494
33480ION     NA48949  12.996   0.843  16.347  0.3592  0.3501  0.2531
33481ION     NA48950   9.052  12.407  13.192 -0.0679 -0.1677  0.2958
33482ION     NA48951   7.686  10.333  16.369  0.3000  0.0347 -0.1270
33483ION     NA48952  13.876  15.503   5.878  0.0736 -0.1793  0.1561
33484ION     NA48953   5.224  12.072  10.621  0.1196 -0.0010  0.2059
33485ION     NA48954   7.258   7.967   3.848 -0.3080 -0.2418  0.0745
33486ION     NA48955  13.063   6.352  10.931 -0.0635  0.1887  0.1252
33487ION     NA48956  13.607   5.809   2.212 -0.0892  0.1883 -0.2323
33488ION     NA48957  11.830   9.373  10.739 -0.0083 -0.1790  0.3389
33489ION     NA48958  15.482   6.938  10.845 -0.1873  0.0878  0.6527
33490ION     NA48959  16.041  11.569  10.150 -0.1855 -0.1448 -0.2839
33491ION     NA48960  13.141  16.864  10.747  0.0973  0.4134 -0.0168
33492ION     NA48961   1.901   4.544  10.063 -0.1509 -0.2860  0.0283
33493ION     NA48962   3.765   6.196  13.162  0.0605  0.3580 -0.0256
33494ION     NA48963  10.285  11.302  10.793 -0.0740  0.0014  0.2085
33495ION     NA48964   9.222   6.922   2.254  0.1341  0.0945  0.0189
33496ION     NA48965   8.598   2.802  11.091  0.3804  0.1638 -0.2017
33497ION     NA48966   4.283   5.242  10.610  0.0682  0.1022 -0.0018
33498ION     NA48967  17.121  13.133  10.021 -0.1754  0.0929 -0.1108
33499ION     NA48968   6.788   2.323  14.791 -0.2523  0.0519 -0.1969
33500ION     NA48969   6.641   4.113  10.841 -0.0503 -0.2780  0.0364
33501ION     NA48970   0.391   6.108   9.746  0.0997 -0.1900  0.1320
33502ION     NA48971   4.429  13.595  15.055  0.1932  0.0597 -0.1376
33503ION     NA48972  13.746  13.413  10.747 -0.0970  0.2336  0.0755
33504ION     NA48973   8.300   7.959  16.233  0.3215 -0.0027  0.2559
33505ION     NA48974   2.208  13.959  10.268  0.3171  0.0766  0.1695
33506ION     NA48975   9.657   2.010  12.019  0.0541 -0.2644 -0.0867
33507ION     NA48976   0.149  10.374  10.353  0.1758  0.3096  0.2486
33508ION     NA48977   1.513   2.206   2.032 -0.0082  0.4434 -0.1509
33509ION     NA48978   2.917   2.814   5.811 -0.0384  0.1290 -0.3082
33510ION     NA48979  17.456  12.280   3.025  0.1524  0.3836  0.1245
33511ION     NA48980  12.497   0.211   4.137  0.1175  0.1669 -0.0438
33512ION     NA48981   8.425   3.736  11.258 -0.1424 -0.3028  0.0449
33513ION     NA48982  17.388   3.209  10.347  0.1054  0.0039  0.1121
33514ION     NA48983   8.355   3.639   2.380  0.1847  0.0679  0.1729
33515ION     NA48984   1.576  14.455  10.286 -0.2411  0.2021  0.1411
33516ION     NA48985   8.046  12.906  11.047 -0.1410  0.1390  0.0469
33517ION     NA48986  15.340  16.850  16.697 -0.1788  0.0857 -0.1683
33518ION     NA48987   2.406  14.615   5.935  0.1139 -0.3064  0.1445
33519ION     NA48988  12.066   3.901  11.223 -0.0029 -0.2128 -0.1741
33520ION     NA48989   5.989   4.484  14.890 -0.2428  0.2765 -0.2246
33521ION     NA48990   0.078  12.149   5.580  0.3783 -0.1560 -0.3535
33522ION     NA48991   1.658   6.963  10.338  0.0594 -0.1242  0.4122
33523ION     NA48992  10.363   1.307  11.289  0.0968  0.0923  0.1233
33524ION     NA48993  12.449  17.622  10.827  0.0097 -0.0300  0.3082
33525ION     NA48994  16.325  14.884  10.195  0.2206  0.1918  0.1737
33526ION     NA48995  16.862   6.098  10.316 -0.2281  0.0856  0.3414
33527ION     NA48996  17.251   4.085  10.308 -0.0432 -0.1481  0.0047
33528ION     NA48997  17.162   6.138   5.453 -0.0615 -0.1516  0.0731
33529ION     NA48998   0.922   6.594  10.026  0.1003 -0.0350 -0.0468
33530ION     NA48999   1.676  15.453  11.719 -0.1365 -0.1732  0.0450
33531ION     NA49000   4.990  13.252  10.581  0.2849 -0.0777 -0.0235
33532ION     NA49001   8.085   1.203  11.149 -0.1124 -0.3956 -0.1533
33533ION     NA49002  10.206   4.193  10.888 -0.0012  0.0912  0.0353
33534ION     NA49003  15.434   5.995  10.990 -0.2497  0.1978  0.3221
33535ION     NA49004   9.185  10.244  11.233  0.1218 -0.3923 -0.1612
33536ION     NA49005  17.490  14.130  10.228 -0.0999 -0.0331  0.1847
33537ION     NA49006  10.347   7.688   3.840 -0.0794  0.0747 -0.3265
33538ION     NA49007   5.306   9.389  11.536 -0.0464  0.1135 -0.5131
33539ION     NA49008   2.156   0.939  10.224 -0.1579 -0.2108 -0.1568
33540ION     NA49009   4.345  13.405   5.948 -0.1055  0.3510 -0.0667
33541ION     NA49010  16.169  12.624   6.102  0.1309  0.0855 -0.2873
33542ION     NA49011   0.931   2.239  10.197 -0.1306  0.1623 -0.1287
33543ION     NA49012  16.836  13.106   4.356 -0.3169 -0.1124  0.1057
33544ION     NA49013  12.562  12.642   6.449  0.0481 -0.5458  0.2014
33545ION     NA49014  14.559   8.150  10.752 -0.0309  0.2421  0.0607
33546ION     NA49015  10.619   2.791   0.827  0.1337 -0.2186 -0.2371
33547ION     NA49016   2.693   8.468   9.992 -0.3443  0.3575  0.1366
33548ION     NA49017  10.031  11.068   5.659  0.1977 -0.1920 -0.0175
33549ION     NA49018   0.355   4.153  10.017  0.2218  0.2428  0.0544
33550ION     NA49019  14.727  12.826  10.599  0.1601  0.0517 -0.0069
33551ION     NA49020  13.766   9.600   6.562  0.0532  0.1906  0.1945
33552ION     NA49021   8.283   5.089  10.841 -0.0078  0.1190  0.0004
33553ION     NA49022   3.795   1.297   6.079 -0.0186  0.1460 -0.2148
33554ION     NA49023  11.486   9.846  10.885 -0.0166  0.1610 -0.0829
33555ION     NA49024  16.663  15.835  10.379 -0.1187  0.0807  0.0509
33556ION     NA49025  15.697   8.904  12.729 -0.0005  0.2247  0.4575
33557ION     NA49026   8.352   6.880  10.948 -0.2487 -0.4439 -0.0696
33558ION     NA49027  15.284  11.655  10.285 -0.0023  0.1702 -0.1605
33559ION     NA49028  14.452   8.926   1.640 -0.1285 -0.2314  0.0990
33560ION     NA49029   3.882  11.934  10.444 -0.0050 -0.0763  0.0647
33561ION     NA49030   9.108  12.734  10.807 -0.2122 -0.1384  0.1184
33562ION     NA49031  12.094   8.327  10.721 -0.2197 -0.0433 -0.0502
33563ION     NA49032  11.030   6.894  10.930 -0.1555 -0.0987 -0.1120
33564ION     NA49033   9.898   0.918  12.978 -0.0540 -0.0411  0.0133
33565ION     NA49034   3.875  15.784  10.753  0.1854  0.0171  0.2246
33566ION     NA49035   4.414   2.363  15.057 -0.1407  0.0493  0.0520
33567ION     NA49036   8.245   5.095   6.160 -0.0193  0.0872  0.0255
33568ION     NA49037   3.545  10.706  10.553  0.1923  0.1098 -0.0905
33569ION     NA49038  11.611   1.517  10.804 -0.0374  0.0390  0.2873
33570ION     NA49039  16.421   2.938  10.389 -0.1212  0.1283  0.1427
33571ION     NA49040  10.835   9.216  10.912 -0.3205  0.0993 -0.3728
33572ION     NA49041  12.176   6.787   5.350 -0.1849 -0.1175  0.3349
33573ION     NA49042   7.287  17.463  10.694 -0.0517 -0.0689 -0.3424
33574ION     NA49043   9.428  15.235  11.140 -0.1160 -0.2293 -0.0911
33575ION     NA49044  15.489  14.937  10.559 -0.2636  0.2350  0.1692
33576ION     NA49045  14.035  15.307  10.814  0.0854 -0.3662  0.2688
33577ION     NA49046   0.856   4.996  13.669 -0.0609 -0.1132 -0.0743
33578ION     NA49047  11.404  16.240  10.896 -0.4574  0.0320 -0.0085
33579ION     NA49048  16.246   0.586  10.577  0.0447 -0.2287 -0.1560
33580ION     NA49049   3.168   7.868  12.396 -0.1475  0.0859  0.0723
33581ION     NA49050  11.172  13.228   6.321 -0.0757 -0.2644 -0.1369
33582ION     NA49051   0.602   5.351   9.954  0.0375 -0.0673  0.1448
33583ION     NA49052  10.536  11.761   6.334 -0.2206  0.4457 -0.1826
33584ION     NA49053   4.546  17.449  10.825  0.3956  0.1626 -0.1882
33585ION     NA49054   4.717   4.715   6.201 -0.0463  0.4018 -0.2317
33586ION     NA49055  12.670   4.658   6.394  0.0502 -0.1677 -0.0439
33587ION     NA49056   6.899   0.074  10.938  0.1236 -0.4058  0.1855
33588ION     NA49057  10.571   7.470   4.605  0.0644 -0.0219  0.0009
33589ION     NA49058   4.148   9.356  13.916 -0.3116 -0.2151 -0.0334
33590ION     NA49059   3.957   1.277  10.622 -0.2834 -0.0661  0.0174
33591ION     NA49060   4.053   1.362   4.532 -0.2854  0.0603 -0.1075
33592ION     NA49061  11.700   8.948  10.566  0.2479 -0.2224  0.1915
33593ION     NA49062  11.985   5.621  10.972 -0.1545 -0.1212 -0.3075
33594ION     NA49063   2.888   4.275  13.115 -0.0849  0.3987  0.0422
33595ION     NA49064  17.256   1.201   6.305 -0.3415  0.1466  0.3380
33596ION     NA49065  14.022   5.834  10.868 -0.1551  0.0314  0.0035
33597ION     NA49066   0.310  17.213   4.595  0.0898  0.2911  0.0864
33598ION     NA49067  12.569   1.307  10.961 -0.0609  0.1843  0.0036
33599ION     NA49068   0.739  13.974   5.563 -0.0458  0.0500  0.3112
33600ION     NA49069  17.609   8.929   2.677  0.0670  0.1159  0.0344
33601ION     NA49070  15.425   9.007   2.996  0.0971 -0.3886 -0.2870
33602ION     NA49071  10.666   1.520  10.898  0.2289 -0.2469  0.1833
33603ION     NA49072   0.692   0.801   3.031 -0.0646 -0.3263  0.1247
33604ION     NA49073  16.448  11.880   5.771 -0.2467 -0.0443 -0.1288
33605ION     NA49074   1.547  12.999  10.097 -0.2697 -0.0099 -0.1181
  17.78001  17.78001  16.84440
