INSANE! Membrane UpperLeaflet>loPI:POPI:DPPI:PYPI:ERGO=30.0:5.0:3.0:2.0:10.0 LowerLeaflet>PSPI:POPI:POPS:YOPS:POPE:YOPE:POPC:YOPC:ERGO=6.0:14.0:21.0:9.0:9.0:21.0:12.0:48.0:60.0
49074
    1loPI    C1    1  15.492   4.079  10.514  0.2543 -0.0493 -0.0851
    1loPI    C2    2  15.449   4.060  10.911 -0.0217  0.2411 -0.0969
    1loPI    C3    3  15.197   3.861  10.673  0.1203  0.0978 -0.1288
    1loPI   PO4    4  15.732   4.046  10.518 -0.2041 -0.1328  0.0810
    1loPI   GL1    5  15.967   4.024  10.130  0.0696 -0.2325 -0.1718
    1loPI   GL2    6  15.628   3.986   9.989  0.2726 -0.0142  0.0386
    1loPI   C1A    7  16.064   4.336   9.810 -0.1467 -0.1052 -0.0705
    1loPI   C2A    8  16.108   4.530   9.388  0.2327  0.3048  0.0012
    1loPI   C3A    9  15.826   4.675   9.045  0.0675 -0.1187  0.1106
    1loPI   C4A   10  15.644   4.661   8.632 -0.2643  0.1804  0.0206
    1loPI   C5A   11  15.571   4.508   8.258  0.0058 -0.2125 -0.0274
    1loPI   C6A   12  15.771   4.151   8.199  0.0432 -0.1135  0.1664
    1loPI   C1B   13  15.690   4.093   9.553 -0.1292  0.0691  0.0312
    1loPI   C2B   14  15.750   4.126   9.200  0.0780 -0.1540  0.1753
    1loPI   C3B   15  16.083   4.225   8.924  0.2391 -0.1939 -0.3021
    1loPI   C4B   16  16.155   4.149   8.559  0.3270 -0.1486  0.2657
    2loPI    C1   17   7.096   3.083  10.112 -0.0299  0.2096 -0.0122
    2loPI    C2   18   6.734   3.134  10.274 -0.0440  0.0168  0.0196
    2loPI    C3   19   6.956   2.818  10.377  0.1117  0.1055 -0.0403
    2loPI   PO4   20   6.975   3.192   9.789  0.0540  0.1788  0.0954
    2loPI   GL1   21   6.837   3.472   9.400  0.0556  0.0893 -0.0881
    2loPI   GL2   22   6.585   3.601   9.237  0.4003 -0.1743  0.3173
    2loPI   C1A   23   7.214   3.595   9.083 -0.2259 -0.3195  0.2002
    2loPI   C2A   24   7.045   3.740   8.607 -0.2672  0.2240 -0.2831
    2loPI   C3A   25   6.911   3.996   8.256 -0.0319  0.1795 -0.5099
    2loPI   C4A   26   6.774   4.171   7.888 -0.1662  0.3030  0.0196
    2loPI   C5A   27   6.513   4.523   7.755 -0.0116 -0.0276  0.2118
    2loPI   C6A   28   6.767   4.788   7.494 -0.2593 -0.0298  0.4328
    2loPI   C1B   29   6.655   3.485   8.817  0.1545 -0.0548 -0.3039
    2loPI   C2B   30   6.616   3.437   8.394 -0.1252  0.0425  0.1828
    2loPI   C3B   31   6.542   3.319   8.049  0.1451  0.1274 -0.2218
    2loPI   C4B   32   6.291   3.387   7.741 -0.0543 -0.2334 -0.0272
    3loPI    C1   33  16.456   3.731  10.202  0.1000 -0.0120 -0.1956
    3loPI    C2   34  16.351   4.022  10.456 -0.1559 -0.1164 -0.1787
    3loPI    C3   35  16.535   3.694  10.592  0.1355  0.0364 -0.1981
    3loPI   PO4   36  16.644   3.935  10.000  0.0569 -0.0674 -0.1391
    3loPI   GL1   37  17.004   3.802   9.920  0.1504  0.0231 -0.3277
    3loPI   GL2   38  17.271   4.000   9.893  0.1302 -0.2428  0.2627
    3loPI   C1A   39  16.940   3.567   9.513  0.3077 -0.3994 -0.1327
    3loPI   C2A   40  16.802   3.609   9.150 -0.2014  0.2953 -0.1185
    3loPI   C3A   41  16.844   3.551   8.762  0.2014 -0.0530  0.1412
    3loPI   C4A   42  16.898   3.599   8.296  0.2660 -0.1651 -0.1205
    3loPI   C5A   43  17.090   3.347   7.990 -0.0350 -0.1276  0.2140
    3loPI   C6A   44  17.027   3.171   7.552 -0.0711  0.0031  0.0445
    3loPI   C1B   45  17.415   3.724   9.500 -0.1274 -0.2590 -0.0578
    3loPI   C2B   46  17.279   3.448   9.183 -0.0519  0.1318  0.0223
    3loPI   C3B   47  17.394   3.439   8.757  0.1997 -0.2531  0.1555
    3loPI   C4B   48  17.378   3.517   8.334 -0.0702  0.2608 -0.2035
    4loPI    C1   49  13.138  14.296  10.480 -0.1621 -0.2540 -0.0257
    4loPI    C2   50  13.221  14.454  10.837 -0.1155  0.0326 -0.1609
    4loPI    C3   51  13.473  14.191  10.672  0.0500  0.1802 -0.1467
    4loPI   PO4   52  13.124  14.526  10.347  0.3701  0.1936 -0.1546
    4loPI   GL1   53  13.082  14.413   9.940  0.2564  0.2584 -0.0771
    4loPI   GL2   54  12.800  14.382   9.720 -0.0207  0.2213 -0.1268
    4loPI   C1A   55  13.112  14.870   9.643 -0.0075 -0.2515  0.0740
    4loPI   C2A   56  13.349  14.985   9.337  0.1813  0.3849 -0.0032
    4loPI   C3A   57  13.731  14.863   9.093  0.2070  0.1943  0.0594
    4loPI   C4A   58  13.997  14.995   8.633 -0.1385  0.0586  0.2088
    4loPI   C5A   59  13.641  15.113   8.455  0.3559 -0.1072  0.0436
    4loPI   C6A   60  13.280  15.015   8.282 -0.0695  0.0198  0.0754
    4loPI   C1B   61  13.076  14.301   9.392  0.0592  0.0218  0.3647
    4loPI   C2B   62  13.286  14.356   9.039 -0.0463 -0.1133  0.3113
    4loPI   C3B   63  13.349  14.701   8.778 -0.1789  0.0137  0.1510
    4loPI   C4B   64  13.292  15.173   8.890  0.0147 -0.0830  0.0160
    5loPI    C1   65   2.391   1.914  10.683  0.2873  0.0555  0.0366
    5loPI    C2   66   2.399   2.088  11.043 -0.0254 -0.0686  0.1071
    5loPI    C3   67   2.517   1.708  11.003 -0.0793 -0.0841  0.0955
    5loPI   PO4   68   2.516   2.056  10.434  0.1096  0.1092  0.1543
    5loPI   GL1   69   2.387   2.336  10.136 -0.1372  0.1151 -0.0507
    5loPI   GL2   70   2.134   2.193  10.184  0.0293 -0.0479 -0.0185
    5loPI   C1A   71   2.465   2.417   9.689  0.1338  0.0915 -0.1249
    5loPI   C2A   72   2.496   2.301   9.216  0.0753  0.0292 -0.0180
    5loPI   C3A   73   2.463   2.419   8.723  0.0077 -0.3741  0.0949
    5loPI   C4A   74   2.554   2.628   8.450 -0.0484 -0.0132  0.1008
    5loPI   C5A   75   2.896   2.874   8.186  0.2317  0.1253  0.2369
    5loPI   C6A   76   2.832   3.267   7.960  0.0773 -0.1281 -0.0221
    5loPI   C1B   77   2.015   2.008   9.747  0.0050 -0.1903  0.2049
    5loPI   C2B   78   2.217   1.948   9.482 -0.1278 -0.0953  0.2799
    5loPI   C3B   79   2.454   1.811   9.107 -0.1527 -0.1880  0.4820
    5loPI   C4B   80   2.565   1.653   8.718 -0.0745 -0.0707  0.1594
    6loPI    C1   81  16.558   6.478  10.887  0.1057 -0.0050 -0.1046
    6loPI    C2   82  16.632   6.087  10.923  0.0810 -0.0188 -0.2020
    6loPI    C3   83  16.270   6.231  11.015  0.1074 -0.0101 -0.1099
    6loPI   PO4   84  16.653   6.490  10.641 -0.0375 -0.0899  0.4501
    6loPI   GL1   85  16.550   6.462  10.140  0.2277  0.1162 -0.3344
    6loPI   GL2   86  16.765   6.717  10.010  0.2656 -0.0007 -0.1495
    6loPI   C1A   87  16.557   6.418   9.635 -0.1580  0.1874  0.2808
    6loPI   C2A   88  16.437   6.323   9.175 -0.1538 -0.0137  0.0346
    6loPI   C3A   89  16.257   6.205   8.804 -0.1055  0.1348 -0.1279
    6loPI   C4A   90  16.098   6.237   8.387 -0.2320  0.0303  0.0242
    6loPI   C5A   91  15.985   6.568   8.079 -0.3945  0.0320  0.0835
    6loPI   C6A   92  16.226   7.064   8.175 -0.1699 -0.1719 -0.2184
    6loPI   C1B   93  16.826   6.885   9.567  0.0297  0.0095  0.2360
    6loPI   C2B   94  16.761   6.730   9.150 -0.1487 -0.1437  0.0644
    6loPI   C3B   95  16.800   6.609   8.688 -0.0241  0.3018 -0.3531
    6loPI   C4B   96  16.844   6.628   8.364 -0.3119  0.3455 -0.1314
    7loPI    C1   97   1.756  17.334  10.545  0.3838  0.0401  0.0920
    7loPI    C2   98   1.459  17.295  10.810  0.1956  0.0256 -0.1179
    7loPI    C3   99   1.673  16.975  10.701 -0.1320 -0.0889 -0.4437
    7loPI   PO4  100   1.686  17.532  10.365  0.0549 -0.1549 -0.0128
    7loPI   GL1  101   1.727  17.748  10.008 -0.4337  0.0170 -0.0286
    7loPI   GL2  102   1.665  18.074   9.863  0.0822  0.1377  0.1022
    7loPI   C1A  103   1.665  17.558   9.574  0.0780  0.0266 -0.2574
    7loPI   C2A  104   1.502  17.618   9.189 -0.2169  0.2635  0.1808
    7loPI   C3A  105   1.260  17.484   8.843  0.0521  0.2633  0.0847
    7loPI   C4A  106   0.852  17.565   8.754  0.0998 -0.1902  0.0387
    7loPI   C5A  107   0.519  17.767   8.453  0.1536  0.0282 -0.2477
    7loPI   C6A  108  -0.004  17.786   8.257  0.2112 -0.1801 -0.0559
    7loPI   C1B  109   1.286  17.848   9.765 -0.0435  0.0411 -0.0021
    7loPI   C2B  110   1.183  17.536   9.585 -0.1774 -0.1291 -0.2124
    7loPI   C3B  111   1.223  17.175   9.326  0.1931 -0.1055 -0.1748
    7loPI   C4B  112   1.071  16.783   9.228 -0.2195  0.2731  0.0488
    8loPI    C1  113   0.332   3.963  10.937  0.1460 -0.0780 -0.0105
    8loPI    C2  114   0.288   4.328  10.778 -0.1691  0.0176  0.2856
    8loPI    C3  115   0.443   4.286  11.145  0.0870 -0.1660  0.1594
    8loPI   PO4  116   0.282   3.756  10.619  0.1385  0.2136 -0.3301
    8loPI   GL1  117   0.143   3.678  10.204 -0.2306 -0.1688  0.2188
    8loPI   GL2  118  -0.014   3.717  10.017  0.0868 -0.0907  0.2323
    8loPI   C1A  119   0.482   3.709  10.007 -0.1909 -0.0861 -0.1397
    8loPI   C2A  120   0.555   3.757   9.633  0.0704  0.0411  0.0494
    8loPI   C3A  121   0.398   3.707   9.225 -0.0538 -0.1076  0.1024
    8loPI   C4A  122   0.513   3.772   8.756 -0.1523 -0.2169 -0.3214
    8loPI   C5A  123   0.570   3.718   8.322 -0.0913  0.2875  0.3243
    8loPI   C6A  124   0.799   3.515   8.140 -0.1474  0.1347  0.2537
    8loPI   C1B  125   0.044   3.478   9.622  0.2576 -0.0519 -0.1207
    8loPI   C2B  126   0.038   3.386   9.269 -0.0843 -0.3360 -0.3549
    8loPI   C3B  127   0.136   3.361   8.911 -0.4517  0.0240 -0.1027
    8loPI   C4B  128   0.218   3.363   8.497  0.0749  0.1325 -0.1778
    9loPI    C1  129   0.968  17.266  10.842  0.2916  0.0106  0.1503
    9loPI    C2  130   1.073  17.595  11.043  0.1323  0.0622  0.1504
    9loPI    C3  131   0.848  17.315  11.220  0.0185  0.0928  0.0556
    9loPI   PO4  132   0.875  17.328  10.591 -0.1059 -0.2553  0.1924
    9loPI   GL1  133   0.707  17.447  10.243 -0.0697 -0.1383 -0.0141
    9loPI   GL2  134   1.140  17.492  10.117  0.0239  0.5797  0.0787
    9loPI   C1A  135   0.746  17.232   9.841 -0.1233  0.3398 -0.0550
    9loPI   C2A  136   0.522  16.904   9.600  0.1568 -0.1934  0.0831
    9loPI   C3A  137   0.496  16.728   9.266 -0.0522  0.2283  0.2844
    9loPI   C4A  138   0.553  16.651   8.839 -0.1479  0.1217 -0.0618
    9loPI   C5A  139   0.699  16.554   8.444  0.0990  0.3032  0.0884
    9loPI   C6A  140   0.839  16.810   8.068  0.0547  0.0311  0.0392
    9loPI   C1B  141   1.257  17.030   9.917  0.0470 -0.1543  0.2480
    9loPI   C2B  142   1.549  17.034   9.663  0.0409  0.0780 -0.1214
    9loPI   C3B  143   1.744  17.130   9.299  0.1383 -0.1408  0.0444
    9loPI   C4B  144   1.520  16.975   8.944  0.0231 -0.1987  0.0833
   10loPI    C1  145   6.415   5.444  10.245  0.1209  0.0535 -0.0278
   10loPI    C2  146   6.068   5.607  10.358 -0.0023 -0.0934 -0.1881
   10loPI    C3  147   6.294   5.412  10.624 -0.1258 -0.1451 -0.1204
   10loPI   PO4  148   6.494   5.660  10.063  0.0876 -0.0478 -0.1949
   10loPI   GL1  149   6.387   5.495   9.686  0.0293  0.0380 -0.3187
   10loPI   GL2  150   6.293   5.695   9.628  0.2673  0.0009 -0.0200
   10loPI   C1A  151   6.730   5.669   9.304 -0.0628  0.3506  0.0197
   10loPI   C2A  152   6.612   5.925   8.994  0.3013  0.0742 -0.0937
   10loPI   C3A  153   6.522   6.166   8.607 -0.3681 -0.1146  0.2693
   10loPI   C4A  154   6.594   6.298   8.264  0.0758 -0.1490  0.0398
   10loPI   C5A  155   6.762   6.258   7.918 -0.0121  0.0042 -0.0442
   10loPI   C6A  156   7.079   6.071   7.610 -0.1484 -0.0726  0.0096
   10loPI   C1B  157   6.185   5.609   9.173  0.1270 -0.2295  0.1846
   10loPI   C2B  158   6.308   5.693   8.727  0.1453 -0.0754  0.1350
   10loPI   C3B  159   6.352   5.791   8.234 -0.2255 -0.0476  0.3289
   10loPI   C4B  160   6.285   5.976   7.904  0.0776 -0.1078 -0.3165
   11loPI    C1  161  13.848   6.026  10.585 -0.2959  0.1287 -0.2097
   11loPI    C2  162  13.881   6.272  10.899 -0.1186 -0.0803 -0.0614
   11loPI    C3  163  13.678   6.388  10.574 -0.2189  0.1766  0.0900
   11loPI   PO4  164  13.862   5.839  10.622 -0.1304  0.0986 -0.3322
   11loPI   GL1  165  13.914   5.608  10.255 -0.0199 -0.1583  0.0266
   11loPI   GL2  166  14.250   5.481  10.058 -0.0039 -0.3460  0.0683
   11loPI   C1A  167  13.713   5.426   9.826 -0.1669 -0.2315  0.1114
   11loPI   C2A  168  13.727   5.481   9.351 -0.0896  0.0286 -0.3945
   11loPI   C3A  169  13.686   5.381   8.903  0.3017 -0.3829  0.1138
   11loPI   C4A  170  13.702   5.475   8.360  0.0570  0.1290 -0.2642
   11loPI   C5A  171  13.707   5.267   8.066 -0.0402  0.0330 -0.0562
   11loPI   C6A  172  13.426   5.450   7.817 -0.0507  0.0602  0.2645
   11loPI   C1B  173  14.235   5.307   9.645  0.0236 -0.3022  0.0334
   11loPI   C2B  174  14.128   5.168   9.169  0.0041 -0.2054 -0.0325
   11loPI   C3B  175  14.075   5.098   8.781 -0.2358 -0.0056 -0.0437
   11loPI   C4B  176  14.422   4.981   8.509 -0.0299 -0.0821 -0.0799
   12loPI    C1  177   4.719   2.738  10.303 -0.2559 -0.0013 -0.1392
   12loPI    C2  178   4.976   2.597  10.575 -0.1137  0.0658 -0.2377
   12loPI    C3  179   4.696   2.861  10.683 -0.0467  0.1055 -0.1600
   12loPI   PO4  180   4.578   2.548  10.134 -0.1624  0.1852  0.1630
   12loPI   GL1  181   4.476   2.722   9.721 -0.2828  0.2425 -0.0776
   12loPI   GL2  182   4.108   2.607   9.686  0.1147 -0.0742 -0.0070
   12loPI   C1A  183   4.546   2.944   9.383 -0.1408  0.0277 -0.3376
   12loPI   C2A  184   4.678   3.105   9.001  0.0711 -0.0000  0.2874
   12loPI   C3A  185   4.942   3.091   8.707  0.0624 -0.0285 -0.3971
   12loPI   C4A  186   5.246   3.219   8.383  0.2231 -0.0726  0.0947
   12loPI   C5A  187   5.566   3.498   8.139 -0.2519 -0.2148 -0.1475
   12loPI   C6A  188   5.494   3.810   7.792  0.0943 -0.1558 -0.2546
   12loPI   C1B  189   4.276   2.579   9.223  0.4712  0.0715  0.0899
   12loPI   C2B  190   4.387   2.649   8.842  0.0783  0.0639 -0.5432
   12loPI   C3B  191   4.520   2.815   8.497  0.1876 -0.1241 -0.1705
   12loPI   C4B  192   4.609   2.709   8.068  0.0743 -0.3297 -0.1216
   13loPI    C1  193   3.592  17.792  10.292  0.1592  0.0918 -0.0286
   13loPI    C2  194   3.565  17.554  10.613 -0.0602  0.1909  0.0284
   13loPI    C3  195   3.532  17.399  10.246  0.0479  0.0984  0.0569
   13loPI   PO4  196   3.431  17.994  10.325 -0.1897  0.2274 -0.0024
   13loPI   GL1  197   3.319  18.199   9.919 -0.2347  0.3249  0.2675
   13loPI   GL2  198   3.728  18.129   9.881 -0.0739 -0.0662 -0.0178
   13loPI   C1A  199   3.049  17.966   9.550  0.1349 -0.3666  0.0480
   13loPI   C2A  200   3.196  17.789   9.165 -0.1886 -0.1148  0.2362
   13loPI   C3A  201   3.145  17.688   8.790  0.0142  0.1628  0.0311
   13loPI   C4A  202   3.032  17.538   8.353 -0.2397 -0.2563 -0.0546
   13loPI   C5A  203   3.035  17.713   7.888  0.1801 -0.0731  0.0047
   13loPI   C6A  204   2.617  17.668   7.710 -0.0466 -0.0226  0.0965
   13loPI   C1B  205   3.853  17.744   9.627 -0.1247 -0.1775 -0.1324
   13loPI   C2B  206   3.969  17.596   9.240  0.0979  0.0831 -0.1369
   13loPI   C3B  207   4.107  17.607   8.881 -0.4442 -0.1892  0.2828
   13loPI   C4B  208   4.027  17.564   8.435 -0.5271 -0.1927 -0.0589
   14loPI    C1  209  16.576  12.911  10.479 -0.2023  0.1026 -0.2068
   14loPI    C2  210  16.407  13.215  10.677 -0.0385  0.0887 -0.0431
   14loPI    C3  211  16.746  13.273  10.473 -0.0328  0.0272 -0.0513
   14loPI   PO4  212  16.314  12.765  10.367 -0.0432  0.1647 -0.0711
   14loPI   GL1  213  16.141  12.863   9.960  0.2005 -0.2766 -0.0157
   14loPI   GL2  214  16.114  12.598   9.736  0.0283 -0.3270 -0.1858
   14loPI   C1A  215  16.126  13.026   9.519  0.2388 -0.0771 -0.3350
   14loPI   C2A  216  16.249  12.957   9.143 -0.0058 -0.0548 -0.1457
   14loPI   C3A  217  16.157  12.956   8.739 -0.0527 -0.0947  0.0856
   14loPI   C4A  218  15.834  13.146   8.520 -0.0704  0.0159  0.0668
   14loPI   C5A  219  15.624  13.301   8.214  0.0434  0.0137 -0.1724
   14loPI   C6A  220  15.607  13.501   7.826  0.1469  0.0056 -0.0134
   14loPI   C1B  221  16.262  12.481   9.278  0.3734 -0.1964 -0.0371
   14loPI   C2B  222  16.310  12.487   8.909 -0.1225 -0.0433  0.1328
   14loPI   C3B  223  16.368  12.314   8.467 -0.0886  0.1171 -0.2502
   14loPI   C4B  224  16.077  12.328   8.143 -0.1501 -0.0788  0.1609
   15loPI    C1  225  14.791  12.966  10.459 -0.0243 -0.1761  0.0699
   15loPI    C2  226  14.744  12.790  10.815 -0.0482  0.0096  0.1598
   15loPI    C3  227  14.490  13.077  10.698 -0.1270 -0.1501 -0.0695
   15loPI   PO4  228  14.795  12.818  10.292 -0.0802 -0.1791 -0.0296
   15loPI   GL1  229  14.948  12.709   9.849 -0.0996 -0.1854  0.0780
   15loPI   GL2  230  14.732  12.534   9.674 -0.0418  0.0437  0.0460
   15loPI   C1A  231  15.159  12.827   9.492 -0.0481  0.0896  0.2196
   15loPI   C2A  232  15.244  12.858   9.074 -0.1672  0.1792 -0.0346
   15loPI   C3A  233  15.449  12.887   8.603  0.0802 -0.2064 -0.1671
   15loPI   C4A  234  15.871  12.744   8.117 -0.0103 -0.0004  0.1713
   15loPI   C5A  235  16.302  12.784   8.059 -0.1087 -0.1545 -0.2153
   15loPI   C6A  236  16.755  12.816   7.950 -0.1548 -0.1196  0.0320
   15loPI   C1B  237  14.438  12.797   9.274  0.0708  0.0099  0.0171
   15loPI   C2B  238  14.447  12.824   8.840  0.0368  0.0848 -0.2449
   15loPI   C3B  239  14.453  12.643   8.430 -0.0756  0.1821 -0.1685
   15loPI   C4B  240  14.427  12.289   8.142 -0.1953 -0.0932  0.1022
   16loPI    C1  241   4.806   1.607  10.213  0.0465  0.0892 -0.0262
   16loPI    C2  242   4.932   1.589  10.592  0.0432  0.2019 -0.0195
   16loPI    C3  243   4.551   1.681  10.512  0.0001  0.0065 -0.0447
   16loPI   PO4  244   5.047   1.788  10.092  0.3855  0.0182  0.4874
   16loPI   GL1  245   4.964   2.062   9.768  0.0185  0.5336 -0.0000
   16loPI   GL2  246   4.937   2.356   9.735 -0.1872  0.0788 -0.0056
   16loPI   C1A  247   4.931   1.980   9.348 -0.1787  0.2104  0.2478
   16loPI   C2A  248   4.828   1.640   9.132 -0.0350  0.0759 -0.0937
   16loPI   C3A  249   4.762   1.759   8.649 -0.0127 -0.1327 -0.1889
   16loPI   C4A  250   4.891   1.778   8.279  0.2440  0.0067 -0.1337
   16loPI   C5A  251   5.066   1.511   7.894  0.2192 -0.1098 -0.2226
   16loPI   C6A  252   5.214   1.373   7.449  0.2226  0.1349  0.0606
   16loPI   C1B  253   4.787   2.473   9.312  0.0189  0.1198  0.1675
   16loPI   C2B  254   4.933   2.572   8.913  0.0036  0.0240  0.1308
   16loPI   C3B  255   4.787   2.451   8.562 -0.3167 -0.0564 -0.1324
   16loPI   C4B  256   4.771   2.236   8.178 -0.0289 -0.0999 -0.0456
   17loPI    C1  257  12.337  13.823  10.234  0.0792 -0.0729 -0.0499
   17loPI    C2  258  12.262  13.762  10.622  0.2839 -0.0077  0.0014
   17loPI    C3  259  12.276  14.134  10.478  0.3763 -0.0248 -0.0339
   17loPI   PO4  260  12.477  13.696  10.123 -0.1431  0.0022 -0.0137
   17loPI   GL1  261  12.568  13.605   9.620 -0.0617 -0.0580 -0.1481
   17loPI   GL2  262  12.776  13.859   9.762  0.4583 -0.1430  0.0108
   17loPI   C1A  263  12.486  13.640   9.267 -0.0319 -0.1510 -0.0074
   17loPI   C2A  264  12.629  13.680   8.853  0.0789 -0.2542  0.0878
   17loPI   C3A  265  12.645  14.006   8.547 -0.2782  0.1333  0.1028
   17loPI   C4A  266  12.646  14.309   8.198  0.1765  0.2124  0.1905
   17loPI   C5A  267  12.283  14.332   7.821  0.0941  0.0801 -0.2800
   17loPI   C6A  268  11.814  14.265   7.980  0.0513  0.2773 -0.1870
   17loPI   C1B  269  12.909  13.807   9.339 -0.0162  0.3324  0.1224
   17loPI   C2B  270  13.072  13.900   8.976 -0.2383  0.1770  0.1565
   17loPI   C3B  271  13.155  13.979   8.619  0.0716  0.2043  0.0108
   17loPI   C4B  272  12.998  13.957   8.160 -0.0757 -0.3191 -0.1042
   18loPI    C1  273  17.808  14.275  10.749 -0.2540  0.1614  0.0897
   18loPI    C2  274  17.850  14.647  10.607  0.2957  0.0745  0.0010
   18loPI    C3  275  17.776  14.588  10.996 -0.0008  0.2780 -0.0215
   18loPI   PO4  276  17.609  14.157  10.573  0.2521 -0.1088 -0.0387
   18loPI   GL1  277  17.564  13.944  10.170 -0.1525 -0.0309 -0.0564
   18loPI   GL2  278  17.683  13.678  10.222  0.1947 -0.0534 -0.1968
   18loPI   C1A  279  17.564  14.171   9.805  0.1054  0.1580  0.0458
   18loPI   C2A  280  17.818  14.186   9.382  0.0798  0.1731 -0.2713
   18loPI   C3A  281  17.943  14.157   8.981 -0.2899 -0.3065 -0.1224
   18loPI   C4A  282  17.878  14.258   8.550  0.1106  0.0731 -0.0615
   18loPI   C5A  283  17.723  14.664   8.453  0.1814  0.1835 -0.1469
   18loPI   C6A  284  17.381  14.858   8.142 -0.0949 -0.0516 -0.4635
   18loPI   C1B  285  17.827  13.701   9.824 -0.0749  0.0535 -0.0317
   18loPI   C2B  286  17.963  13.717   9.387 -0.1272 -0.3852  0.0857
   18loPI   C3B  287  17.936  13.677   8.975 -0.0202  0.2350  0.2662
   18loPI   C4B  288  17.772  13.736   8.577 -0.2487  0.0688  0.0977
   19loPI    C1  289  17.627  11.442  10.005 -0.0740 -0.0367  0.0134
   19loPI    C2  290  17.542  11.670  10.323 -0.0678 -0.1690  0.1106
   19loPI    C3  291  17.845  11.769  10.082 -0.1097 -0.0357  0.1118
   19loPI   PO4  292  17.491  11.436   9.831  0.1839  0.0482  0.0352
   19loPI   GL1  293  17.611  11.505   9.460  0.4256 -0.1584 -0.0972
   19loPI   GL2  294  17.897  11.569   9.533 -0.2017  0.1269  0.2384
   19loPI   C1A  295  17.603  11.361   9.029 -0.0146  0.3175  0.0334
   19loPI   C2A  296  17.606  11.304   8.558 -0.0215 -0.1831  0.1831
   19loPI   C3A  297  17.374  11.032   8.166  0.0311 -0.0873 -0.1785
   19loPI   C4A  298  17.096  10.843   7.867 -0.3246 -0.0447 -0.1061
   19loPI   C5A  299  16.666  10.669   7.789  0.0190  0.0175 -0.0390
   19loPI   C6A  300  16.293  10.561   8.002  0.0521  0.0127  0.0623
   19loPI   C1B  301  17.913  11.700   9.088 -0.0860 -0.1437 -0.1106
   19loPI   C2B  302  17.967  11.642   8.657 -0.2299  0.0220 -0.2253
   19loPI   C3B  303  18.001  11.657   8.213 -0.0841  0.2260 -0.3070
   19loPI   C4B  304  18.072  11.471   7.726  0.1556  0.1625 -0.1446
   20loPI    C1  305   6.019  17.121  10.092 -0.0005  0.0824  0.1507
   20loPI    C2  306   5.717  17.037   9.843 -0.0820  0.2529  0.1903
   20loPI    C3  307   5.708  16.904  10.221  0.0454 -0.0124  0.1026
   20loPI   PO4  308   6.217  17.144   9.955 -0.1664 -0.1907 -0.1924
   20loPI   GL1  309   6.531  17.159   9.595 -0.3128  0.0171  0.0965
   20loPI   GL2  310   6.455  17.456   9.635  0.1683  0.3300 -0.2365
   20loPI   C1A  311   6.254  17.009   9.240  0.0223  0.3224 -0.2516
   20loPI   C2A  312   6.278  16.985   8.824 -0.0954  0.1168 -0.1789
   20loPI   C3A  313   6.320  16.972   8.407 -0.0226  0.4910 -0.0316
   20loPI   C4A  314   6.180  16.689   7.997  0.1674  0.0161 -0.0898
   20loPI   C5A  315   5.922  16.586   7.730 -0.1224  0.0485 -0.1324
   20loPI   C6A  316   5.413  16.459   7.702  0.1972  0.0244  0.1564
   20loPI   C1B  317   6.421  17.510   9.188  0.0884 -0.0454 -0.2640
   20loPI   C2B  318   6.312  17.473   8.734  0.1045 -0.1116 -0.0893
   20loPI   C3B  319   6.435  17.499   8.312 -0.0242  0.2037  0.1991
   20loPI   C4B  320   6.287  17.567   7.879  0.0981 -0.0531 -0.1331
   21loPI    C1  321   0.512   1.856  10.515 -0.0495  0.2282  0.0811
   21loPI    C2  322   0.833   1.675  10.671 -0.0972 -0.0104 -0.0919
   21loPI    C3  323   0.769   2.064  10.740  0.1281 -0.0049  0.0976
   21loPI   PO4  324   0.546   1.748  10.228  0.0236 -0.0482 -0.0586
   21loPI   GL1  325   0.601   1.857   9.885 -0.0360  0.0606  0.0980
   21loPI   GL2  326   0.716   1.590   9.670 -0.0550 -0.1676 -0.1054
   21loPI   C1A  327   0.255   2.214   9.720 -0.0349  0.1146 -0.0799
   21loPI   C2A  328   0.133   2.353   9.298 -0.0049  0.0507  0.0417
   21loPI   C3A  329  -0.050   2.411   8.965 -0.1703 -0.0682  0.0462
   21loPI   C4A  330   0.193   2.436   8.619 -0.0603  0.1594  0.0604
   21loPI   C5A  331   0.341   2.682   8.260  0.1710  0.3067 -0.1661
   21loPI   C6A  332   0.125   3.092   8.057 -0.0948 -0.2153 -0.0538
   21loPI   C1B  333   0.516   1.580   9.310 -0.1820 -0.0581 -0.0196
   21loPI   C2B  334   0.485   1.626   8.862  0.3310 -0.1303  0.0844
   21loPI   C3B  335   0.142   1.432   8.608  0.0346 -0.2263  0.2834
   21loPI   C4B  336  -0.110   1.588   8.223  0.0384  0.2424 -0.0549
   22loPI    C1  337  14.703   8.937  10.695 -0.3821 -0.1058  0.1551
   22loPI    C2  338  14.790   8.557  10.784  0.1004 -0.0141  0.1064
   22loPI    C3  339  14.833   8.842  11.061  0.1848  0.0677  0.0098
   22loPI   PO4  340  14.825   9.037  10.511 -0.0830  0.0877 -0.0960
   22loPI   GL1  341  14.817   9.141  10.057  0.3577  0.0644 -0.1752
   22loPI   GL2  342  14.910   8.909   9.913 -0.3847 -0.0367  0.1139
   22loPI   C1A  343  14.435   9.181   9.748 -0.3625 -0.0802  0.1513
   22loPI   C2A  344  14.291   9.480   9.451 -0.0043 -0.2410 -0.1391
   22loPI   C3A  345  14.045   9.742   9.139  0.4003  0.1063  0.2679
   22loPI   C4A  346  13.896   9.672   8.702 -0.1987 -0.2233  0.1511
   22loPI   C5A  347  14.103   9.466   8.373 -0.1288  0.0098 -0.2652
   22loPI   C6A  348  14.432   9.240   8.263 -0.0748  0.0987 -0.0864
   22loPI   C1B  349  14.853   8.854   9.510  0.1353 -0.3549 -0.0433
   22loPI   C2B  350  14.837   8.746   9.067  0.0449 -0.1393  0.3149
   22loPI   C3B  351  14.934   8.594   8.681  0.1946 -0.2510  0.0001
   22loPI   C4B  352  14.808   8.411   8.232 -0.0583 -0.2017  0.3287
   23loPI    C1  353  17.617  12.130  10.410 -0.0746 -0.0592  0.0057
   23loPI    C2  354  17.784  12.445  10.591  0.0471 -0.0550 -0.1121
   23loPI    C3  355  17.443  12.291  10.733  0.0148  0.0959 -0.0225
   23loPI   PO4  356  17.538  12.151  10.161  0.0042 -0.3195 -0.0973
   23loPI   GL1  357  17.696  12.220   9.755  0.2073 -0.1714 -0.0376
   23loPI   GL2  358  17.561  11.966   9.708  0.2120  0.1825 -0.0330
   23loPI   C1A  359  17.689  12.450   9.321  0.0667 -0.5258 -0.0861
   23loPI   C2A  360  17.760  12.594   8.974  0.1212  0.0574  0.0498
   23loPI   C3A  361  17.807  12.693   8.566  0.0966 -0.0932  0.0688
   23loPI   C4A  362  17.817  12.936   8.156 -0.2411 -0.2709  0.1171
   23loPI   C5A  363  17.960  13.121   7.752  0.0275  0.0886  0.0615
   23loPI   C6A  364  17.805  13.341   7.392  0.0963 -0.2233 -0.1016
   23loPI   C1B  365  17.494  11.938   9.310 -0.0716  0.1361  0.2241
   23loPI   C2B  366  17.511  11.821   8.822 -0.1051  0.0370 -0.3014
   23loPI   C3B  367  17.588  11.862   8.320 -0.1643  0.1519  0.2179
   23loPI   C4B  368  17.561  11.643   7.916 -0.0189 -0.0388 -0.1312
   24loPI    C1  369   9.630   3.210  10.459 -0.2431  0.1979  0.0222
   24loPI    C2  370   9.802   3.515  10.653 -0.1232  0.1792 -0.0543
   24loPI    C3  371   9.689   3.188  10.854 -0.0850  0.1987 -0.0008
   24loPI   PO4  372   9.400   3.314  10.331  0.1865  0.1756  0.0007
   24loPI   GL1  373   9.466   3.427   9.844 -0.2144 -0.0298  0.3066
   24loPI   GL2  374   9.647   3.152   9.831 -0.2976 -0.0256 -0.1526
   24loPI   C1A  375   9.571   3.604   9.412 -0.0277  0.0669  0.0168
   24loPI   C2A  376   9.746   3.599   8.967  0.1408 -0.1385  0.0716
   24loPI   C3A  377   9.830   3.536   8.555  0.0074  0.0679 -0.1401
   24loPI   C4A  378   9.863   3.278   8.197  0.0354  0.0935 -0.0640
   24loPI   C5A  379   9.621   3.066   7.904  0.1801 -0.0740  0.0466
   24loPI   C6A  380   9.571   2.631   7.838  0.0260  0.1150  0.0314
   24loPI   C1B  381   9.740   3.036   9.452 -0.0796  0.2862 -0.0941
   24loPI   C2B  382   9.825   3.098   8.931  0.1250 -0.1527  0.0876
   24loPI   C3B  383   9.899   2.796   8.593  0.0848  0.0101 -0.0216
   24loPI   C4B  384   9.976   2.807   8.208 -0.0509  0.2686 -0.0848
   25loPI    C1  385  17.830   4.243  10.268  0.0811 -0.0625  0.0703
   25loPI    C2  386  17.991   4.399  10.600  0.1718  0.2326 -0.1087
   25loPI    C3  387  17.600   4.441  10.529  0.1459  0.1396 -0.0243
   25loPI   PO4  388  17.808   3.967  10.093  0.1048  0.0045  0.0416
   25loPI   GL1  389  17.868   3.807   9.656  0.2330  0.2655 -0.0229
   25loPI   GL2  390  17.741   3.580   9.811 -0.1848  0.4222  0.1551
   25loPI   C1A  391  17.841   3.617   9.234 -0.0908 -0.3479 -0.3008
   25loPI   C2A  392  17.872   3.450   8.889  0.0936 -0.0434 -0.2685
   25loPI   C3A  393  17.860   3.381   8.428  0.4386 -0.0398 -0.3797
   25loPI   C4A  394  17.721   3.100   8.115 -0.1686  0.2542  0.0616
   25loPI   C5A  395  17.338   2.846   7.993  0.1239 -0.1790  0.0898
   25loPI   C6A  396  17.105   2.507   7.674 -0.1345 -0.0469 -0.3129
   25loPI   C1B  397  17.844   3.208   9.670 -0.2256  0.2569  0.0439
   25loPI   C2B  398  17.910   3.089   9.264  0.0517  0.0991 -0.1000
   25loPI   C3B  399  18.155   2.969   8.790  0.0539  0.0005 -0.1494
   25loPI   C4B  400  18.194   2.846   8.428  0.2844 -0.1034 -0.0437
   26loPI    C1  401   0.261   4.871  10.593  0.0746  0.0266 -0.1983
   26loPI    C2  402   0.428   5.048  10.910  0.1020 -0.0873 -0.1486
   26loPI    C3  403   0.076   5.177  10.771 -0.1472 -0.3439  0.2259
   26loPI   PO4  404   0.501   4.911  10.381 -0.4347 -0.0276  0.0281
   26loPI   GL1  405   0.422   4.933  10.028  0.0080 -0.1758 -0.2593
   26loPI   GL2  406   0.700   4.731   9.989  0.1642 -0.1227  0.0810
   26loPI   C1A  407   0.462   4.933   9.538  0.0122  0.0313 -0.0491
   26loPI   C2A  408   0.463   4.925   9.134 -0.2601  0.0757  0.0951
   26loPI   C3A  409   0.379   5.085   8.707 -0.2293 -0.0171 -0.2438
   26loPI   C4A  410   0.381   5.179   8.319  0.0087 -0.0547  0.0215
   26loPI   C5A  411   0.481   5.036   7.900  0.2633 -0.0894 -0.1445
   26loPI   C6A  412   0.282   4.972   7.540  0.1696 -0.1233  0.2121
   26loPI   C1B  413   0.838   4.635   9.545 -0.1247  0.1382 -0.0714
   26loPI   C2B  414   0.823   4.586   9.120  0.0293  0.0124  0.2025
   26loPI   C3B  415   0.694   4.650   8.612 -0.2943 -0.2715  0.2076
   26loPI   C4B  416   0.583   4.542   8.176  0.2825  0.2461 -0.1332
   27loPI    C1  417   7.681   8.108  10.227  0.0532 -0.0118  0.0394
   27loPI    C2  418   7.574   7.984  10.592  0.1288 -0.0001  0.0659
   27loPI    C3  419   7.407   8.312  10.434  0.1359  0.0258  0.1121
   27loPI   PO4  420   7.625   7.952  10.005 -0.2714  0.0215  0.2760
   27loPI   GL1  421   7.686   8.243   9.570 -0.1440 -0.0181 -0.1531
   27loPI   GL2  422   7.848   7.937   9.507 -0.0505 -0.2160 -0.1575
   27loPI   C1A  423   7.617   8.081   9.106  0.1243  0.0489 -0.1146
   27loPI   C2A  424   7.346   8.079   8.757 -0.2555 -0.2849  0.0159
   27loPI   C3A  425   7.423   8.159   8.303  0.1057 -0.3009  0.1415
   27loPI   C4A  426   7.406   8.302   7.822  0.0945  0.1718 -0.0222
   27loPI   C5A  427   7.191   8.676   7.673  0.0739  0.1563 -0.1070
   27loPI   C6A  428   7.282   8.979   7.468  0.0172  0.0106  0.0770
   27loPI   C1B  429   8.160   8.020   9.160 -0.2791 -0.1489 -0.2736
   27loPI   C2B  430   7.988   7.934   8.789  0.0343  0.0532  0.1269
   27loPI   C3B  431   7.879   8.034   8.400 -0.0648 -0.1505  0.2818
   27loPI   C4B  432   7.997   8.267   8.055 -0.0872 -0.3173 -0.0063
   28loPI    C1  433   5.540   6.041  10.207  0.2334 -0.1345 -0.1244
   28loPI    C2  434   5.794   6.199  10.474  0.0956 -0.0923 -0.0170
   28loPI    C3  435   5.401   6.198  10.548  0.0768 -0.2957 -0.1132
   28loPI   PO4  436   5.628   5.807  10.150  0.0709 -0.0466 -0.2141
   28loPI   GL1  437   5.453   5.661   9.817  0.0633 -0.1638 -0.0118
   28loPI   GL2  438   5.388   5.853   9.697  0.1103 -0.0762 -0.2018
   28loPI   C1A  439   5.376   5.402   9.386 -0.3877  0.0520 -0.0609
   28loPI   C2A  440   5.333   5.528   8.928  0.0964 -0.0898 -0.0225
   28loPI   C3A  441   5.167   5.717   8.488 -0.1111 -0.1689 -0.3590
   28loPI   C4A  442   5.140   5.986   8.121 -0.1807  0.1757 -0.1352
   28loPI   C5A  443   5.224   6.332   7.992 -0.1169  0.2305  0.1630
   28loPI   C6A  444   5.460   6.335   7.628  0.2661 -0.0099 -0.2289
   28loPI   C1B  445   5.720   5.817   9.426  0.0613 -0.4415 -0.0562
   28loPI   C2B  446   5.764   5.712   8.955  0.0080 -0.2087  0.1370
   28loPI   C3B  447   5.676   5.694   8.527 -0.2897  0.1850 -0.2597
   28loPI   C4B  448   5.788   5.565   8.049 -0.5558 -0.2651  0.0984
   29loPI    C1  449  11.715   3.491  10.692 -0.1022 -0.3198  0.1307
   29loPI    C2  450  11.910   3.168  10.826  0.1235 -0.1612  0.1907
   29loPI    C3  451  11.833   3.473  11.074  0.3302  0.0313  0.0215
   29loPI   PO4  452  11.859   3.569  10.403  0.0716 -0.0353  0.0025
   29loPI   GL1  453  12.071   3.840  10.132  0.0196 -0.4023  0.1524
   29loPI   GL2  454  12.054   4.109  10.143 -0.1421  0.0989  0.1056
   29loPI   C1A  455  12.016   3.605   9.819 -0.1153 -0.2259  0.1559
   29loPI   C2A  456  12.074   3.526   9.305 -0.0040 -0.0231 -0.0120
   29loPI   C3A  457  12.098   3.375   8.793 -0.0956 -0.0046  0.2637
   29loPI   C4A  458  12.272   3.070   8.435  0.1460 -0.1404  0.3399
   29loPI   C5A  459  12.679   2.905   8.292 -0.2016  0.3670  0.0848
   29loPI   C6A  460  13.044   2.627   8.416 -0.0613  0.4583 -0.1521
   29loPI   C1B  461  12.081   4.220   9.644  0.0073  0.0518 -0.1018
   29loPI   C2B  462  12.036   4.114   9.088  0.0895  0.2354 -0.0280
   29loPI   C3B  463  12.106   3.893   8.801 -0.1709  0.1551  0.0527
   29loPI   C4B  464  12.486   3.998   8.582 -0.2745 -0.1058  0.2154
   30loPI    C1  465   1.629  15.639  10.756 -0.0939  0.0999  0.0192
   30loPI    C2  466   1.668  15.995  10.934  0.0112  0.0911  0.0143
   30loPI    C3  467   1.308  15.823  10.909 -0.0317  0.1733  0.0619
   30loPI   PO4  468   1.845  15.668  10.601  0.2160 -0.0907  0.1408
   30loPI   GL1  469   1.776  15.850  10.099  0.1251 -0.0196  0.1311
   30loPI   GL2  470   2.027  15.714  10.048 -0.1629  0.0206 -0.0902
   30loPI   C1A  471   1.619  15.943   9.706 -0.2960  0.2443  0.1927
   30loPI   C2A  472   1.565  15.968   9.260  0.1817 -0.1552 -0.1774
   30loPI   C3A  473   1.365  15.831   8.774 -0.0425 -0.0302  0.3484
   30loPI   C4A  474   1.196  16.116   8.457 -0.3972  0.3121  0.1040
   30loPI   C5A  475   1.206  16.476   8.195  0.0667  0.2311 -0.0191
   30loPI   C6A  476   1.377  16.766   7.947 -0.2789 -0.4790 -0.1665
   30loPI   C1B  477   2.082  15.750   9.709  0.0793  0.0399 -0.3118
   30loPI   C2B  478   2.021  15.698   9.287  0.2528  0.0725  0.2502
   30loPI   C3B  479   1.832  15.768   8.881  0.0231 -0.4275 -0.0564
   30loPI   C4B  480   1.920  16.066   8.516  0.2763  0.0851  0.0419
   31loPI    C1  481  17.481  10.356  10.023  0.1154 -0.0118  0.0087
   31loPI    C2  482  17.770  10.413  10.294 -0.0673  0.1918  0.1645
   31loPI    C3  483  17.440  10.639  10.304 -0.1773  0.0456 -0.0888
   31loPI   PO4  484  17.484  10.460   9.760 -0.0084  0.2627 -0.0434
   31loPI   GL1  485  17.627  10.239   9.416  0.2260  0.0050  0.3832
   31loPI   GL2  486  17.455  10.420   9.178  0.0609  0.0034  0.0605
   31loPI   C1A  487  17.821   9.951   9.063 -0.2425  0.0151  0.1858
   31loPI   C2A  488  17.855   9.900   8.643  0.1259 -0.0764  0.1573
   31loPI   C3A  489  17.884   9.532   8.330 -0.0688 -0.1632  0.2689
   31loPI   C4A  490  18.156   9.491   7.992  0.1103 -0.0649 -0.1848
   31loPI   C5A  491  18.231   9.783   7.641  0.0174 -0.0248  0.1885
   31loPI   C6A  492  17.858   9.978   7.485 -0.0293  0.0315  0.3148
   31loPI   C1B  493  17.487  10.288   8.770 -0.2014  0.0097 -0.0142
   31loPI   C2B  494  17.467  10.111   8.334 -0.2715  0.1921 -0.0023
   31loPI   C3B  495  17.700  10.128   8.015  0.2146 -0.3128 -0.0852
   31loPI   C4B  496  18.052   9.935   8.111 -0.0175 -0.0785  0.1681
   32loPI    C1  497   4.975  17.048  10.133 -0.0428 -0.0436  0.0367
   32loPI    C2  498   5.081  17.073  10.518 -0.1575 -0.0775  0.0709
   32loPI    C3  499   4.993  17.405  10.313 -0.0081 -0.0510  0.0481
   32loPI   PO4  500   5.187  16.937  10.005 -0.2236 -0.2938 -0.0937
   32loPI   GL1  501   4.978  16.699   9.640 -0.0719  0.0050  0.0778
   32loPI   GL2  502   4.753  16.595   9.714  0.1341  0.1943  0.1135
   32loPI   C1A  503   4.802  16.883   9.192 -0.2124 -0.1081  0.0756
   32loPI   C2A  504   4.733  16.883   8.744  0.2918  0.0895 -0.0111
   32loPI   C3A  505   4.750  16.811   8.318  0.0682  0.2135  0.0996
   32loPI   C4A  506   4.716  16.642   7.904  0.1955 -0.2385 -0.2553
   32loPI   C5A  507   4.900  16.267   7.796 -0.0402 -0.1727 -0.2051
   32loPI   C6A  508   5.076  16.244   7.405 -0.3373 -0.1899  0.3415
   32loPI   C1B  509   4.441  16.648   9.519  0.2713  0.3978 -0.0920
   32loPI   C2B  510   4.369  16.733   9.120 -0.2143  0.0360 -0.2163
   32loPI   C3B  511   4.209  16.700   8.710  0.5009  0.1826  0.1320
   32loPI   C4B  512   4.070  16.704   8.226 -0.1206  0.2238 -0.1149
   33loPI    C1  513  15.903  14.135  10.582 -0.0972  0.1221  0.1186
   33loPI    C2  514  16.167  14.042  10.868  0.0395 -0.0957 -0.0745
   33loPI    C3  515  15.824  13.838  10.839  0.0188 -0.0635 -0.0570
   33loPI   PO4  516  16.063  14.187  10.331 -0.0086 -0.0429  0.2617
   33loPI   GL1  517  16.148  14.007  10.016 -0.1063 -0.1486 -0.1457
   33loPI   GL2  518  16.404  14.295  10.027 -0.4318  0.1647  0.0467
   33loPI   C1A  519  16.075  13.973   9.619 -0.2221 -0.0062  0.0420
   33loPI   C2A  520  15.684  13.929   9.345 -0.0610 -0.1834 -0.3152
   33loPI   C3A  521  15.659  13.675   9.062  0.0686 -0.3232 -0.2151
   33loPI   C4A  522  15.608  13.666   8.610  0.0688 -0.1054 -0.2406
   33loPI   C5A  523  15.399  13.779   8.249  0.1016  0.0626  0.3146
   33loPI   C6A  524  15.105  13.521   7.897 -0.1502 -0.0847  0.0101
   33loPI   C1B  525  16.453  14.312   9.631  0.0144 -0.0403 -0.0549
   33loPI   C2B  526  16.526  14.643   9.274  0.0876  0.3338  0.0968
   33loPI   C3B  527  16.690  14.755   8.769  0.1687 -0.3715 -0.0548
   33loPI   C4B  528  16.953  14.890   8.443  0.1733  0.0336  0.0028
   34loPI    C1  529   1.497  11.090  10.622 -0.1332  0.0538 -0.0921
   34loPI    C2  530   1.436  10.702  10.698  0.0746  0.0553  0.0939
   34loPI    C3  531   1.208  10.979  10.874 -0.1601  0.0146 -0.1401
   34loPI   PO4  532   1.582  11.172  10.322 -0.0403 -0.0573 -0.2487
   34loPI   GL1  533   1.542  11.518  10.060  0.2249  0.1844 -0.3494
   34loPI   GL2  534   1.570  11.900  10.185 -0.0644 -0.0623 -0.3424
   34loPI   C1A  535   1.685  11.864   9.714  0.1116 -0.0024  0.0643
   34loPI   C2A  536   1.726  11.760   9.234 -0.1603 -0.0149  0.0360
   34loPI   C3A  537   1.519  11.625   8.975 -0.1176 -0.1145 -0.0902
   34loPI   C4A  538   1.447  11.496   8.589 -0.0722 -0.1133 -0.3121
   34loPI   C5A  539   1.468  11.202   8.338  0.1151 -0.0553 -0.1849
   34loPI   C6A  540   1.616  11.055   7.926 -0.4859  0.0614  0.0462
   34loPI   C1B  541   1.363  12.196   9.934 -0.1702 -0.1934 -0.2463
   34loPI   C2B  542   1.085  12.407   9.623 -0.3412  0.1995  0.0929
   34loPI   C3B  543   1.047  12.441   9.164 -0.1726  0.0794  0.3145
   34loPI   C4B  544   1.316  12.623   8.823  0.0917  0.4569  0.4187
   35loPI    C1  545   7.378  17.459   9.977 -0.2462 -0.2066  0.1644
   35loPI    C2  546   7.540  17.112   9.861 -0.1783 -0.0609 -0.1919
   35loPI    C3  547   7.681  17.300  10.185  0.1362 -0.1078 -0.2977
   35loPI   PO4  548   7.343  17.599   9.698 -0.3114 -0.3944 -0.0033
   35loPI   GL1  549   7.189  17.692   9.285  0.1013  0.0009 -0.0220
   35loPI   GL2  550   6.916  17.670   9.359  0.1982  0.4045 -0.3798
   35loPI   C1A  551   7.378  17.746   8.842 -0.1796 -0.3676  0.0350
   35loPI   C2A  552   7.333  17.746   8.341  0.0078  0.1323 -0.2336
   35loPI   C3A  553   7.587  17.954   8.011 -0.3183  0.1438  0.3646
   35loPI   C4A  554   7.974  18.212   8.127  0.1532 -0.4597  0.1669
   35loPI   C5A  555   8.088  18.630   8.086  0.0433 -0.0658  0.1821
   35loPI   C6A  556   7.912  19.056   8.111 -0.0498 -0.0018 -0.0755
   35loPI   C1B  557   6.830  17.653   8.910  0.3723  0.2287  0.2482
   35loPI   C2B  558   6.865  17.636   8.505 -0.0602  0.1218  0.0122
   35loPI   C3B  559   6.861  17.839   8.166 -0.0900 -0.1570  0.1713
   35loPI   C4B  560   6.990  17.776   7.787  0.1659 -0.1487 -0.2008
   36loPI    C1  561  15.417  14.064  10.486  0.0606  0.0773 -0.3033
   36loPI    C2  562  15.634  13.775  10.314  0.0556 -0.1178  0.0112
   36loPI    C3  563  15.390  13.688  10.619 -0.2990  0.1388 -0.1917
   36loPI   PO4  564  15.279  14.190  10.209  0.3058 -0.0192 -0.1653
   36loPI   GL1  565  15.448  14.322   9.873 -0.0102 -0.0881 -0.3711
   36loPI   GL2  566  15.701  14.135   9.900 -0.2478 -0.3665  0.2338
   36loPI   C1A  567  15.467  14.361   9.430 -0.0749  0.0365  0.4820
   36loPI   C2A  568  15.531  14.279   8.982  0.0789  0.0318 -0.0488
   36loPI   C3A  569  15.791  14.117   8.690 -0.1898  0.0894  0.0489
   36loPI   C4A  570  16.104  13.888   8.511  0.0287 -0.0541 -0.0715
   36loPI   C5A  571  16.172  13.522   8.291  0.1333 -0.1743 -0.2923
   36loPI   C6A  572  16.071  13.261   7.982  0.0144 -0.0692 -0.1612
   36loPI   C1B  573  15.681  13.770   9.837 -0.1365 -0.0522  0.2124
   36loPI   C2B  574  15.614  13.427   9.777  0.0203 -0.0476  0.3583
   36loPI   C3B  575  15.644  13.258   9.418  0.2589  0.0130 -0.1912
   36loPI   C4B  576  15.677  13.164   8.975  0.1049 -0.1719 -0.2286
   37loPI    C1  577  11.230  10.765  10.383  0.0000  0.1307  0.0850
   37loPI    C2  578  11.090  11.017  10.659 -0.1370  0.0351  0.1042
   37loPI    C3  579  11.241  10.664  10.770 -0.1874 -0.0012  0.0573
   37loPI   PO4  580  11.369  10.883  10.280 -0.5375 -0.1353  0.1915
   37loPI   GL1  581  11.578  10.688   9.968  0.0166  0.0698  0.1713
   37loPI   GL2  582  11.243  10.664   9.830 -0.3053 -0.2683  0.0378
   37loPI   C1A  583  11.799  10.487   9.576 -0.0166  0.0185 -0.1561
   37loPI   C2A  584  11.826  10.590   9.201 -0.2532 -0.0816  0.3065
   37loPI   C3A  585  11.761  10.630   8.804 -0.0876  0.1858 -0.0758
   37loPI   C4A  586  11.786  10.592   8.380  0.0445 -0.2392  0.0283
   37loPI   C5A  587  12.040  10.681   8.093 -0.1932  0.0009  0.1215
   37loPI   C6A  588  12.389  10.865   8.172 -0.0345  0.3870 -0.2546
   37loPI   C1B  589  11.330  10.840   9.442  0.1847  0.0776 -0.2596
   37loPI   C2B  590  11.326  10.762   9.080  0.1491  0.1374  0.0128
   37loPI   C3B  591  11.347  10.739   8.548 -0.0568 -0.3542  0.3478
   37loPI   C4B  592  11.337  10.818   8.145 -0.1001  0.0324 -0.1647
   38loPI    C1  593   7.005   1.022   9.893  0.0299 -0.1349 -0.0364
   38loPI    C2  594   7.383   1.076  10.012 -0.0528 -0.0533  0.1932
   38loPI    C3  595   7.114   0.918  10.264 -0.1107 -0.3628 -0.0566
   38loPI   PO4  596   7.065   1.072   9.601  0.0097  0.2654  0.1363
   38loPI   GL1  597   7.257   0.857   9.227  0.0461 -0.0055  0.3708
   38loPI   GL2  598   6.943   0.694   9.189  0.1352 -0.3917  0.2110
   38loPI   C1A  599   7.187   0.915   8.782  0.1526  0.0794  0.1122
   38loPI   C2A  600   7.475   0.877   8.415 -0.3916 -0.0807 -0.1721
   38loPI   C3A  601   7.441   0.852   8.046  0.1341 -0.1180 -0.0882
   38loPI   C4A  602   7.599   0.669   7.684  0.1823 -0.1680 -0.1586
   38loPI   C5A  603   7.989   0.415   7.547 -0.1168  0.0547 -0.0837
   38loPI   C6A  604   8.339   0.092   7.728  0.2476  0.4617  0.0574
   38loPI   C1B  605   6.738   0.826   8.809  0.1980  0.0975 -0.1973
   38loPI   C2B  606   6.767   0.990   8.464 -0.0110  0.0729 -0.3072
   38loPI   C3B  607   7.015   1.108   8.136  0.0903 -0.0542  0.0533
   38loPI   C4B  608   7.355   1.321   7.871  0.1035 -0.0467  0.2421
   39loPI    C1  609   7.802  15.198  10.486 -0.0227 -0.0404  0.1425
   39loPI    C2  610   8.168  15.222  10.327 -0.0726 -0.0485  0.0258
   39loPI    C3  611   8.047  14.883  10.500 -0.0108 -0.0331  0.0997
   39loPI   PO4  612   7.524  15.195  10.253  0.1110  0.1439  0.1716
   39loPI   GL1  613   7.425  15.235   9.855  0.0736  0.1287  0.1278
   39loPI   GL2  614   7.248  15.031   9.765  0.1389 -0.1604  0.1312
   39loPI   C1A  615   7.621  15.275   9.468 -0.2802 -0.1583 -0.1597
   39loPI   C2A  616   7.546  15.455   9.094 -0.1093  0.2966  0.1129
   39loPI   C3A  617   7.460  15.392   8.760  0.0615 -0.0773 -0.0945
   39loPI   C4A  618   7.456  15.426   8.332  0.0923  0.4609 -0.0669
   39loPI   C5A  619   7.489  15.355   7.869 -0.1138  0.1423 -0.2976
   39loPI   C6A  620   7.698  15.049   7.679 -0.1941 -0.1464 -0.2751
   39loPI   C1B  621   7.491  14.830   9.387 -0.0924  0.0909 -0.0544
   39loPI   C2B  622   7.350  14.915   8.967 -0.0863  0.0861  0.2806
   39loPI   C3B  623   7.465  14.932   8.519  0.0944  0.1092 -0.0695
   39loPI   C4B  624   7.657  14.931   8.194 -0.0182 -0.0416 -0.2740
   40loPI    C1  625   3.121  15.673  10.581 -0.0737  0.0053  0.1046
   40loPI    C2  626   3.266  15.816  10.926  0.0332  0.1609 -0.0036
   40loPI    C3  627   3.015  15.505  10.928  0.0750  0.1275  0.2108
   40loPI   PO4  628   3.362  15.617  10.451 -0.2860  0.0532 -0.3816
   40loPI   GL1  629   3.396  15.457  10.057  0.1878  0.0688 -0.1553
   40loPI   GL2  630   3.059  15.468   9.970  0.0498 -0.3228  0.0354
   40loPI   C1A  631   3.494  15.571   9.660 -0.2753 -0.1156  0.3404
   40loPI   C2A  632   3.406  15.867   9.337 -0.1555 -0.1521 -0.0585
   40loPI   C3A  633   3.355  16.039   9.002  0.0446  0.2682 -0.1678
   40loPI   C4A  634   3.378  16.077   8.479 -0.1186  0.1233  0.3620
   40loPI   C5A  635   3.156  16.248   8.250  0.0034  0.0884  0.3959
   40loPI   C6A  636   3.049  16.558   7.987  0.0387 -0.1712 -0.0444
   40loPI   C1B  637   3.023  15.607   9.510  0.2844  0.2274  0.1052
   40loPI   C2B  638   2.993  15.652   9.034 -0.2115  0.0234 -0.3653
   40loPI   C3B  639   3.144  15.623   8.613 -0.1624  0.1630  0.0208
   40loPI   C4B  640   3.227  15.676   8.184 -0.2907  0.0200  0.3111
   41loPI    C1  641  13.018   0.538  10.559 -0.4588  0.4060  0.0002
   41loPI    C2  642  13.212   0.794  10.798  0.1550  0.1163 -0.1677
   41loPI    C3  643  13.006   0.489  10.956  0.5009 -0.0346  0.0035
   41loPI   PO4  644  13.187   0.374  10.473  0.0407 -0.1191  0.1528
   41loPI   GL1  645  13.368   0.288  10.058  0.0765  0.3092 -0.0937
   41loPI   GL2  646  13.245   0.472   9.952  0.1903  0.2020 -0.0538
   41loPI   C1A  647  13.776   0.303   9.852  0.1243  0.3256 -0.1987
   41loPI   C2A  648  13.862   0.277   9.445  0.0379  0.2337  0.0434
   41loPI   C3A  649  13.928   0.241   9.037  0.0291  0.0156 -0.1906
   41loPI   C4A  650  13.849   0.219   8.555  0.0911 -0.1485 -0.1753
   41loPI   C5A  651  13.781   0.296   8.110  0.0542  0.2071  0.0939
   41loPI   C6A  652  13.774   0.554   7.743  0.0293 -0.4516  0.3504
   41loPI   C1B  653  13.293   0.403   9.466 -0.2858 -0.1089 -0.0395
   41loPI   C2B  654  13.272   0.440   8.997  0.0678  0.1061 -0.0203
   41loPI   C3B  655  13.041   0.180   8.707  0.0832 -0.0914  0.2087
   41loPI   C4B  656  12.681  -0.018   8.508  0.2088  0.0626  0.0255
   42loPI    C1  657  16.877  12.530  10.638 -0.2627 -0.0306  0.2387
   42loPI    C2  658  17.021  12.900  10.688  0.0449 -0.1292  0.1027
   42loPI    C3  659  17.115  12.612  10.950  0.1541 -0.2098 -0.0238
   42loPI   PO4  660  16.967  12.538  10.294  0.2454 -0.3058 -0.0054
   42loPI   GL1  661  17.148  12.605   9.924 -0.1223  0.2437  0.2167
   42loPI   GL2  662  17.182  12.330   9.858  0.3623 -0.0644 -0.1699
   42loPI   C1A  663  17.483  12.732   9.616 -0.1122 -0.0942 -0.0453
   42loPI   C2A  664  17.339  12.892   9.183 -0.3557 -0.0118  0.1046
   42loPI   C3A  665  17.259  12.838   8.650 -0.3237  0.0125 -0.2003
   42loPI   C4A  666  17.231  12.839   8.267  0.1042 -0.0234  0.3311
   42loPI   C5A  667  17.137  13.269   7.966  0.0087  0.0418 -0.1312
   42loPI   C6A  668  17.039  13.672   7.970  0.1585 -0.1236  0.2565
   42loPI   C1B  669  17.184  12.337   9.462  0.0507 -0.1286  0.4130
   42loPI   C2B  670  17.234  12.314   9.088 -0.0614 -0.1829  0.3294
   42loPI   C3B  671  17.327  12.330   8.691 -0.1867  0.0723  0.1038
   42loPI   C4B  672  17.354  12.363   8.221 -0.2325 -0.1222  0.0537
   43loPI    C1  673  11.418   6.845  10.475  0.3031  0.0712 -0.0387
   43loPI    C2  674  11.083   7.020  10.344  0.2106 -0.0846 -0.0119
   43loPI    C3  675  11.079   6.634  10.452  0.3445 -0.0255  0.2106
   43loPI   PO4  676  11.554   7.030  10.298 -0.2175  0.3232  0.0870
   43loPI   GL1  677  11.351   7.202   9.975 -0.0586 -0.0761 -0.3146
   43loPI   GL2  678  11.099   7.262   9.854 -0.4368  0.4274  0.1754
   43loPI   C1A  679  11.570   7.352   9.596 -0.0239 -0.1578  0.4383
   43loPI   C2A  680  11.474   7.487   9.161 -0.0068  0.3342 -0.0228
   43loPI   C3A  681  11.395   7.301   8.719 -0.1102 -0.0509 -0.0130
   43loPI   C4A  682  11.425   7.255   8.340  0.3218  0.1298  0.3343
   43loPI   C5A  683  11.296   6.961   8.019  0.3063 -0.0233 -0.3959
   43loPI   C6A  684  11.069   6.970   7.679 -0.0558 -0.4329  0.2079
   43loPI   C1B  685  11.049   7.466   9.478  0.0028 -0.0368 -0.1565
   43loPI   C2B  686  10.980   7.508   9.024  0.1456  0.1173  0.5531
   43loPI   C3B  687  10.928   7.504   8.572 -0.0467  0.1112  0.1820
   43loPI   C4B  688  10.862   7.834   8.322  0.2270  0.2405 -0.1196
   44loPI    C1  689   3.425   7.358   9.781 -0.0638 -0.1597  0.0519
   44loPI    C2  690   3.324   7.126  10.091 -0.1126 -0.0175  0.1438
   44loPI    C3  691   3.628   7.022   9.853 -0.1523 -0.1893  0.1668
   44loPI   PO4  692   3.300   7.655   9.847 -0.0140  0.0314  0.0843
   44loPI   GL1  693   3.279   7.838   9.523  0.0669  0.2742  0.2595
   44loPI   GL2  694   2.976   7.969   9.473  0.4213  0.0449  0.4586
   44loPI   C1A  695   3.080   7.466   9.231  0.1046 -0.0828  0.0195
   44loPI   C2A  696   2.895   7.439   8.791 -0.0622 -0.0754  0.2467
   44loPI   C3A  697   2.758   7.463   8.342 -0.0488 -0.3125  0.2987
   44loPI   C4A  698   2.687   7.320   7.921 -0.0700 -0.1686 -0.1006
   44loPI   C5A  699   2.846   6.938   7.722 -0.1891 -0.1517 -0.2383
   44loPI   C6A  700   2.648   6.552   7.591  0.0491  0.0726 -0.0280
   44loPI   C1B  701   3.085   7.984   8.993  0.2813  0.2383 -0.1503
   44loPI   C2B  702   3.198   7.969   8.543  0.0906  0.0223 -0.1771
   44loPI   C3B  703   3.360   7.924   8.136  0.1679  0.2120  0.4141
   44loPI   C4B  704   3.585   8.048   7.754  0.1747  0.1589  0.0907
   45loPI    C1  705   0.993  15.811  10.510  0.0355 -0.0947 -0.1197
   45loPI    C2  706   1.022  16.132  10.273 -0.0574  0.3234  0.4159
   45loPI    C3  707   1.041  16.174  10.671  0.1122 -0.3634  0.4929
   45loPI   PO4  708   1.111  15.614  10.431  0.5296 -0.0050  0.2392
   45loPI   GL1  709   1.204  15.778  10.015  0.2392  0.0715  0.1173
   45loPI   GL2  710   1.013  15.537   9.944  0.1189 -0.0161 -0.1026
   45loPI   C1A  711   1.134  16.072   9.707 -0.3831  0.1540 -0.1946
   45loPI   C2A  712   1.086  16.272   9.347 -0.2313 -0.0174 -0.2810
   45loPI   C3A  713   1.105  16.337   8.878 -0.1420  0.0292 -0.0788
   45loPI   C4A  714   1.133  16.681   8.696  0.1641  0.0103  0.0037
   45loPI   C5A  715   1.258  17.007   8.489  0.1055 -0.2299  0.3067
   45loPI   C6A  716   1.619  17.286   8.586 -0.1899 -0.2430 -0.0615
   45loPI   C1B  717   1.019  15.656   9.550  0.0148  0.1887  0.0847
   45loPI   C2B  718   1.044  15.718   9.175 -0.0539 -0.0239  0.2962
   45loPI   C3B  719   0.904  15.899   8.802  0.0365 -0.1185 -0.3540
   45loPI   C4B  720   0.914  15.700   8.487  0.0385  0.2460  0.5283
   46loPI    C1  721   3.774  16.603  10.683  0.1357 -0.2001 -0.0468
   46loPI    C2  722   3.923  16.314  10.917  0.1686 -0.0558  0.1130
   46loPI    C3  723   3.837  16.673  11.072  0.4103  0.1171 -0.1441
   46loPI   PO4  724   3.581  16.560  10.575  0.0544  0.1052  0.1905
   46loPI   GL1  725   3.436  16.647  10.254  0.2053  0.0809 -0.1162
   46loPI   GL2  726   3.184  16.875  10.068 -0.0125  0.3602 -0.0511
   46loPI   C1A  727   3.574  16.481   9.844  0.1882 -0.1978 -0.1854
   46loPI   C2A  728   3.495  16.327   9.408  0.0102 -0.1531  0.0465
   46loPI   C3A  729   3.491  16.499   9.056 -0.0457  0.1276  0.2790
   46loPI   C4A  730   3.630  16.498   8.675  0.3131  0.1755 -0.0025
   46loPI   C5A  731   3.545  16.698   8.289  0.3432  0.0653  0.1361
   46loPI   C6A  732   3.645  16.594   7.892  0.0547  0.1015  0.0386
   46loPI   C1B  733   3.049  16.642   9.645 -0.0993 -0.2094  0.0318
   46loPI   C2B  734   2.849  16.770   9.219 -0.0561  0.0958  0.1667
   46loPI   C3B  735   2.823  16.658   8.795  0.2704 -0.1883 -0.0195
   46loPI   C4B  736   3.139  16.549   8.628  0.0367 -0.0220 -0.5175
   47loPI    C1  737  13.947   4.305  10.343 -0.0285  0.0973 -0.1295
   47loPI    C2  738  14.242   4.131  10.549 -0.2199 -0.0924 -0.0103
   47loPI    C3  739  14.257   4.143  10.149  0.1059  0.1908  0.0051
   47loPI   PO4  740  13.664   4.198  10.430 -0.0899 -0.3215  0.2095
   47loPI   GL1  741  13.463   3.972  10.062  0.0032 -0.2817 -0.1244
   47loPI   GL2  742  13.450   3.630  10.039 -0.2011 -0.1739 -0.1291
   47loPI   C1A  743  13.466   3.949   9.566  0.0024 -0.0965  0.0664
   47loPI   C2A  744  13.388   3.818   9.115  0.3081  0.2209  0.1087
   47loPI   C3A  745  13.507   3.935   8.683 -0.1494  0.1408 -0.1240
   47loPI   C4A  746  13.499   4.165   8.363  0.1544 -0.1722  0.4364
   47loPI   C5A  747  13.851   4.305   8.334 -0.0488 -0.0007  0.1733
   47loPI   C6A  748  14.299   4.300   8.117  0.0500  0.2423  0.3944
   47loPI   C1B  749  13.736   3.524   9.706 -0.0702 -0.6417  0.3313
   47loPI   C2B  750  13.569   3.403   9.357 -0.0295  0.0412  0.1008
   47loPI   C3B  751  13.505   3.382   8.899 -0.1881  0.2590 -0.1179
   47loPI   C4B  752  13.571   3.230   8.450 -0.0737  0.2236  0.3100
   48loPI    C1  753  17.468   5.154  10.778 -0.0151 -0.0913  0.1475
   48loPI    C2  754  17.847   5.080  10.882  0.0767 -0.0242 -0.1303
   48loPI    C3  755  17.574   4.788  10.899  0.1299 -0.0621  0.1106
   48loPI   PO4  756  17.459   5.289  10.585 -0.5806  0.3149  0.2324
   48loPI   GL1  757  17.345   5.239  10.123  0.0074  0.1555  0.0270
   48loPI   GL2  758  17.407   4.993   9.956 -0.1767  0.1079  0.0345
   48loPI   C1A  759  17.090   5.555   9.794  0.2868 -0.2276 -0.0731
   48loPI   C2A  760  17.040   5.508   9.369  0.2246  0.2896  0.0252
   48loPI   C3A  761  17.165   5.661   8.912 -0.1598  0.2263  0.1132
   48loPI   C4A  762  17.156   5.630   8.530  0.1348 -0.1108 -0.0373
   48loPI   C5A  763  16.730   5.391   8.287  0.1889  0.0898 -0.2929
   48loPI   C6A  764  16.367   5.304   7.992  0.1195 -0.0257 -0.0050
   48loPI   C1B  765  17.410   5.058   9.504  0.1346  0.2017 -0.2646
   48loPI   C2B  766  17.445   5.177   9.038  0.1991 -0.0054  0.0940
   48loPI   C3B  767  17.237   5.188   8.665  0.2414 -0.0016  0.0058
   48loPI   C4B  768  17.228   5.048   8.330  0.1349 -0.0693 -0.0679
   49loPI    C1  769   3.125   4.938  10.466  0.1992  0.2327 -0.2419
   49loPI    C2  770   3.364   4.661  10.628  0.1655  0.2890 -0.0939
   49loPI    C3  771   3.269   4.990  10.835 -0.4943  0.0067  0.0785
   49loPI   PO4  772   2.878   4.867  10.391  0.2584 -0.1601 -0.4867
   49loPI   GL1  773   2.959   4.846   9.991  0.2680 -0.0206 -0.2622
   49loPI   GL2  774   2.701   4.920   9.885  0.2546  0.0924 -0.0961
   49loPI   C1A  775   3.068   5.090   9.649  0.2594  0.0937 -0.0853
   49loPI   C2A  776   3.056   5.291   9.328  0.0198  0.3394 -0.0859
   49loPI   C3A  777   3.023   5.322   8.892 -0.0800 -0.3025 -0.1326
   49loPI   C4A  778   3.031   5.513   8.532 -0.1375 -0.2009  0.0070
   49loPI   C5A  779   3.258   5.358   8.199  0.0165 -0.1776  0.1119
   49loPI   C6A  780   3.574   5.407   7.951 -0.1434  0.1886 -0.3066
   49loPI   C1B  781   2.631   4.935   9.517 -0.1348  0.0889  0.1185
   49loPI   C2B  782   2.648   4.953   9.000 -0.0125 -0.1940 -0.1891
   49loPI   C3B  783   2.581   5.175   8.546  0.2055  0.2366 -0.3169
   49loPI   C4B  784   2.782   5.251   8.123  0.3645 -0.1486  0.0234
   50loPI    C1  785   5.263  14.994  10.185  0.0017 -0.0329 -0.0494
   50loPI    C2  786   5.228  14.664  10.407  0.2241 -0.0955 -0.1051
   50loPI    C3  787   5.212  15.024  10.580  0.0385 -0.1357 -0.0366
   50loPI   PO4  788   5.476  14.968  10.069 -0.2858 -0.0050 -0.2584
   50loPI   GL1  789   5.587  15.008   9.680  0.0030 -0.0864  0.1677
   50loPI   GL2  790   5.539  15.269   9.473  0.0590 -0.0249  0.1211
   50loPI   C1A  791   5.666  14.820   9.254  0.1925 -0.1156 -0.1544
   50loPI   C2A  792   5.630  14.620   8.855  0.1435  0.0834  0.1920
   50loPI   C3A  793   5.674  14.582   8.454 -0.1825  0.1466  0.3012
   50loPI   C4A  794   5.845  14.187   8.242 -0.0437  0.2095 -0.0099
   50loPI   C5A  795   6.090  13.784   8.234  0.0431  0.1215  0.1601
   50loPI   C6A  796   6.145  13.331   8.400  0.1055  0.2870  0.2477
   50loPI   C1B  797   5.629  15.322   9.054  0.1566  0.3354 -0.0437
   50loPI   C2B  798   5.779  15.610   8.769  0.0537 -0.0036  0.0473
   50loPI   C3B  799   5.668  15.863   8.398 -0.1030  0.1021 -0.0594
   50loPI   C4B  800   5.347  15.825   8.077  0.0724  0.0590 -0.2090
   51loPI    C1  801  10.349   0.111  10.598  0.2299 -0.0376  0.0440
   51loPI    C2  802  10.620   0.335  10.789  0.1340 -0.0985  0.2555
   51loPI    C3  803  10.530  -0.029  10.926  0.1385 -0.1854  0.0322
   51loPI   PO4  804  10.361   0.128  10.342  0.0407 -0.3672  0.0429
   51loPI   GL1  805  10.315  -0.065  10.023  0.2401  0.0195  0.0935
   51loPI   GL2  806  10.632  -0.144  10.059  0.0898  0.0565  0.4548
   51loPI   C1A  807  10.187   0.004   9.625  0.2955 -0.1508 -0.0584
   51loPI   C2A  808  10.093  -0.203   9.249 -0.0792  0.1952 -0.2804
   51loPI   C3A  809  10.246  -0.196   8.939  0.0830 -0.0487 -0.0010
   51loPI   C4A  810  10.099  -0.211   8.563 -0.0435  0.1058 -0.0547
   51loPI   C5A  811  10.096  -0.479   8.225 -0.0977 -0.3033  0.0713
   51loPI   C6A  812   9.888  -0.607   7.884 -0.1447  0.0318  0.0818
   51loPI   C1B  813  10.657   0.088   9.635 -0.2731 -0.0395 -0.2669
   51loPI   C2B  814  10.489   0.296   9.364 -0.4900 -0.0575 -0.1170
   51loPI   C3B  815  10.545   0.241   9.001 -0.2277 -0.2237  0.0093
   51loPI   C4B  816  10.404   0.192   8.648  0.0444  0.0708  0.3918
   52loPI    C1  817   3.898   2.423  10.257 -0.0030  0.0122 -0.1782
   52loPI    C2  818   4.229   2.233  10.378 -0.0219 -0.0083 -0.1582
   52loPI    C3  819   3.917   2.269  10.626  0.0669  0.2503 -0.0807
   52loPI   PO4  820   3.854   2.719  10.206 -0.1605  0.3448 -0.0044
   52loPI   GL1  821   3.844   3.023   9.848  0.0747  0.2980  0.0307
   52loPI   GL2  822   3.597   3.160   9.945 -0.5571 -0.0411  0.3873
   52loPI   C1A  823   4.033   3.000   9.384 -0.2733 -0.0839  0.1103
   52loPI   C2A  824   4.080   3.016   8.920 -0.1321  0.1657  0.1210
   52loPI   C3A  825   3.979   2.727   8.591  0.3408 -0.2939 -0.1267
   52loPI   C4A  826   4.078   2.642   8.196  0.2273  0.0079  0.0901
   52loPI   C5A  827   3.718   2.876   7.950 -0.0151 -0.3009  0.1728
   52loPI   C6A  828   3.288   2.820   7.847  0.3238  0.0951  0.2806
   52loPI   C1B  829   3.572   3.134   9.429  0.2714 -0.0112 -0.0804
   52loPI   C2B  830   3.569   3.126   9.073  0.3436 -0.1204  0.0424
   52loPI   C3B  831   3.623   3.095   8.658  0.1462 -0.4357  0.1658
   52loPI   C4B  832   3.330   2.991   8.381  0.0010  0.2233 -0.0080
   53loPI    C1  833   0.249   0.542  10.878  0.1669 -0.1033 -0.1847
   53loPI    C2  834   0.560   0.467  11.118  0.0901 -0.2802 -0.1387
   53loPI    C3  835   0.190   0.475  11.268  0.0803  0.0334 -0.1736
   53loPI   PO4  836   0.337   0.429  10.653  0.0157 -0.4264 -0.2966
   53loPI   GL1  837   0.338   0.632  10.323 -0.0693 -0.1301 -0.3727
   53loPI   GL2  838   0.170   0.382  10.103 -0.0593 -0.2880 -0.2189
   53loPI   C1A  839   0.466   0.762   9.795  0.0411  0.0457  0.2836
   53loPI   C2A  840   0.599   1.057   9.458 -0.3621  0.0626  0.1965
   53loPI   C3A  841   0.853   1.196   9.046 -0.3270 -0.2718 -0.2265
   53loPI   C4A  842   0.996   0.904   8.722 -0.1257  0.2102 -0.2558
   53loPI   C5A  843   1.205   0.518   8.594 -0.0254 -0.1416  0.3326
   53loPI   C6A  844   1.140   0.120   8.419 -0.5200  0.3883  0.0462
   53loPI   C1B  845   0.224   0.283   9.594  0.0454  0.0217 -0.0880
   53loPI   C2B  846   0.288   0.239   9.121 -0.0921  0.1429 -0.1686
   53loPI   C3B  847   0.154   0.407   8.722 -0.2297  0.0258  0.0102
   53loPI   C4B  848  -0.203   0.308   8.523 -0.0965  0.0241 -0.0290
   54loPI    C1  849  12.257   6.640  10.717  0.1944 -0.0510 -0.1021
   54loPI    C2  850  12.474   6.483  11.014 -0.0297 -0.1937 -0.0108
   54loPI    C3  851  12.595   6.819  10.833  0.1848 -0.1869  0.1414
   54loPI   PO4  852  12.245   6.421  10.569  0.1535  0.3538 -0.0505
   54loPI   GL1  853  12.137   6.291  10.130 -0.4460  0.3418  0.1743
   54loPI   GL2  854  12.057   5.983  10.062 -0.0672  0.2734  0.0981
   54loPI   C1A  855  12.107   6.207   9.618 -0.1688 -0.1843  0.0471
   54loPI   C2A  856  11.911   6.283   9.210 -0.0199  0.1816 -0.0814
   54loPI   C3A  857  11.897   6.288   8.818 -0.0456 -0.0991 -0.0602
   54loPI   C4A  858  11.871   6.021   8.537  0.2768  0.0508  0.2348
   54loPI   C5A  859  11.916   6.074   8.102 -0.0189 -0.0341 -0.1061
   54loPI   C6A  860  11.787   6.012   7.693  0.1309  0.2173  0.0350
   54loPI   C1B  861  12.174   5.697   9.797  0.0376  0.2861  0.0551
   54loPI   C2B  862  12.270   5.845   9.282  0.0210 -0.1741 -0.2453
   54loPI   C3B  863  12.235   5.949   8.895  0.1848 -0.1820  0.1453
   54loPI   C4B  864  12.437   5.994   8.515  0.1498  0.0644 -0.1742
   55loPI    C1  865  14.361   6.380  10.855  0.0189  0.1979  0.3013
   55loPI    C2  866  14.302   5.991  10.928 -0.1389  0.1349 -0.1304
   55loPI    C3  867  14.267   6.258  11.224 -0.3183 -0.1478  0.1091
   55loPI   PO4  868  14.334   6.306  10.559 -0.3352 -0.1064  0.0044
   55loPI   GL1  869  14.089   6.390  10.199  0.2372 -0.1020 -0.3278
   55loPI   GL2  870  14.107   6.024  10.085 -0.2326  0.1348  0.2521
   55loPI   C1A  871  13.970   6.576   9.830 -0.0038  0.1222 -0.2359
   55loPI   C2A  872  14.154   6.380   9.414 -0.1687 -0.0378 -0.0678
   55loPI   C3A  873  14.182   6.187   9.036 -0.1309 -0.1125  0.0938
   55loPI   C4A  874  14.355   6.075   8.669 -0.3724 -0.3038  0.5857
   55loPI   C5A  875  14.491   6.470   8.331  0.0943  0.1194 -0.2234
   55loPI   C6A  876  14.906   6.620   8.147 -0.0174 -0.2479  0.1369
   55loPI   C1B  877  14.195   5.912   9.638  0.1335 -0.3816 -0.0626
   55loPI   C2B  878  14.172   5.668   9.292 -0.0988  0.0239 -0.2511
   55loPI   C3B  879  14.248   5.636   8.845  0.3432 -0.2113 -0.4521
   55loPI   C4B  880  14.198   5.475   8.480  0.0691  0.1302 -0.1217
   56loPI    C1  881   4.706   7.648  10.339 -0.1693 -0.5607  0.0440
   56loPI    C2  882   4.460   7.701  10.651 -0.1515 -0.0265 -0.0236
   56loPI    C3  883   4.841   7.594  10.712 -0.1300  0.1419  0.1449
   56loPI   PO4  884   4.658   7.887  10.117 -0.2211 -0.1264 -0.0830
   56loPI   GL1  885   4.546   8.065   9.736  0.0093 -0.0870 -0.0217
   56loPI   GL2  886   4.366   7.799   9.643  0.0420  0.3721  0.1712
   56loPI   C1A  887   4.531   8.383   9.390 -0.1720  0.3079 -0.0890
   56loPI   C2A  888   4.581   8.239   9.001  0.0275  0.3064 -0.2622
   56loPI   C3A  889   4.627   8.242   8.578 -0.2855  0.0731 -0.0874
   56loPI   C4A  890   4.864   8.297   8.181 -0.4074  0.2996 -0.3222
   56loPI   C5A  891   5.142   8.353   7.836 -0.1794 -0.1690  0.0176
   56loPI   C6A  892   5.429   8.645   7.529  0.1237  0.4190  0.1500
   56loPI   C1B  893   4.137   7.974   9.310  0.0936  0.1708  0.1025
   56loPI   C2B  894   4.080   8.134   8.971 -0.3752  0.1259  0.2444
   56loPI   C3B  895   3.998   8.204   8.561 -0.0843 -0.0319  0.4791
   56loPI   C4B  896   3.891   8.198   8.114  0.2311  0.0658  0.0743
   57loPI    C1  897   8.549  13.645  10.366 -0.1834 -0.0910  0.0454
   57loPI    C2  898   8.466  13.363  10.095 -0.0958 -0.1986  0.1293
   57loPI    C3  899   8.497  13.266  10.481  0.2466 -0.1321  0.1221
   57loPI   PO4  900   8.717  13.871  10.239 -0.2475 -0.0532 -0.1213
   57loPI   GL1  901   8.720  14.015   9.886 -0.0826  0.0631  0.0217
   57loPI   GL2  902   8.701  14.266   9.784 -0.0899  0.0824  0.3949
   57loPI   C1A  903   8.865  13.771   9.507  0.1226  0.2715 -0.1831
   57loPI   C2A  904   8.806  13.768   9.023 -0.0828 -0.0591 -0.1343
   57loPI   C3A  905   8.880  13.606   8.574 -0.0179 -0.0997 -0.0247
   57loPI   C4A  906   8.757  13.596   8.152  0.0350  0.2147 -0.0146
   57loPI   C5A  907   8.985  13.714   7.811 -0.0938 -0.2131  0.2388
   57loPI   C6A  908   9.429  13.759   7.737  0.1471  0.3293 -0.1072
   57loPI   C1B  909   8.754  14.308   9.387 -0.1024  0.1607 -0.0402
   57loPI   C2B  910   8.777  14.258   8.897 -0.1275  0.0111 -0.0183
   57loPI   C3B  911   9.071  14.035   8.641  0.0438  0.0455 -0.0193
   57loPI   C4B  912   9.212  13.836   8.276 -0.3751 -0.0532 -0.0420
   58loPI    C1  913   8.981   0.795  10.282 -0.0230 -0.1557  0.0558
   58loPI    C2  914   9.255   0.867  10.564  0.1002 -0.2786 -0.0307
   58loPI    C3  915   8.869   0.829  10.664  0.0665  0.2181  0.0523
   58loPI   PO4  916   9.183   0.541  10.128 -0.0724 -0.2751  0.0748
   58loPI   GL1  917   9.436   0.396   9.824 -0.0812 -0.1511 -0.0204
   58loPI   GL2  918   9.458   0.738   9.780  0.3410 -0.1261 -0.3167
   58loPI   C1A  919   9.197   0.207   9.501  0.0574 -0.0007 -0.4508
   58loPI   C2A  920   9.154   0.148   9.120  0.0758 -0.5217  0.0153
   58loPI   C3A  921   9.294   0.210   8.629 -0.1012 -0.1033  0.0707
   58loPI   C4A  922   9.274   0.190   8.199  0.1800  0.0101  0.0684
   58loPI   C5A  923   9.308   0.369   7.744 -0.1049 -0.1967  0.2231
   58loPI   C6A  924   9.259   0.391   7.367  0.2674 -0.0104 -0.2312
   58loPI   C1B  925   9.532   0.617   9.377 -0.1291  0.1115  0.3447
   58loPI   C2B  926   9.595   0.587   8.859 -0.1403 -0.2910  0.0805
   58loPI   C3B  927   9.508   0.589   8.392  0.0926 -0.0047 -0.1958
   58loPI   C4B  928   9.181   0.686   8.099 -0.0262  0.0880 -0.0239
   59loPI    C1  929   2.957   3.898  10.335  0.0189  0.0665 -0.1673
   59loPI    C2  930   3.310   3.824  10.508 -0.1103 -0.0843  0.0369
   59loPI    C3  931   3.109   4.159  10.597 -0.0501 -0.0299 -0.0302
   59loPI   PO4  932   3.053   3.913  10.086 -0.2287 -0.0881 -0.1240
   59loPI   GL1  933   2.729   4.173   9.833 -0.0090  0.0028 -0.2708
   59loPI   GL2  934   2.570   3.896   9.958 -0.2583 -0.1723  0.1764
   59loPI   C1A  935   2.934   4.420   9.655  0.0340 -0.1451  0.3298
   59loPI   C2A  936   3.111   4.296   9.144  0.2218  0.2383  0.0912
   59loPI   C3A  937   3.112   3.977   8.812  0.1230 -0.1223  0.2027
   59loPI   C4A  938   3.051   4.063   8.381 -0.0590  0.2457  0.1687
   59loPI   C5A  939   2.977   4.456   8.191  0.3735 -0.0369 -0.4171
   59loPI   C6A  940   3.125   4.870   8.184  0.1663  0.0820  0.5337
   59loPI   C1B  941   2.292   3.908   9.615  0.0300 -0.0657 -0.0950
   59loPI   C2B  942   2.061   3.921   9.308  0.3808  0.0497  0.0681
   59loPI   C3B  943   2.012   3.802   8.875 -0.0383  0.0551 -0.0464
   59loPI   C4B  944   2.137   3.818   8.475 -0.1977 -0.0814  0.1685
   60loPI    C1  945   1.633   8.238  10.097  0.2097  0.1125 -0.0382
   60loPI    C2  946   1.968   8.159  10.301  0.0773  0.0867  0.1721
   60loPI    C3  947   1.640   8.281  10.494 -0.0121  0.1906 -0.0418
   60loPI   PO4  948   1.651   8.400   9.917 -0.1395  0.1904 -0.1362
   60loPI   GL1  949   1.516   8.368   9.498  0.0187  0.0536  0.0463
   60loPI   GL2  950   1.427   8.697   9.456  0.0459 -0.1074 -0.0365
   60loPI   C1A  951   1.582   8.378   9.098 -0.3504 -0.1974 -0.1487
   60loPI   C2A  952   1.813   8.647   8.988 -0.2636 -0.0439 -0.2529
   60loPI   C3A  953   2.007   8.705   8.567 -0.0659  0.1988  0.3520
   60loPI   C4A  954   1.912   8.658   8.107 -0.2473  0.0812 -0.1517
   60loPI   C5A  955   2.089   8.450   7.789  0.0527  0.1558  0.1291
   60loPI   C6A  956   2.345   8.236   7.536  0.1324 -0.0287  0.1918
   60loPI   C1B  957   1.392   8.835   9.008 -0.1010 -0.3106 -0.0549
   60loPI   C2B  958   1.465   8.826   8.600  0.0106  0.2758  0.0013
   60loPI   C3B  959   1.380   8.629   8.221  0.0950 -0.0571  0.0852
   60loPI   C4B  960   1.210   8.694   7.862  0.0868  0.0797 -0.1932
   61loPI    C1  961   3.768   4.182  10.442 -0.1384 -0.0288  0.2185
   61loPI    C2  962   4.121   4.369  10.464 -0.2765  0.2439  0.1592
   61loPI    C3  963   3.863   4.393  10.769 -0.2502  0.0553  0.1974
   61loPI   PO4  964   3.739   4.292  10.126  0.2525 -0.2911 -0.1674
   61loPI   GL1  965   3.598   4.139   9.799 -0.1103 -0.2565 -0.1928
   61loPI   GL2  966   3.925   4.076   9.724 -0.0638  0.1391 -0.0031
   61loPI   C1A  967   3.451   4.042   9.480 -0.1304  0.1832  0.0145
   61loPI   C2A  968   3.447   3.911   9.130 -0.0728 -0.0660  0.0840
   61loPI   C3A  969   3.612   3.977   8.743  0.2720 -0.2427  0.0261
   61loPI   C4A  970   3.812   4.160   8.388  0.2046  0.0032 -0.2625
   61loPI   C5A  971   4.009   4.246   8.005 -0.0276 -0.2726  0.1927
   61loPI   C6A  972   4.108   4.304   7.607  0.0455 -0.0439 -0.0403
   61loPI   C1B  973   3.970   4.023   9.252 -0.1609 -0.2322 -0.0632
   61loPI   C2B  974   4.062   3.967   8.856 -0.3858  0.0273 -0.1650
   61loPI   C3B  975   4.213   3.784   8.424  0.2120  0.1175  0.0490
   61loPI   C4B  976   4.344   3.624   8.054 -0.1213 -0.2482 -0.0585
   62loPI    C1  977   2.312  10.978  10.392  0.1139 -0.0661 -0.2540
   62loPI    C2  978   2.089  11.296  10.298 -0.0306 -0.1538 -0.2107
   62loPI    C3  979   2.418  11.342  10.521 -0.0908 -0.0445 -0.1433
   62loPI   PO4  980   2.270  10.814  10.209 -0.5611 -0.3063  0.3435
   62loPI   GL1  981   2.105  10.887   9.725  0.3766  0.3641  0.3471
   62loPI   GL2  982   2.241  11.094   9.543  0.1766 -0.0775  0.5406
   62loPI   C1A  983   1.879  10.663   9.452  0.2638 -0.2079  0.0117
   62loPI   C2A  984   1.825  10.610   9.055  0.0443 -0.2574 -0.0257
   62loPI   C3A  985   1.493  10.414   8.768  0.0831 -0.2113 -0.2285
   62loPI   C4A  986   1.199  10.400   8.496 -0.1023 -0.2243  0.3250
   62loPI   C5A  987   1.052  10.503   8.136 -0.3171 -0.0567 -0.2232
   62loPI   C6A  988   0.955  10.720   7.701 -0.0267  0.0686  0.2799
   62loPI   C1B  989   2.159  11.406   9.251  0.0472 -0.0986 -0.2446
   62loPI   C2B  990   2.367  11.693   9.042  0.2852  0.0793 -0.0635
   62loPI   C3B  991   2.528  11.901   8.708 -0.3568  0.2756 -0.1627
   62loPI   C4B  992   2.640  12.230   8.375  0.1649  0.1026  0.0998
   63loPI    C1  993  17.476  15.002  10.942 -0.0338  0.0730 -0.1051
   63loPI    C2  994  17.140  15.104  10.751 -0.1023  0.2177  0.0895
   63loPI    C3  995  17.121  14.944  11.117  0.0369  0.1250  0.0569
   63loPI   PO4  996  17.626  15.098  10.664  0.0992  0.2586 -0.1628
   63loPI   GL1  997  17.460  15.307  10.376 -0.1053 -0.0382  0.1033
   63loPI   GL2  998  17.563  15.605  10.250  0.1687 -0.3654 -0.1923
   63loPI   C1A  999  17.439  15.161   9.999 -0.0583  0.0374 -0.1142
   63loPI   C2A 1000  17.659  15.058   9.796 -0.2269 -0.0409 -0.2933
   63loPI   C3A 1001  17.997  15.165   9.466  0.0460 -0.0898  0.2659
   63loPI   C4A 1002  17.920  15.283   9.018 -0.2354  0.0639  0.1266
   63loPI   C5A 1003  17.720  15.560   8.665  0.2604  0.2076 -0.2005
   63loPI   C6A 1004  17.516  15.772   8.351 -0.3166 -0.1018  0.1498
   63loPI   C1B 1005  17.446  15.774   9.808  0.2356 -0.0063 -0.0114
   63loPI   C2B 1006  17.339  15.933   9.345 -0.0439 -0.2632  0.2108
   63loPI   C3B 1007  17.485  15.979   8.936  0.0577  0.0666 -0.2689
   63loPI   C4B 1008  17.867  15.839   9.133 -0.1950 -0.0585 -0.1023
   64loPI    C1 1009  16.697  15.240  10.419 -0.1733 -0.0001 -0.0147
   64loPI    C2 1010  16.450  15.552  10.373  0.1394  0.2582  0.0280
   64loPI    C3 1011  16.574  15.447  10.739  0.0045  0.0573  0.0173
   64loPI   PO4 1012  16.637  15.068  10.351  0.0136 -0.1269  0.3875
   64loPI   GL1 1013  16.668  14.991   9.950 -0.0664  0.0944 -0.1881
   64loPI   GL2 1014  16.401  14.877   9.793  0.1857  0.1699  0.0174
   64loPI   C1A 1015  16.908  14.885   9.519  0.1621  0.1460  0.0649
   64loPI   C2A 1016  17.073  14.769   9.098 -0.0430  0.0624 -0.0341
   64loPI   C3A 1017  16.942  14.392   9.000  0.2918 -0.0299 -0.1952
   64loPI   C4A 1018  16.828  14.165   8.651 -0.1118  0.0344  0.0984
   64loPI   C5A 1019  17.152  13.951   8.378 -0.0158 -0.1735 -0.1554
   64loPI   C6A 1020  17.436  14.095   8.054  0.1747 -0.1259 -0.1861
   64loPI   C1B 1021  16.128  14.947   9.438  0.0634 -0.0337 -0.2014
   64loPI   C2B 1022  16.178  14.964   8.985 -0.0219 -0.0971  0.1302
   64loPI   C3B 1023  16.330  15.008   8.562  0.1879  0.0326 -0.0042
   64loPI   C4B 1024  16.341  14.960   8.125 -0.1797  0.1697  0.1165
   65loPI    C1 1025   8.734   7.555  10.451 -0.0707 -0.2379 -0.3079
   65loPI    C2 1026   8.595   7.318  10.742  0.1981  0.0692  0.0804
   65loPI    C3 1027   8.341   7.483  10.481 -0.0294 -0.3375  0.0366
   65loPI   PO4 1028   8.937   7.509  10.257  0.0214 -0.0440  0.0232
   65loPI   GL1 1029   9.143   7.189  10.030 -0.0721  0.1012  0.1857
   65loPI   GL2 1030   9.177   6.922   9.758  0.2598 -0.3328  0.0000
   65loPI   C1A 1031   9.333   7.454   9.713  0.0188 -0.0886 -0.0714
   65loPI   C2A 1032   9.481   7.538   9.309  0.0255  0.0443 -0.0954
   65loPI   C3A 1033   9.618   7.507   8.911  0.1458  0.4974  0.1501
   65loPI   C4A 1034   9.860   7.588   8.535 -0.1398  0.1637  0.1097
   65loPI   C5A 1035  10.119   7.766   8.174 -0.1066  0.0497 -0.1945
   65loPI   C6A 1036  10.443   8.024   8.118  0.3016 -0.0685 -0.0758
   65loPI   C1B 1037   9.290   6.894   9.378 -0.0752  0.1911  0.4420
   65loPI   C2B 1038   9.227   6.952   8.887 -0.0158 -0.0855 -0.0304
   65loPI   C3B 1039   9.343   7.051   8.456  0.1965 -0.0001  0.0867
   65loPI   C4B 1040   9.371   7.526   8.382  0.0091 -0.2127  0.0297
   66loPI    C1 1041   8.528   3.848  10.293 -0.0681  0.1278 -0.0846
   66loPI    C2 1042   8.759   4.158  10.190  0.1288  0.1109  0.2875
   66loPI    C3 1043   8.460   4.209  10.450  0.2356 -0.0319  0.4405
   66loPI   PO4 1044   8.649   3.672  10.080 -0.0137  0.1920  0.0874
   66loPI   GL1 1045   8.712   3.957   9.759 -0.2196 -0.0852 -0.0016
   66loPI   GL2 1046   8.358   3.996   9.743  0.0829  0.3499  0.0201
   66loPI   C1A 1047   8.745   4.014   9.253 -0.0256 -0.1730  0.3437
   66loPI   C2A 1048   8.727   4.049   8.783 -0.0562 -0.4544  0.2154
   66loPI   C3A 1049   8.786   4.325   8.392 -0.1488  0.1229 -0.0294
   66loPI   C4A 1050   8.433   4.469   8.157  0.3288 -0.1268  0.1329
   66loPI   C5A 1051   8.060   4.506   7.833  0.0050  0.0805 -0.1227
   66loPI   C6A 1052   7.777   4.189   7.730 -0.0264 -0.0277  0.1245
   66loPI   C1B 1053   8.275   4.163   9.416 -0.1203  0.0456 -0.0471
   66loPI   C2B 1054   8.177   4.290   9.057 -0.1479 -0.1530 -0.0591
   66loPI   C3B 1055   8.167   4.337   8.569 -0.1058  0.1544 -0.0685
   66loPI   C4B 1056   8.008   4.214   8.226 -0.1845  0.0389 -0.0976
   67loPI    C1 1057   8.111   6.187  10.556  0.0209 -0.0609  0.0505
   67loPI    C2 1058   8.174   6.563  10.675  0.0968 -0.0067 -0.1564
   67loPI    C3 1059   7.851   6.365  10.802  0.1274  0.0802  0.0622
   67loPI   PO4 1060   8.093   6.230  10.249 -0.0325  0.3539  0.0649
   67loPI   GL1 1061   8.072   6.124   9.788  0.0651  0.2767  0.0307
   67loPI   GL2 1062   8.373   6.296   9.831 -0.0677 -0.0386 -0.1310
   67loPI   C1A 1063   7.715   5.958   9.431  0.1963 -0.0897 -0.1116
   67loPI   C2A 1064   7.673   5.980   8.923  0.2137  0.0250  0.0033
   67loPI   C3A 1065   7.490   6.215   8.615 -0.1257  0.0218  0.3649
   67loPI   C4A 1066   7.350   6.454   8.185 -0.0080 -0.0497 -0.1946
   67loPI   C5A 1067   7.149   6.524   7.838  0.0086 -0.3054  0.2168
   67loPI   C6A 1068   6.900   6.656   7.595  0.1296 -0.2431  0.1844
   67loPI   C1B 1069   8.429   6.082   9.453 -0.1093  0.0172 -0.0291
   67loPI   C2B 1070   8.549   6.112   9.079 -0.3688  0.1815 -0.1404
   67loPI   C3B 1071   8.583   6.283   8.649  0.2258  0.2557 -0.0998
   67loPI   C4B 1072   8.650   6.248   8.224  0.1346  0.2833 -0.1225
   68loPI    C1 1073   4.423   0.755  10.385 -0.3512  0.1229  0.1726
   68loPI    C2 1074   4.251   0.395  10.366  0.2218 -0.1659  0.2466
   68loPI    C3 1075   4.347   0.552  10.721  0.2564 -0.0798  0.1992
   68loPI   PO4 1076   4.487   0.653  10.043 -0.2294  0.1209  0.1683
   68loPI   GL1 1077   4.385   0.852   9.736  0.0589  0.0883  0.0503
   68loPI   GL2 1078   4.169   1.037   9.683 -0.0057 -0.0618  0.2405
   68loPI   C1A 1079   4.475   0.605   9.351  0.0817  0.1469 -0.2152
   68loPI   C2A 1080   4.659   0.557   8.914 -0.0942  0.0350 -0.1590
   68loPI   C3A 1081   4.841   0.601   8.597  0.0994 -0.2209  0.2134
   68loPI   C4A 1082   4.665   0.337   8.145 -0.1773 -0.3697  0.2600
   68loPI   C5A 1083   4.891   0.019   7.946  0.0295  0.1925 -0.0904
   68loPI   C6A 1084   5.003  -0.317   7.705 -0.1326  0.2517 -0.0395
   68loPI   C1B 1085   4.327   1.094   9.314 -0.2236 -0.0959  0.2860
   68loPI   C2B 1086   4.593   1.053   8.893  0.0257  0.1008  0.0313
   68loPI   C3B 1087   4.678   1.272   8.553  0.0630  0.0705  0.6034
   68loPI   C4B 1088   4.641   1.408   8.091  0.1833 -0.0204 -0.3388
   69loPI    C1 1089  13.496  17.679  10.662  0.0902  0.1286 -0.0143
   69loPI    C2 1090  13.896  17.692  10.676  0.1011  0.0867 -0.2540
   69loPI    C3 1091  13.682  17.751  11.009  0.3162 -0.2766 -0.0448
   69loPI   PO4 1092  13.356  17.738  10.491  0.2716 -0.1330  0.0652
   69loPI   GL1 1093  13.528  17.781  10.073  0.2993  0.0991 -0.0810
   69loPI   GL2 1094  13.705  18.126  10.040  0.1610 -0.2502  0.2895
   69loPI   C1A 1095  13.760  17.468   9.826 -0.3197 -0.0410  0.0763
   69loPI   C2A 1096  13.883  17.513   9.430  0.1223 -0.1970 -0.3157
   69loPI   C3A 1097  14.042  17.513   9.007 -0.0264  0.0050  0.0481
   69loPI   C4A 1098  13.826  17.492   8.519  0.1613 -0.0457  0.0626
   69loPI   C5A 1099  14.026  17.278   8.092 -0.2070  0.1033  0.3918
   69loPI   C6A 1100  14.427  17.037   7.949  0.2259 -0.3821  0.4430
   69loPI   C1B 1101  13.856  18.037   9.603 -0.0444  0.2163  0.0774
   69loPI   C2B 1102  13.921  18.048   9.228 -0.2079  0.0819  0.2303
   69loPI   C3B 1103  13.962  17.961   8.834  0.3290 -0.0643  0.2755
   69loPI   C4B 1104  13.850  18.013   8.453 -0.3475 -0.3026 -0.0543
   70loPI    C1 1105   3.792   0.362  10.334  0.0733  0.2044  0.1987
   70loPI    C2 1106   3.530   0.142  10.542  0.0729  0.0043 -0.0100
   70loPI    C3 1107   3.534   0.540  10.583  0.0262 -0.0268  0.3178
   70loPI   PO4 1108   3.709   0.276  10.024 -0.1493 -0.2087  0.1826
   70loPI   GL1 1109   3.539   0.390   9.621 -0.0018  0.0978  0.2553
   70loPI   GL2 1110   3.770   0.196   9.525  0.1978  0.2677  0.1395
   70loPI   C1A 1111   3.542   0.431   9.182 -0.0047 -0.2111  0.1498
   70loPI   C2A 1112   3.629   0.615   8.845  0.1410 -0.1321 -0.0996
   70loPI   C3A 1113   3.835   0.552   8.419 -0.0618  0.0023  0.1062
   70loPI   C4A 1114   4.012   0.800   8.107 -0.5604 -0.1800  0.1681
   70loPI   C5A 1115   4.231   1.144   7.870 -0.0939 -0.1371 -0.0556
   70loPI   C6A 1116   4.218   1.316   7.417 -0.0318 -0.1885  0.1447
   70loPI   C1B 1117   3.459  -0.072   9.345 -0.1566 -0.2721 -0.1021
   70loPI   C2B 1118   3.348  -0.079   8.941 -0.2508  0.0127  0.0700
   70loPI   C3B 1119   3.615   0.097   8.476 -0.0430  0.2793  0.0694
   70loPI   C4B 1120   3.816   0.001   8.197 -0.1167 -0.2093 -0.1249
   71loPI    C1 1121   7.618   4.874  10.685 -0.0159  0.3937  0.0102
   71loPI    C2 1122   7.265   4.689  10.722  0.1966 -0.0395 -0.0558
   71loPI    C3 1123   7.381   4.957  10.996 -0.1313  0.0224  0.0266
   71loPI   PO4 1124   7.676   4.897  10.415  0.3457 -0.0570  0.2115
   71loPI   GL1 1125   7.957   4.858  10.120  0.0624 -0.0132 -0.0338
   71loPI   GL2 1126   7.592   4.892   9.917  0.2069 -0.0678  0.0161
   71loPI   C1A 1127   8.023   5.135   9.752 -0.1272  0.2139  0.2540
   71loPI   C2A 1128   8.162   5.203   9.307  0.0848  0.1923  0.2497
   71loPI   C3A 1129   8.014   5.225   8.894  0.1047 -0.2698 -0.1208
   71loPI   C4A 1130   7.888   5.235   8.424 -0.0056 -0.3765  0.0262
   71loPI   C5A 1131   7.681   5.462   8.026  0.2954  0.1826  0.2229
   71loPI   C6A 1132   7.338   5.591   7.795  0.0625  0.1500  0.0020
   71loPI   C1B 1133   7.589   4.952   9.496  0.1422 -0.1802  0.3109
   71loPI   C2B 1134   7.668   4.949   9.100 -0.0749  0.1405  0.0778
   71loPI   C3B 1135   7.558   4.937   8.667  0.1699 -0.0597  0.0898
   71loPI   C4B 1136   7.387   4.878   8.297 -0.1488 -0.2062  0.1462
   72loPI    C1 1137  12.877  10.582  10.867 -0.1837 -0.0173 -0.2524
   72loPI    C2 1138  12.795  10.916  10.661 -0.1288  0.0938 -0.0959
   72loPI    C3 1139  12.884  10.937  11.051 -0.0110 -0.0924 -0.1110
   72loPI   PO4 1140  12.732  10.404  10.690 -0.1379  0.0639 -0.0077
   72loPI   GL1 1141  12.845  10.167  10.461  0.4058 -0.0210 -0.1164
   72loPI   GL2 1142  12.518  10.028  10.407  0.3832  0.1673 -0.1436
   72loPI   C1A 1143  12.925  10.247  10.003 -0.0852 -0.1853  0.0064
   72loPI   C2A 1144  12.818  10.273   9.602 -0.3448  0.1182 -0.1728
   72loPI   C3A 1145  13.105  10.070   9.321 -0.0151 -0.0395  0.1334
   72loPI   C4A 1146  13.321   9.976   8.986 -0.0387 -0.0093 -0.0876
   72loPI   C5A 1147  13.485   9.962   8.677 -0.2378  0.3894  0.1608
   72loPI   C6A 1148  13.760  10.065   8.406  0.1505 -0.0787 -0.0952
   72loPI   C1B 1149  12.189   9.899  10.107 -0.2080 -0.0182  0.0635
   72loPI   C2B 1150  12.454   9.869   9.757 -0.0301  0.0373 -0.0473
   72loPI   C3B 1151  12.439   9.923   9.240 -0.1057 -0.0004 -0.0271
   72loPI   C4B 1152  12.709  10.153   8.967  0.0071  0.1261 -0.1200
   73loPI    C1 1153   7.660   6.407  10.013  0.2044 -0.0137 -0.2118
   73loPI    C2 1154   7.592   6.305  10.394 -0.2333 -0.1629 -0.3237
   73loPI    C3 1155   7.793   6.640  10.309 -0.1868 -0.0954  0.0366
   73loPI   PO4 1156   7.404   6.271   9.946 -0.0018 -0.1225  0.2541
   73loPI   GL1 1157   7.225   6.262   9.523  0.0853  0.1377  0.0032
   73loPI   GL2 1158   6.861   6.179   9.393 -0.0548 -0.5093  0.0537
   73loPI   C1A 1159   7.467   6.328   9.203  0.0493  0.0394  0.2310
   73loPI   C2A 1160   7.843   6.530   8.885 -0.0622  0.3246  0.1636
   73loPI   C3A 1161   7.805   6.620   8.381 -0.0108 -0.1113 -0.0553
   73loPI   C4A 1162   7.820   6.840   7.956  0.0934  0.1525 -0.1442
   73loPI   C5A 1163   7.757   7.048   7.546 -0.0660 -0.0633  0.1063
   73loPI   C6A 1164   7.426   7.363   7.429  0.4915  0.2127  0.0748
   73loPI   C1B 1165   7.026   6.302   9.014 -0.3494 -0.1980  0.0001
   73loPI   C2B 1166   7.022   6.315   8.605 -0.0779  0.1967  0.0545
   73loPI   C3B 1167   7.131   6.009   8.216  0.0339  0.2341 -0.1030
   73loPI   C4B 1168   6.821   5.719   7.930  0.0146 -0.1061 -0.0482
   74loPI    C1 1169   9.815  10.358   9.830 -0.0380  0.1985 -0.0735
   74loPI    C2 1170   9.753  10.083  10.114  0.0268  0.2460 -0.0127
   74loPI    C3 1171   9.967  10.410  10.196 -0.0969  0.3422 -0.0687
   74loPI   PO4 1172   9.729  10.123   9.597  0.2647  0.0421  0.0512
   74loPI   GL1 1173   9.870   9.718   9.382  0.0927 -0.2437 -0.1048
   74loPI   GL2 1174  10.174   9.569   9.317  0.0345  0.1372 -0.0097
   74loPI   C1A 1175   9.813   9.744   8.920  0.1400  0.2251  0.3084
   74loPI   C2A 1176   9.741   9.569   8.518  0.1863 -0.4991  0.2114
   74loPI   C3A 1177   9.514   9.524   8.111 -0.0454 -0.0344  0.2325
   74loPI   C4A 1178   9.406   9.416   7.699  0.0356 -0.1588  0.1165
   74loPI   C5A 1179   9.196   9.643   7.347  0.2975  0.1207  0.1938
   74loPI   C6A 1180   9.194   9.428   6.973  0.2539  0.2077 -0.3094
   74loPI   C1B 1181  10.238   9.453   8.899  0.0595  0.0505  0.0608
   74loPI   C2B 1182  10.197   9.269   8.546  0.2229 -0.0336  0.0225
   74loPI   C3B 1183  10.055   9.389   8.178 -0.0633 -0.1030  0.1445
   74loPI   C4B 1184  10.154   9.564   7.783 -0.0006  0.2761  0.1049
   75loPI    C1 1185   7.027   8.811  10.014 -0.1546  0.0220 -0.1050
   75loPI    C2 1186   7.170   8.740  10.381 -0.1428 -0.1821 -0.1481
   75loPI    C3 1187   6.802   8.892  10.335  0.0405  0.3135 -0.0377
   75loPI   PO4 1188   7.286   8.808   9.880 -0.0219 -0.3331 -0.0182
   75loPI   GL1 1189   7.561   8.839   9.661 -0.2751  0.1237  0.0550
   75loPI   GL2 1190   7.715   9.152   9.574 -0.0720  0.2407 -0.1612
   75loPI   C1A 1191   7.308   8.952   9.271  0.2505  0.0788  0.0529
   75loPI   C2A 1192   7.040   9.086   8.905  0.0754 -0.0326 -0.1084
   75loPI   C3A 1193   6.982   8.926   8.514 -0.3193  0.0388 -0.0589
   75loPI   C4A 1194   6.943   9.045   8.137  0.3454  0.1321  0.0678
   75loPI   C5A 1195   6.911   9.440   8.003 -0.1212  0.0679  0.3119
   75loPI   C6A 1196   6.720   9.580   7.580  0.5591 -0.2758 -0.1494
   75loPI   C1B 1197   7.888   9.044   9.306 -0.0115 -0.1025 -0.0097
   75loPI   C2B 1198   7.824   8.951   8.898 -0.1685  0.1128  0.0425
   75loPI   C3B 1199   7.835   9.208   8.524 -0.1040  0.1817  0.0829
   75loPI   C4B 1200   7.830   9.239   8.058  0.1669 -0.0691 -0.3572
   76loPI    C1 1201   7.323   1.608  10.425  0.3011 -0.0760  0.0295
   76loPI    C2 1202   7.217   1.264  10.600  0.0072  0.0305  0.0674
   76loPI    C3 1203   7.283   1.590  10.823  0.3501 -0.0149  0.0374
   76loPI   PO4 1204   7.460   1.530  10.192  0.2986  0.0815  0.0226
   76loPI   GL1 1205   7.345   1.523   9.748  0.3131 -0.1747  0.0757
   76loPI   GL2 1206   7.618   1.331   9.655  0.0170 -0.0673 -0.2057
   76loPI   C1A 1207   7.509   1.840   9.405 -0.0566  0.0220  0.2110
   76loPI   C2A 1208   7.420   2.109   9.056 -0.0052 -0.1798 -0.3350
   76loPI   C3A 1209   7.443   2.353   8.702  0.1862  0.0341  0.0307
   76loPI   C4A 1210   7.756   2.261   8.316 -0.4233  0.1589 -0.3708
   76loPI   C5A 1211   8.023   2.392   7.942  0.0437 -0.1193  0.1053
   76loPI   C6A 1212   8.146   2.762   7.818  0.0438  0.0600 -0.0925
   76loPI   C1B 1213   7.588   1.417   9.227  0.2008  0.0650 -0.1847
   76loPI   C2B 1214   7.505   1.271   8.856  0.0650  0.0855 -0.0429
   76loPI   C3B 1215   7.422   1.334   8.495  0.1934 -0.2218  0.0528
   76loPI   C4B 1216   7.741   1.238   8.213 -0.5010  0.0290  0.0528
   77loPI    C1 1217  16.459  16.596  10.667 -0.2365 -0.0234 -0.1921
   77loPI    C2 1218  16.263  16.346  10.910 -0.2587 -0.0574 -0.2445
   77loPI    C3 1219  16.154  16.731  10.888  0.0666  0.0668  0.1803
   77loPI   PO4 1220  16.623  16.496  10.607 -0.1871  0.1682 -0.0016
   77loPI   GL1 1221  16.676  16.566  10.210  0.0032  0.2369  0.3382
   77loPI   GL2 1222  16.334  16.522  10.149 -0.2433 -0.0437 -0.0375
   77loPI   C1A 1223  16.878  16.492   9.811  0.0608  0.0545  0.0673
   77loPI   C2A 1224  16.884  16.362   9.398 -0.1316  0.2280  0.0572
   77loPI   C3A 1225  16.863  16.160   9.026 -0.1420  0.0883 -0.1789
   77loPI   C4A 1226  16.529  15.923   8.682 -0.2208 -0.2011  0.0519
   77loPI   C5A 1227  16.320  15.693   8.481 -0.1391 -0.0614  0.1007
   77loPI   C6A 1228  16.186  15.499   8.091 -0.0825  0.0928 -0.2248
   77loPI   C1B 1229  15.988  16.675   9.999 -0.1742 -0.1163  0.3643
   77loPI   C2B 1230  15.909  16.933   9.639 -0.1361  0.0719  0.0134
   77loPI   C3B 1231  16.035  17.007   9.320  0.0744  0.1556  0.1591
   77loPI   C4B 1232  15.899  17.113   8.961  0.1173 -0.0322 -0.3160
   78loPI    C1 1233  13.782  18.270  10.829  0.0265 -0.0704  0.0535
   78loPI    C2 1234  14.059  18.093  11.057  0.0911 -0.0226  0.0122
   78loPI    C3 1235  13.711  18.206  11.218  0.2260  0.2190  0.1410
   78loPI   PO4 1236  13.908  18.127  10.510  0.0482 -0.4359  0.0353
   78loPI   GL1 1237  14.136  18.380  10.130 -0.1827 -0.1059  0.2863
   78loPI   GL2 1238  14.384  18.225  10.273 -0.0681 -0.1024  0.0742
   78loPI   C1A 1239  14.279  18.278   9.778 -0.0962 -0.1465  0.1813
   78loPI   C2A 1240  14.343  18.372   9.338 -0.2728  0.2339 -0.4984
   78loPI   C3A 1241  14.374  18.237   8.891  0.2197  0.0645 -0.1329
   78loPI   C4A 1242  14.380  18.141   8.446  0.1119  0.2367  0.0012
   78loPI   C5A 1243  14.628  17.870   8.232 -0.2947 -0.0915  0.1478
   78loPI   C6A 1244  14.600  17.486   8.198 -0.1178 -0.0257 -0.0190
   78loPI   C1B 1245  14.743  18.050   9.979  0.1993  0.1531 -0.0926
   78loPI   C2B 1246  14.863  18.104   9.567  0.0225 -0.1620 -0.3541
   78loPI   C3B 1247  14.787  18.139   9.098 -0.0037 -0.1641  0.2240
   78loPI   C4B 1248  14.789  18.018   8.664 -0.0155  0.3990  0.0142
   79loPI    C1 1249  16.132   3.342  10.775  0.0780  0.1159 -0.0430
   79loPI    C2 1250  16.213   3.015  10.991 -0.0176  0.0594 -0.0919
   79loPI    C3 1251  16.102   3.353  11.174  0.3351  0.1417 -0.0229
   79loPI   PO4 1252  16.312   3.178  10.477 -0.1460 -0.0535 -0.3865
   79loPI   GL1 1253  16.415   3.186  10.038  0.1807 -0.0417 -0.0390
   79loPI   GL2 1254  16.579   3.420   9.890 -0.1075  0.0280 -0.1477
   79loPI   C1A 1255  16.053   3.114   9.862  0.1264 -0.1552  0.2005
   79loPI   C2A 1256  15.921   3.196   9.488  0.1040 -0.1035  0.0537
   79loPI   C3A 1257  15.881   3.198   9.092  0.1700 -0.0378 -0.3383
   79loPI   C4A 1258  15.852   3.188   8.715 -0.0643  0.2788  0.1419
   79loPI   C5A 1259  15.914   3.252   8.306 -0.1355 -0.1471  0.0061
   79loPI   C6A 1260  16.057   3.421   7.984 -0.0189 -0.1832  0.2089
   79loPI   C1B 1261  16.400   3.403   9.496  0.2756  0.1339  0.0493
   79loPI   C2B 1262  16.323   3.522   9.018  0.0055 -0.3632  0.0754
   79loPI   C3B 1263  16.327   3.569   8.592 -0.0411 -0.1386  0.0107
   79loPI   C4B 1264  16.433   3.779   8.269  0.1225  0.0791  0.0990
   80loPI    C1 1265   4.379   3.923   9.841 -0.2394 -0.1922 -0.0266
   80loPI    C2 1266   4.296   4.284   9.993  0.1477  0.0332 -0.3330
   80loPI    C3 1267   4.143   3.956  10.163  0.1003  0.3125  0.1833
   80loPI   PO4 1268   4.715   4.001   9.777 -0.0092  0.1294 -0.2336
   80loPI   GL1 1269   5.008   3.910   9.465  0.2484 -0.2644  0.1807
   80loPI   GL2 1270   5.301   3.802   9.366  0.0269 -0.3029  0.2306
   80loPI   C1A 1271   5.071   4.059   9.028  0.3594 -0.1275 -0.0034
   80loPI   C2A 1272   5.054   4.195   8.602  0.1486  0.2238  0.2713
   80loPI   C3A 1273   5.348   4.200   8.269  0.2246 -0.0646  0.1638
   80loPI   C4A 1274   5.749   4.464   8.161  0.0173  0.0129 -0.2558
   80loPI   C5A 1275   5.999   4.510   7.683  0.3596 -0.0138 -0.0546
   80loPI   C6A 1276   6.106   4.983   7.628 -0.0154  0.1779  0.1818
   80loPI   C1B 1277   5.561   3.877   8.988  0.1153 -0.0626 -0.3091
   80loPI   C2B 1278   5.685   4.051   8.651  0.1306  0.1335  0.0138
   80loPI   C3B 1279   5.846   3.908   8.295  0.0179 -0.0035  0.2241
   80loPI   C4B 1280   6.022   3.807   7.908 -0.1572 -0.0371  0.1211
   81loPI    C1 1281   0.602   2.519  10.448  0.0866  0.1178 -0.1056
   81loPI    C2 1282   0.338   2.306  10.236  0.1402  0.0402 -0.0946
   81loPI    C3 1283   0.216   2.625  10.444 -0.0064 -0.1900  0.1814
   81loPI   PO4 1284   0.802   2.402  10.334  0.0231 -0.3034 -0.0718
   81loPI   GL1 1285   1.062   2.332   9.962 -0.0504 -0.2984  0.1414
   81loPI   GL2 1286   0.768   2.334   9.607  0.1622  0.0641 -0.1358
   81loPI   C1A 1287   1.399   2.617   9.717  0.1445  0.2894  0.1930
   81loPI   C2A 1288   1.621   2.859   9.417  0.2314 -0.1277  0.1210
   81loPI   C3A 1289   1.852   2.729   9.023  0.4704 -0.1079 -0.1050
   81loPI   C4A 1290   1.886   2.544   8.582  0.2931 -0.1806  0.0256
   81loPI   C5A 1291   2.135   2.304   8.373 -0.2997 -0.0688  0.0560
   81loPI   C6A 1292   2.348   1.966   8.390 -0.0915  0.2869 -0.2083
   81loPI   C1B 1293   0.571   2.045   9.290  0.0110  0.0330  0.1543
   81loPI   C2B 1294   0.542   2.135   8.862 -0.3370 -0.0689  0.0636
   81loPI   C3B 1295   0.594   1.978   8.474 -0.4408 -0.0422  0.1804
   81loPI   C4B 1296   0.739   1.698   8.083  0.0746  0.2137 -0.1315
   82loPI    C1 1297  12.404  12.237  10.688 -0.0431 -0.0106 -0.0705
   82loPI    C2 1298  12.210  12.319  11.028  0.2685 -0.2719  0.1772
   82loPI    C3 1299  12.607  12.363  11.008  0.2169  0.0734 -0.2649
   82loPI   PO4 1300  12.233  12.418  10.405 -0.2511 -0.0729  0.0255
   82loPI   GL1 1301  12.151  12.345  10.010  0.3257 -0.3479  0.3332
   82loPI   GL2 1302  12.423  12.355   9.818  0.0499  0.0174 -0.4864
   82loPI   C1A 1303  11.987  12.332   9.621 -0.2312  0.1840  0.2573
   82loPI   C2A 1304  11.963  12.484   9.257 -0.0245 -0.0485 -0.0422
   82loPI   C3A 1305  11.903  12.543   8.832 -0.2517  0.0527  0.2503
   82loPI   C4A 1306  11.745  12.637   8.421  0.2716  0.0350 -0.3075
   82loPI   C5A 1307  11.683  12.626   8.009  0.0292 -0.0132 -0.0335
   82loPI   C6A 1308  11.894  12.915   7.720  0.2144 -0.1053 -0.0854
   82loPI   C1B 1309  12.425  12.323   9.387  0.2953  0.1697  0.1089
   82loPI   C2B 1310  12.344  12.289   8.990 -0.1472 -0.2516  0.4383
   82loPI   C3B 1311  12.307  12.382   8.506  0.2760 -0.0522  0.0344
   82loPI   C4B 1312  12.535  12.631   8.286  0.0177  0.1366 -0.3792
   83loPI    C1 1313  10.705  13.267  10.731  0.1140  0.0006 -0.1680
   83loPI    C2 1314  10.322  13.160  10.775  0.0875  0.1723  0.0357
   83loPI    C3 1315  10.602  13.006  11.015  0.0772  0.4027  0.1992
   83loPI   PO4 1316  10.759  13.199  10.476 -0.0233  0.0275  0.1632
   83loPI   GL1 1317  10.681  13.110  10.058  0.0973 -0.0750 -0.3495
   83loPI   GL2 1318  10.802  12.852   9.915  0.1419 -0.0004 -0.0253
   83loPI   C1A 1319  10.793  13.378   9.612 -0.3548 -0.0572  0.1602
   83loPI   C2A 1320  10.760  13.360   9.131  0.0318 -0.2339  0.2641
   83loPI   C3A 1321  10.851  13.398   8.677 -0.0256  0.0815  0.2272
   83loPI   C4A 1322  10.889  13.665   8.277  0.0088  0.1149  0.0683
   83loPI   C5A 1323  11.051  13.980   8.065 -0.1329  0.2088  0.3027
   83loPI   C6A 1324  11.207  14.304   8.019 -0.1325  0.0312 -0.1287
   83loPI   C1B 1325  10.751  12.933   9.448  0.0239  0.0383 -0.2566
   83loPI   C2B 1326  10.824  12.920   8.932  0.0941  0.0391  0.0525
   83loPI   C3B 1327  10.798  12.951   8.508  0.0287 -0.0037  0.2577
   83loPI   C4B 1328  10.748  13.200   8.184 -0.0959  0.2251  0.0253
   84loPI    C1 1329  11.994   2.005  10.527  0.1882 -0.1494 -0.1014
   84loPI    C2 1330  11.873   2.314  10.750 -0.0021 -0.1476 -0.2047
   84loPI    C3 1331  12.263   2.254  10.686  0.0385  0.0363 -0.1354
   84loPI   PO4 1332  11.854   1.982  10.269 -0.0681  0.0912  0.0042
   84loPI   GL1 1333  11.678   1.970   9.908 -0.0086 -0.1199 -0.2854
   84loPI   GL2 1334  11.478   2.097   9.927 -0.2329  0.3303 -0.0191
   84loPI   C1A 1335  11.847   1.743   9.468 -0.0132  0.3024  0.0829
   84loPI   C2A 1336  12.041   1.984   9.059 -0.2612  0.3914 -0.1068
   84loPI   C3A 1337  12.118   2.243   8.688  0.7928 -0.4378 -0.0151
   84loPI   C4A 1338  11.878   2.200   8.224 -0.2423  0.1962 -0.2154
   84loPI   C5A 1339  11.490   2.329   8.023 -0.4385  0.0224  0.1292
   84loPI   C6A 1340  11.059   2.550   7.859  0.3792  0.0831 -0.1426
   84loPI   C1B 1341  11.338   2.391   9.638  0.1927 -0.1038  0.1140
   84loPI   C2B 1342  11.216   2.511   9.241 -0.0026 -0.0618  0.3772
   84loPI   C3B 1343  11.134   2.349   8.843  0.0722 -0.4359  0.0433
   84loPI   C4B 1344  11.041   1.991   8.692  0.1357  0.2346 -0.0165
   85loPI    C1 1345  13.555  12.745  10.362 -0.1128 -0.0090 -0.0203
   85loPI    C2 1346  13.527  12.762  10.761 -0.1211  0.1536 -0.0274
   85loPI    C3 1347  13.255  12.558  10.550 -0.0479 -0.0349  0.0582
   85loPI   PO4 1348  13.856  12.734  10.298  0.1042 -0.2766 -0.0540
   85loPI   GL1 1349  13.824  12.921   9.909  0.0366 -0.1134  0.0815
   85loPI   GL2 1350  13.676  13.178   9.788  0.1396 -0.1461 -0.3010
   85loPI   C1A 1351  13.874  12.830   9.443  0.5942  0.2709 -0.0091
   85loPI   C2A 1352  13.987  12.788   9.005 -0.2072  0.1610  0.0771
   85loPI   C3A 1353  14.033  12.964   8.507 -0.1456 -0.1409 -0.0088
   85loPI   C4A 1354  14.037  13.135   8.110  0.0634  0.0496  0.2215
   85loPI   C5A 1355  13.860  13.419   8.052  0.0363 -0.4365  0.0890
   85loPI   C6A 1356  13.638  13.681   7.812 -0.2123 -0.3876  0.0060
   85loPI   C1B 1357  13.719  13.532   9.516  0.0796  0.0553  0.1095
   85loPI   C2B 1358  13.620  13.521   9.113 -0.1090  0.0523  0.1069
   85loPI   C3B 1359  13.721  13.532   8.674 -0.0966  0.0322 -0.1160
   85loPI   C4B 1360  13.831  13.759   8.491 -0.1073 -0.4009  0.0286
   86loPI    C1 1361   6.979  14.095  10.364 -0.2220 -0.2195  0.0558
   86loPI    C2 1362   6.811  13.852  10.095  0.2024 -0.4646  0.0026
   86loPI    C3 1363   6.755  13.788  10.486 -0.0248 -0.3948 -0.0173
   86loPI   PO4 1364   6.940  14.343  10.270  0.0815  0.0687 -0.3219
   86loPI   GL1 1365   6.794  14.368   9.849  0.0889  0.0769  0.1091
   86loPI   GL2 1366   6.842  14.697   9.762 -0.3335  0.0010  0.0618
   86loPI   C1A 1367   6.710  14.320   9.497  0.2503  0.1534  0.0269
   86loPI   C2A 1368   6.919  14.173   9.117 -0.1548 -0.2586  0.0421
   86loPI   C3A 1369   6.853  14.082   8.720 -0.3652  0.5479  0.0467
   86loPI   C4A 1370   7.028  14.145   8.316 -0.1095 -0.1692 -0.2540
   86loPI   C5A 1371   7.047  13.974   7.922 -0.0432 -0.2578 -0.1297
   86loPI   C6A 1372   6.963  14.149   7.515  0.1166  0.0432  0.2394
   86loPI   C1B 1373   6.921  14.768   9.366  0.2470  0.0562  0.1096
   86loPI   C2B 1374   6.860  14.722   8.925  0.1664  0.1087  0.0536
   86loPI   C3B 1375   6.729  14.535   8.572  0.1859  0.2443 -0.1115
   86loPI   C4B 1376   6.698  14.738   8.238 -0.0531  0.0053  0.0031
   87loPI    C1 1377  13.115  13.767  10.327  0.0680  0.2484  0.0073
   87loPI    C2 1378  12.788  13.931  10.489 -0.0891  0.0877 -0.1429
   87loPI    C3 1379  12.843  13.535  10.506  0.0168  0.0967 -0.2614
   87loPI   PO4 1380  13.143  13.964  10.097  0.1856  0.2379  0.0836
   87loPI   GL1 1381  13.498  14.049   9.705  0.4173 -0.0372 -0.0871
   87loPI   GL2 1382  13.865  14.219   9.805  0.0240 -0.2862 -0.2755
   87loPI   C1A 1383  13.474  13.947   9.358  0.0452 -0.0289 -0.1266
   87loPI   C2A 1384  13.590  13.957   8.903  0.0111  0.1558  0.1387
   87loPI   C3A 1385  13.599  14.255   8.608  0.1440 -0.0283  0.1403
   87loPI   C4A 1386  13.563  14.565   8.279  0.2429 -0.1265 -0.0149
   87loPI   C5A 1387  13.465  14.707   7.915  0.2023  0.1436  0.2711
   87loPI   C6A 1388  13.242  15.126   7.745 -0.0337 -0.0565  0.2248
   87loPI   C1B 1389  14.072  14.227   9.504 -0.1415  0.0509 -0.0010
   87loPI   C2B 1390  14.325  14.421   9.232  0.0971  0.1403 -0.1382
   87loPI   C3B 1391  14.559  14.517   8.859 -0.1500 -0.2108 -0.2981
   87loPI   C4B 1392  14.834  14.596   8.488 -0.0389 -0.0488  0.0379
   88loPI    C1 1393  11.693  14.831  10.779  0.1140 -0.0591 -0.0082
   88loPI    C2 1394  11.998  14.886  11.032  0.1414 -0.1740 -0.0155
   88loPI    C3 1395  11.623  14.960  11.151  0.1766  0.0296 -0.0268
   88loPI   PO4 1396  11.726  14.949  10.559 -0.1263  0.0920 -0.1986
   88loPI   GL1 1397  11.597  15.130  10.154  0.1861 -0.0203 -0.1560
   88loPI   GL2 1398  11.294  14.972  10.005  0.0360  0.2189  0.0896
   88loPI   C1A 1399  11.671  15.326   9.696 -0.1044 -0.3542 -0.1870
   88loPI   C2A 1400  11.498  15.504   9.339  0.1263  0.1298  0.1720
   88loPI   C3A 1401  11.707  15.743   8.974 -0.3677  0.1391  0.2571
   88loPI   C4A 1402  12.100  15.837   8.726 -0.0329  0.0435 -0.3216
   88loPI   C5A 1403  12.295  16.208   8.619  0.0015  0.1160  0.2163
   88loPI   C6A 1404  12.444  16.655   8.414 -0.1193  0.0833 -0.0106
   88loPI   C1B 1405  11.233  15.072   9.498 -0.1523  0.0836 -0.2491
   88loPI   C2B 1406  11.133  15.224   9.147  0.2698 -0.0985  0.2348
   88loPI   C3B 1407  10.915  15.274   8.740  0.1116 -0.2487  0.1163
   88loPI   C4B 1408  10.854  15.566   8.355 -0.3785  0.0147  0.2456
   89loPI    C1 1409   2.289   1.059  10.383 -0.1116 -0.0521  0.0788
   89loPI    C2 1410   2.650   0.988  10.541  0.0202  0.1681 -0.1166
   89loPI    C3 1411   2.549   0.825  10.189 -0.0380  0.1774 -0.1044
   89loPI   PO4 1412   2.301   1.248  10.281 -0.0873  0.1602 -0.2311
   89loPI   GL1 1413   2.414   1.464   9.950  0.1578  0.0503 -0.3035
   89loPI   GL2 1414   2.628   1.729  10.057 -0.1933 -0.0809 -0.1454
   89loPI   C1A 1415   2.670   1.450   9.542  0.0282 -0.2018  0.0688
   89loPI   C2A 1416   2.770   1.372   9.041  0.3307 -0.1984  0.0375
   89loPI   C3A 1417   2.733   1.176   8.538 -0.0100 -0.1655  0.1724
   89loPI   C4A 1418   2.573   1.057   8.135 -0.0178 -0.0963 -0.2501
   89loPI   C5A 1419   2.169   1.063   7.853 -0.3535 -0.1621 -0.0047
   89loPI   C6A 1420   1.769   0.888   7.819  0.0565 -0.0838  0.0472
   89loPI   C1B 1421   2.689   1.975   9.617  0.1005  0.2227 -0.2601
   89loPI   C2B 1422   2.930   2.014   9.240 -0.0895  0.2441 -0.0233
   89loPI   C3B 1423   2.780   2.083   8.797  0.1952 -0.1005  0.1977
   89loPI   C4B 1424   2.786   2.187   8.353  0.1199  0.0306  0.0126
   90loPI    C1 1425   1.977  10.485  10.444 -0.3003 -0.1084  0.3399
   90loPI    C2 1426   1.887  10.840  10.606 -0.1518 -0.0288  0.2496
   90loPI    C3 1427   2.172  10.612  10.769  0.0982  0.1153  0.0231
   90loPI   PO4 1428   1.770  10.357  10.339 -0.1790 -0.1236  0.1254
   90loPI   GL1 1429   1.754   9.969  10.110 -0.0916  0.1189  0.2442
   90loPI   GL2 1430   1.917   9.942   9.812 -0.0610  0.1939 -0.3213
   90loPI   C1A 1431   1.414   9.806   9.753  0.0652 -0.0161  0.3134
   90loPI   C2A 1432   1.386   9.609   9.398  0.3172 -0.1339  0.2005
   90loPI   C3A 1433   1.366   9.311   9.072  0.1300  0.1336  0.1650
   90loPI   C4A 1434   1.419   9.308   8.644  0.1324 -0.0253  0.0470
   90loPI   C5A 1435   1.578   9.658   8.298 -0.2352  0.0684 -0.1508
   90loPI   C6A 1436   1.674  10.124   8.226  0.0785  0.2154  0.1284
   90loPI   C1B 1437   1.885   9.635   9.506 -0.1435 -0.1014 -0.2033
   90loPI   C2B 1438   1.903   9.591   9.070 -0.3050  0.0776 -0.3559
   90loPI   C3B 1439   1.890   9.519   8.705  0.1258 -0.0544  0.0978
   90loPI   C4B 1440   1.861   9.163   8.280 -0.1177  0.1551 -0.5420
   91loPI    C1 1441   4.665   1.305   9.613 -0.0099 -0.0885 -0.1627
   91loPI    C2 1442   4.946   1.587   9.650 -0.0783 -0.0292 -0.0910
   91loPI    C3 1443   4.569   1.665   9.760 -0.0781 -0.1797  0.0195
   91loPI   PO4 1444   4.832   1.072   9.762  0.5009 -0.4171  0.3126
   91loPI   GL1 1445   4.888   0.746   9.626 -0.1368 -0.1088  0.1224
   91loPI   GL2 1446   4.904   0.469   9.801  0.4047  0.0215 -0.0161
   91loPI   C1A 1447   5.131   0.743   9.160  0.1958  0.2421 -0.0336
   91loPI   C2A 1448   5.329   0.569   8.727  0.1984  0.0642  0.0141
   91loPI   C3A 1449   5.290   0.620   8.200 -0.0147  0.0004  0.0513
   91loPI   C4A 1450   5.305   0.293   7.901 -0.0169  0.0549 -0.0947
   91loPI   C5A 1451   5.625   0.122   7.714 -0.1596  0.2341  0.0573
   91loPI   C6A 1452   5.819  -0.207   7.811 -0.0393  0.3514  0.2039
   91loPI   C1B 1453   4.892   0.340   9.404  0.0198 -0.1682 -0.0131
   91loPI   C2B 1454   4.590   0.143   9.257  0.0075  0.3584 -0.2683
   91loPI   C3B 1455   4.235   0.220   9.107  0.1680  0.1795 -0.0251
   91loPI   C4B 1456   3.890   0.217   8.854 -0.3473 -0.1073 -0.1537
   92loPI    C1 1457   8.350   9.895  10.066 -0.0402 -0.0350  0.1648
   92loPI    C2 1458   8.593  10.197  10.166  0.1504 -0.1521  0.0613
   92loPI    C3 1459   8.480   9.932  10.443 -0.2177  0.1498  0.2102
   92loPI   PO4 1460   8.424   9.767   9.925 -0.1489  0.2204  0.1528
   92loPI   GL1 1461   8.350   9.658   9.489  0.0533 -0.1368 -0.1461
   92loPI   GL2 1462   8.290   9.316   9.500  0.2932 -0.0623  0.0648
   92loPI   C1A 1463   8.439   9.666   9.049  0.1223  0.1172 -0.2957
   92loPI   C2A 1464   8.745   9.706   8.569  0.3700 -0.2041  0.0967
   92loPI   C3A 1465   9.027   9.873   8.216 -0.3609  0.2819  0.0673
   92loPI   C4A 1466   9.148   9.871   7.771  0.1533  0.2283  0.0275
   92loPI   C5A 1467   9.199  10.151   7.508 -0.0266 -0.0557 -0.2169
   92loPI   C6A 1468   9.461  10.262   7.288 -0.3433 -0.1871  0.0710
   92loPI   C1B 1469   8.365   9.103   9.095  0.6509  0.0806 -0.2697
   92loPI   C2B 1470   8.313   8.965   8.734 -0.0718  0.1207 -0.1617
   92loPI   C3B 1471   8.260   9.089   8.305 -0.0359  0.1170 -0.1103
   92loPI   C4B 1472   8.194   9.066   7.837 -0.0207  0.2141 -0.0598
   93loPI    C1 1473   4.822   4.405  10.100  0.2364 -0.2031 -0.0250
   93loPI    C2 1474   4.619   4.438  10.443  0.2477 -0.0943 -0.0284
   93loPI    C3 1475   4.658   4.081  10.267 -0.3289 -0.0520 -0.2643
   93loPI   PO4 1476   4.757   4.677  10.000  0.0961 -0.0015 -0.1204
   93loPI   GL1 1477   4.495   4.721   9.625  0.0152  0.1174  0.0012
   93loPI   GL2 1478   4.479   4.430   9.585 -0.0564 -0.0163 -0.6332
   93loPI   C1A 1479   4.902   4.729   9.347 -0.2143  0.2667 -0.0582
   93loPI   C2A 1480   5.105   4.741   8.937 -0.0750 -0.0487  0.2449
   93loPI   C3A 1481   4.910   4.701   8.586 -0.0074  0.3231 -0.0106
   93loPI   C4A 1482   4.883   4.444   8.229  0.0134  0.0820  0.3160
   93loPI   C5A 1483   4.836   4.538   7.879 -0.1403 -0.1308  0.1580
   93loPI   C6A 1484   4.907   4.635   7.494  0.0497  0.1684  0.3716
   93loPI   C1B 1485   4.283   4.411   9.156  0.2533  0.1975 -0.2298
   93loPI   C2B 1486   4.155   4.479   8.622  0.0001 -0.0352 -0.0450
   93loPI   C3B 1487   3.954   4.607   8.321 -0.0288  0.0624 -0.0354
   93loPI   C4B 1488   3.665   4.836   8.246 -0.1838 -0.1169  0.3123
   94loPI    C1 1489  13.318  11.506  10.579 -0.0689 -0.2287 -0.0930
   94loPI    C2 1490  13.536  11.494  10.914 -0.0516 -0.1391 -0.1008
   94loPI    C3 1491  13.266  11.784  10.862 -0.2059 -0.2760 -0.0710
   94loPI   PO4 1492  13.500  11.578  10.348  0.1710  0.4213 -0.0759
   94loPI   GL1 1493  13.441  11.771   9.907  0.2262  0.1762 -0.0503
   94loPI   GL2 1494  13.149  11.606   9.932 -0.2512 -0.2282 -0.3106
   94loPI   C1A 1495  13.391  11.961   9.557 -0.2078  0.1480 -0.2456
   94loPI   C2A 1496  13.420  11.853   9.126  0.4409 -0.0183  0.1853
   94loPI   C3A 1497  13.233  11.892   8.650 -0.0510  0.0185 -0.2493
   94loPI   C4A 1498  12.731  12.012   8.453  0.0948  0.0169  0.1141
   94loPI   C5A 1499  12.688  12.209   8.012 -0.1857 -0.1650 -0.0606
   94loPI   C6A 1500  12.816  12.482   7.630  0.1399 -0.0468 -0.2568
   94loPI   C1B 1501  13.024  11.535   9.591  0.3456 -0.1365  0.1028
   94loPI   C2B 1502  13.001  11.500   9.170 -0.1872 -0.0957 -0.2400
   94loPI   C3B 1503  13.173  11.414   8.783  0.3266  0.0509 -0.0535
   94loPI   C4B 1504  13.276  11.291   8.463  0.2185 -0.1064 -0.2126
   95loPI    C1 1505   9.274   8.771  10.398 -0.1522  0.0730 -0.0092
   95loPI    C2 1506   9.419   8.701  10.764 -0.0062  0.1146 -0.0584
   95loPI    C3 1507   9.157   8.447  10.601  0.1145 -0.0345 -0.0228
   95loPI   PO4 1508   9.578   8.872  10.266  0.0622  0.0524  0.0868
   95loPI   GL1 1509   9.743   8.881   9.795  0.3111 -0.3162 -0.1304
   95loPI   GL2 1510   9.406   9.011   9.851 -0.0667  0.0340 -0.0872
   95loPI   C1A 1511   9.677   9.090   9.404  0.0117 -0.1659 -0.0199
   95loPI   C2A 1512   9.632   9.278   9.064 -0.3766 -0.2331 -0.1476
   95loPI   C3A 1513   9.301   9.408   8.816 -0.0991  0.2401 -0.1197
   95loPI   C4A 1514   9.141   9.444   8.476  0.1580  0.0723  0.0008
   95loPI   C5A 1515   9.005   9.358   8.091 -0.0236 -0.2056  0.0230
   95loPI   C6A 1516   8.648   9.075   8.022  0.0471 -0.1453  0.2968
   95loPI   C1B 1517   9.180   8.784   9.406  0.4202 -0.2441 -0.0571
   95loPI   C2B 1518   9.197   8.938   9.008 -0.1589  0.1939 -0.0389
   95loPI   C3B 1519   9.363   8.907   8.691 -0.3646  0.1197  0.1577
   95loPI   C4B 1520   9.612   9.071   8.353 -0.1693 -0.0200  0.1783
   96loPI    C1 1521   8.715  10.785  10.028 -0.1441 -0.3079 -0.1857
   96loPI    C2 1522   8.983  10.560  10.221  0.0324  0.0897  0.0470
   96loPI    C3 1523   8.724  10.782  10.428 -0.2558 -0.0286 -0.1790
   96loPI   PO4 1524   8.664  10.648   9.862  0.1169 -0.1019 -0.0086
   96loPI   GL1 1525   8.506  10.617   9.497 -0.1186  0.2372 -0.1475
   96loPI   GL2 1526   8.770  10.633   9.315 -0.4429  0.1656  0.5570
   96loPI   C1A 1527   8.434  10.372   9.016 -0.1305  0.0253  0.1478
   96loPI   C2A 1528   8.554  10.127   8.675 -0.1830 -0.2675 -0.0221
   96loPI   C3A 1529   8.576  10.086   8.229 -0.2538 -0.0717 -0.2350
   96loPI   C4A 1530   8.823  10.286   7.821  0.0153  0.2968  0.2304
   96loPI   C5A 1531   8.906  10.609   7.482  0.0106  0.2100  0.1545
   96loPI   C6A 1532   9.201  10.693   7.129  0.0556 -0.0275  0.0692
   96loPI   C1B 1533   8.757  10.715   8.871 -0.1979 -0.0224  0.1053
   96loPI   C2B 1534   8.590  10.638   8.499  0.1601 -0.1917 -0.0197
   96loPI   C3B 1535   8.596  10.732   8.067 -0.0278 -0.0953  0.2841
   96loPI   C4B 1536   8.671  11.004   7.701 -0.0138  0.1532 -0.1068
   97loPI    C1 1537   5.857   7.351   9.999  0.2963 -0.1842  0.1236
   97loPI    C2 1538   5.721   6.999   9.867  0.0545 -0.0876  0.1095
   97loPI    C3 1539   5.984   7.012  10.168  0.1600 -0.2841  0.0277
   97loPI   PO4 1540   5.914   7.435   9.767 -0.2089  0.1876 -0.2318
   97loPI   GL1 1541   5.754   7.651   9.282  0.0359  0.0119 -0.2419
   97loPI   GL2 1542   5.507   7.939   9.180 -0.0956 -0.2980  0.0146
   97loPI   C1A 1543   5.904   7.838   8.816  0.0741  0.1984  0.0249
   97loPI   C2A 1544   6.114   7.720   8.506  0.1201  0.0563  0.3781
   97loPI   C3A 1545   6.205   7.404   8.216  0.0617 -0.3351  0.1862
   97loPI   C4A 1546   6.147   7.568   7.698  0.0642  0.2612 -0.3206
   97loPI   C5A 1547   6.491   7.469   7.327 -0.3529  0.1496 -0.2803
   97loPI   C6A 1548   6.525   7.366   6.828 -0.2310  0.2793 -0.1658
   97loPI   C1B 1549   5.086   7.959   8.917  0.0544  0.0462  0.0440
   97loPI   C2B 1550   4.936   7.794   8.585  0.1029  0.0078  0.0251
   97loPI   C3B 1551   4.737   7.853   8.215 -0.0145  0.0376 -0.0439
   97loPI   C4B 1552   4.416   8.062   8.119 -0.0572  0.2964 -0.0920
   98loPI    C1 1553   1.259   9.211   9.958  0.1542  0.5108  0.2137
   98loPI    C2 1554   1.497   9.053  10.238 -0.2406 -0.0084  0.2719
   98loPI    C3 1555   1.112   9.122  10.319 -0.3165  0.0101 -0.0853
   98loPI   PO4 1556   1.232   9.090   9.696  0.0728  0.1288  0.0015
   98loPI   GL1 1557   0.957   9.096   9.329 -0.0403  0.2494  0.1034
   98loPI   GL2 1558   0.849   8.848   9.440 -0.1404  0.1762  0.2173
   98loPI   C1A 1559   0.953   8.986   8.925 -0.0707 -0.2394  0.1945
   98loPI   C2A 1560   1.017   9.002   8.466  0.1707 -0.0511  0.3252
   98loPI   C3A 1561   0.816   8.984   8.115 -0.1508 -0.4440  0.1580
   98loPI   C4A 1562   0.799   9.211   7.809 -0.2775  0.3396 -0.0160
   98loPI   C5A 1563   0.807   9.279   7.416  0.3513  0.0113  0.1367
   98loPI   C6A 1564   0.768   9.467   7.058 -0.2046 -0.2908 -0.4093
   98loPI   C1B 1565   0.634   8.675   9.092 -0.2324 -0.2501  0.1271
   98loPI   C2B 1566   0.635   8.708   8.668 -0.0116  0.0805  0.2289
   98loPI   C3B 1567   0.422   8.818   8.311  0.1378  0.0035 -0.4350
   98loPI   C4B 1568   0.501   8.567   7.944 -0.3316 -0.3378  0.0117
   99loPI    C1 1569   7.497  16.374  10.564 -0.0632 -0.1860  0.3264
   99loPI    C2 1570   7.144  16.408  10.749 -0.1380  0.2000  0.1215
   99loPI    C3 1571   7.479  16.529  10.932 -0.1452  0.0871  0.2098
   99loPI   PO4 1572   7.472  16.162  10.438 -0.3186 -0.2359  0.1505
   99loPI   GL1 1573   7.427  16.110  10.006 -0.0877 -0.0747 -0.0132
   99loPI   GL2 1574   7.079  16.018   9.908  0.0420  0.0490 -0.0066
   99loPI   C1A 1575   7.556  16.221   9.603  0.1370 -0.0750  0.1263
   99loPI   C2A 1576   7.563  16.376   9.239 -0.0961 -0.2385  0.1233
   99loPI   C3A 1577   7.632  16.377   8.767 -0.2520 -0.0138  0.1479
   99loPI   C4A 1578   7.607  16.401   8.370  0.2653 -0.0650 -0.1032
   99loPI   C5A 1579   7.565  16.459   7.891 -0.3595  0.1484 -0.0964
   99loPI   C6A 1580   7.854  16.409   7.559 -0.4845  0.1381  0.1019
   99loPI   C1B 1581   7.019  16.311   9.549 -0.0063  0.2960 -0.3191
   99loPI   C2B 1582   7.063  16.338   9.034  0.0290 -0.4225  0.1451
   99loPI   C3B 1583   7.162  16.235   8.575 -0.0675 -0.0192  0.0689
   99loPI   C4B 1584   7.133  16.312   8.136 -0.0198  0.4185  0.1824
  100loPI    C1 1585  17.816  12.907  10.378  0.1128 -0.0276 -0.0362
  100loPI    C2 1586  17.691  12.681  10.072 -0.1515  0.1301 -0.0476
  100loPI    C3 1587  17.446  12.754  10.380 -0.0609  0.3787 -0.0315
  100loPI   PO4 1588  17.904  13.175  10.215 -0.0157  0.0324  0.0639
  100loPI   GL1 1589  18.119  13.339  10.018 -0.1276 -0.3578  0.1182
  100loPI   GL2 1590  18.322  13.701  10.166  0.0808 -0.0007 -0.0240
  100loPI   C1A 1591  18.251  13.451   9.692 -0.3869  0.2326 -0.3834
  100loPI   C2A 1592  18.202  13.272   9.240  0.1612  0.1235 -0.4740
  100loPI   C3A 1593  18.346  13.274   8.960 -0.0014 -0.1225  0.0858
  100loPI   C4A 1594  18.587  13.335   8.523  0.2842 -0.0754  0.1812
  100loPI   C5A 1595  18.780  13.333   8.101  0.2686  0.0905  0.3413
  100loPI   C6A 1596  19.196  13.105   7.986 -0.0001 -0.1039  0.1309
  100loPI   C1B 1597  18.088  14.035  10.099  0.0021 -0.0242 -0.3152
  100loPI   C2B 1598  18.030  14.329   9.825 -0.2446 -0.0925  0.0968
  100loPI   C3B 1599  17.916  14.686   9.556 -0.1811  0.0561  0.1628
  100loPI   C4B 1600  17.957  14.763   9.073  0.2789 -0.0031  0.2842
  101loPI    C1 1601   5.638   5.093  10.333 -0.1066  0.1174 -0.0252
  101loPI    C2 1602   5.354   5.337  10.191 -0.3593 -0.0112  0.2493
  101loPI    C3 1603   5.342   5.215  10.572  0.0810  0.0001  0.2722
  101loPI   PO4 1604   5.701   4.932  10.088 -0.1514 -0.2782  0.0163
  101loPI   GL1 1605   6.066   4.772   9.812  0.1357 -0.1597  0.2112
  101loPI   GL2 1606   6.147   4.994   9.816 -0.1853 -0.1298 -0.1235
  101loPI   C1A 1607   5.835   4.823   9.402  0.0037 -0.0098  0.0230
  101loPI   C2A 1608   5.480   4.894   9.178 -0.1312 -0.3821 -0.4106
  101loPI   C3A 1609   5.459   5.031   8.730  0.1008 -0.2561  0.2894
  101loPI   C4A 1610   5.441   5.259   8.360 -0.0166  0.3330  0.0067
  101loPI   C5A 1611   5.348   5.445   7.947  0.1164 -0.1475 -0.1517
  101loPI   C6A 1612   5.504   5.804   7.719  0.0472 -0.0467  0.3248
  101loPI   C1B 1613   5.939   5.353   9.515 -0.1362 -0.2727  0.1098
  101loPI   C2B 1614   5.790   5.218   9.054 -0.0811 -0.2689 -0.1903
  101loPI   C3B 1615   5.868   5.294   8.694 -0.2703  0.1503 -0.1472
  101loPI   C4B 1616   6.138   5.316   8.329 -0.1208  0.2701  0.1281
  102loPI    C1 1617  15.060  10.004  10.360  0.2595 -0.2767  0.0202
  102loPI    C2 1618  15.296   9.871  10.654  0.0396  0.0804  0.3679
  102loPI    C3 1619  14.899   9.869  10.700  0.0066  0.2300  0.1118
  102loPI   PO4 1620  15.177   9.833  10.079 -0.0483 -0.4119 -0.0059
  102loPI   GL1 1621  15.416   9.859   9.704 -0.0880 -0.1653  0.0583
  102loPI   GL2 1622  15.694   9.872   9.639 -0.0234  0.0218 -0.1813
  102loPI   C1A 1623  15.179   9.829   9.385  0.3548 -0.1100  0.1775
  102loPI   C2A 1624  15.175   9.820   8.899 -0.0482 -0.0979  0.1134
  102loPI   C3A 1625  15.292  10.033   8.443  0.3236  0.0323 -0.2169
  102loPI   C4A 1626  15.248  10.328   8.050  0.0398 -0.0397  0.3130
  102loPI   C5A 1627  14.923  10.522   7.881 -0.7201  0.2470 -0.0843
  102loPI   C6A 1628  14.586  10.594   8.039 -0.1056 -0.0973 -0.3362
  102loPI   C1B 1629  15.675   9.718   9.233 -0.2261  0.0312 -0.0532
  102loPI   C2B 1630  15.663   9.625   8.806 -0.2801 -0.0423  0.0814
  102loPI   C3B 1631  15.712   9.784   8.455  0.0912 -0.4357  0.3306
  102loPI   C4B 1632  15.629   9.979   8.097  0.3140  0.0465 -0.2141
  103loPI    C1 1633   3.416  10.289  10.583 -0.0685 -0.1095 -0.0394
  103loPI    C2 1634   3.582  10.405  10.928 -0.0455 -0.2058 -0.0178
  103loPI    C3 1635   3.257  10.171  10.931  0.0068 -0.2797 -0.0615
  103loPI   PO4 1636   3.624  10.457  10.377 -0.2180  0.1853 -0.1441
  103loPI   GL1 1637   3.689  10.456   9.969  0.1061 -0.1203 -0.1324
  103loPI   GL2 1638   3.725  10.117   9.924 -0.1240 -0.1052 -0.1154
  103loPI   C1A 1639   3.676  10.539   9.560  0.0985 -0.1071 -0.0532
  103loPI   C2A 1640   3.737  10.619   9.068  0.0752  0.0181 -0.2185
  103loPI   C3A 1641   3.845  10.517   8.764  0.2523  0.0681  0.3302
  103loPI   C4A 1642   3.896  10.751   8.407 -0.2148 -0.1156  0.1391
  103loPI   C5A 1643   3.936  11.185   8.326 -0.2395 -0.1287  0.0902
  103loPI   C6A 1644   3.829  11.638   8.283 -0.2707 -0.2378 -0.1868
  103loPI   C1B 1645   3.623   9.996   9.480  0.0584 -0.2705 -0.0513
  103loPI   C2B 1646   3.654  10.079   9.135 -0.0226  0.2305  0.1002
  103loPI   C3B 1647   3.711  10.038   8.667 -0.2151 -0.0669  0.0950
  103loPI   C4B 1648   3.948   9.876   8.222 -0.3103 -0.0653 -0.0210
  104loPI    C1 1649   5.211   6.695  10.009 -0.2233  0.0509 -0.0398
  104loPI    C2 1650   5.320   7.032  10.195 -0.2697  0.0718 -0.0504
  104loPI    C3 1651   5.185   6.722  10.407 -0.0678 -0.0005 -0.0251
  104loPI   PO4 1652   5.373   6.700   9.763 -0.0375  0.1874  0.0090
  104loPI   GL1 1653   5.282   6.924   9.286  0.4060  0.2841 -0.0103
  104loPI   GL2 1654   5.117   6.710   9.185 -0.1098 -0.0011 -0.0791
  104loPI   C1A 1655   5.274   7.027   8.858  0.0851 -0.1606  0.0512
  104loPI   C2A 1656   5.162   7.102   8.369  0.1677  0.0293  0.0280
  104loPI   C3A 1657   5.053   7.327   7.982  0.2409 -0.0426 -0.0846
  104loPI   C4A 1658   5.025   7.281   7.544  0.0253  0.1352 -0.2423
  104loPI   C5A 1659   5.337   7.430   7.290 -0.4289  0.2474  0.1345
  104loPI   C6A 1660   5.460   7.781   7.089  0.0413  0.0915  0.2106
  104loPI   C1B 1661   5.089   6.601   8.814 -0.2390 -0.1938  0.1418
  104loPI   C2B 1662   5.233   6.614   8.424 -0.0933  0.1104  0.1791
  104loPI   C3B 1663   5.111   6.812   7.994 -0.0448 -0.0638 -0.3145
  104loPI   C4B 1664   4.925   6.666   7.636 -0.1378  0.1698 -0.1697
  105loPI    C1 1665  15.540   0.395  10.820 -0.3673 -0.1494 -0.1498
  105loPI    C2 1666  15.352   0.107  11.026  0.0010 -0.2350  0.0748
  105loPI    C3 1667  15.465   0.444  11.210 -0.0120 -0.1456 -0.0793
  105loPI   PO4 1668  15.361   0.466  10.647 -0.3399  0.1087 -0.0322
  105loPI   GL1 1669  15.140   0.372  10.288 -0.1850  0.1858 -0.2577
  105loPI   GL2 1670  15.014   0.664  10.105  0.0246  0.0945  0.2018
  105loPI   C1A 1671  15.211   0.141   9.905  0.1099 -0.1551  0.0609
  105loPI   C2A 1672  15.196   0.098   9.357  0.0524  0.2885  0.0818
  105loPI   C3A 1673  15.238  -0.038   8.898 -0.1680 -0.1114 -0.2674
  105loPI   C4A 1674  15.113   0.159   8.540  0.2652 -0.1191  0.3454
  105loPI   C5A 1675  15.280   0.510   8.372  0.0823  0.1730  0.3096
  105loPI   C6A 1676  15.274   0.830   8.217 -0.1356  0.2945 -0.1699
  105loPI   C1B 1677  14.798   0.801   9.785  0.1907 -0.1026  0.3097
  105loPI   C2B 1678  14.672   0.897   9.402 -0.1620  0.2110 -0.0858
  105loPI   C3B 1679  14.736   0.937   8.916  0.1666 -0.0709 -0.1052
  105loPI   C4B 1680  15.010   0.893   8.609 -0.0313 -0.0437  0.1773
  106loPI    C1 1681   9.926  14.841  10.585 -0.3066 -0.0570  0.2982
  106loPI    C2 1682   9.827  14.454  10.557  0.0006 -0.1143 -0.0768
  106loPI    C3 1683   9.706  14.713  10.277 -0.0814  0.0361  0.0957
  106loPI   PO4 1684  10.244  14.849  10.736  0.0147  0.3424 -0.2305
  106loPI   GL1 1685  10.408  15.022  10.365 -0.0554  0.1050  0.1689
  106loPI   GL2 1686  10.231  14.773  10.191  0.0230 -0.0082 -0.1540
  106loPI   C1A 1687  10.291  15.223   9.903  0.0012  0.2787 -0.3123
  106loPI   C2A 1688  10.263  15.154   9.444  0.0747 -0.2524  0.2305
  106loPI   C3A 1689  10.157  15.300   9.120  0.0639  0.2703 -0.0106
  106loPI   C4A 1690  10.158  15.153   8.741  0.0324 -0.1305  0.0451
  106loPI   C5A 1691  10.028  15.108   8.325 -0.0536  0.0117  0.1824
  106loPI   C6A 1692   9.738  14.913   8.119 -0.2641 -0.1896 -0.0606
  106loPI   C1B 1693  10.386  14.776   9.723  0.1917  0.0321  0.0268
  106loPI   C2B 1694  10.467  14.632   9.329 -0.0705 -0.1846 -0.1822
  106loPI   C3B 1695  10.637  14.453   8.923  0.1590 -0.5060  0.1411
  106loPI   C4B 1696  10.470  14.385   8.479 -0.2086 -0.0973  0.1105
  107loPI    C1 1697   9.932  17.378  10.627  0.1383 -0.0068  0.0429
  107loPI    C2 1698  10.198  17.099  10.733  0.1661 -0.0639 -0.1729
  107loPI    C3 1699   9.922  17.221  10.995  0.0640 -0.3975 -0.1201
  107loPI   PO4 1700  10.019  17.542  10.529 -0.0053  0.1534 -0.0864
  107loPI   GL1 1701  10.433  17.600  10.223 -0.1440  0.3932 -0.3948
  107loPI   GL2 1702  10.326  17.759  10.113  0.2196  0.1620 -0.2316
  107loPI   C1A 1703  10.493  17.277   9.818 -0.2315 -0.0855 -0.0815
  107loPI   C2A 1704  10.458  17.066   9.530  0.4458 -0.2875 -0.1209
  107loPI   C3A 1705  10.468  17.140   9.019 -0.0438 -0.1960 -0.2294
  107loPI   C4A 1706  10.427  17.158   8.577  0.3194  0.1633 -0.0327
  107loPI   C5A 1707  10.828  17.122   8.294  0.3440  0.3030 -0.3282
  107loPI   C6A 1708  11.016  17.422   8.113 -0.1624 -0.1205  0.1745
  107loPI   C1B 1709  10.488  17.857   9.687 -0.3114  0.2532  0.1597
  107loPI   C2B 1710  10.650  18.054   9.237 -0.2372  0.4588  0.1609
  107loPI   C3B 1711  10.714  18.049   8.794  0.0204 -0.2647  0.1507
  107loPI   C4B 1712  10.982  17.822   8.492  0.1171 -0.0200  0.0023
  108loPI    C1 1713  13.334  15.767  10.541 -0.0683 -0.0023 -0.0679
  108loPI    C2 1714  13.618  15.989  10.368 -0.2236  0.0431 -0.2689
  108loPI    C3 1715  13.644  15.590  10.360 -0.0555  0.0493 -0.0967
  108loPI   PO4 1716  13.115  15.951  10.456 -0.1062 -0.0543  0.1775
  108loPI   GL1 1717  12.792  15.769  10.218 -0.1454  0.1209  0.0805
  108loPI   GL2 1718  12.999  15.496  10.189 -0.0006 -0.1346  0.1713
  108loPI   C1A 1719  12.553  15.944   9.889 -0.2151 -0.0399  0.0269
  108loPI   C2A 1720  12.569  15.650   9.525 -0.1929  0.0331 -0.2941
  108loPI   C3A 1721  12.504  15.783   9.066 -0.1940  0.1159 -0.0123
  108loPI   C4A 1722  12.596  15.854   8.615  0.1419  0.0715  0.0773
  108loPI   C5A 1723  12.836  15.949   8.281  0.1593  0.2618 -0.1944
  108loPI   C6A 1724  12.890  16.307   8.136 -0.3111 -0.1530 -0.5542
  108loPI   C1B 1725  12.931  15.352   9.748  0.0382 -0.1312 -0.0291
  108loPI   C2B 1726  13.004  15.379   9.329 -0.0394 -0.1887 -0.1373
  108loPI   C3B 1727  12.732  15.254   8.931 -0.1435 -0.1045 -0.1556
  108loPI   C4B 1728  12.406  15.404   8.664  0.1520  0.0826  0.1845
  109loPI    C1 1729  10.734   9.918  10.171  0.1102 -0.1915 -0.0688
  109loPI    C2 1730  11.113   9.845  10.274  0.1044  0.0428  0.1262
  109loPI    C3 1731  10.815   9.742  10.521  0.0253 -0.3224 -0.1140
  109loPI   PO4 1732  10.679   9.889   9.869 -0.0975  0.0883  0.2195
  109loPI   GL1 1733  10.817  10.014   9.476  0.3110 -0.0380  0.2316
  109loPI   GL2 1734  10.824  10.264   9.546 -0.0167 -0.0158 -0.4116
  109loPI   C1A 1735  10.627   9.742   9.139 -0.1874 -0.1100 -0.3510
  109loPI   C2A 1736  10.675   9.708   8.753  0.0165 -0.3557 -0.0604
  109loPI   C3A 1737  10.709   9.665   8.346 -0.2278 -0.0213  0.0208
  109loPI   C4A 1738  11.036   9.822   8.168  0.0986  0.0496  0.0651
  109loPI   C5A 1739  11.527   9.835   8.071 -0.0866 -0.0053  0.2433
  109loPI   C6A 1740  11.803   9.935   8.422  0.2383 -0.0134  0.1126
  109loPI   C1B 1741  10.913  10.523   9.243  0.1379  0.1606  0.2168
  109loPI   C2B 1742  11.012  10.443   8.763 -0.0508  0.0627  0.1539
  109loPI   C3B 1743  10.981  10.367   8.380  0.0251 -0.1431 -0.0892
  109loPI   C4B 1744  10.901  10.358   7.926 -0.1223 -0.0157 -0.0252
  110loPI    C1 1745  16.700   5.499  10.265 -0.1495  0.4946  0.1372
  110loPI    C2 1746  16.614   5.585  10.646 -0.2835  0.1103  0.1979
  110loPI    C3 1747  16.865   5.285  10.560 -0.0473  0.3633 -0.0131
  110loPI   PO4 1748  16.415   5.446  10.172 -0.0538  0.1717 -0.1700
  110loPI   GL1 1749  16.132   5.603   9.869 -0.0271 -0.1002  0.2023
  110loPI   GL2 1750  16.593   5.481   9.704  0.1394  0.0069  0.1591
  110loPI   C1A 1751  16.070   5.404   9.479 -0.2927  0.3586  0.0436
  110loPI   C2A 1752  15.867   5.178   9.164  0.0345  0.1537  0.1002
  110loPI   C3A 1753  15.815   5.165   8.681 -0.2984  0.2425 -0.1679
  110loPI   C4A 1754  15.907   5.368   8.370 -0.1255 -0.2130  0.2445
  110loPI   C5A 1755  15.628   5.497   8.040 -0.0277  0.1184  0.0382
  110loPI   C6A 1756  15.157   5.503   7.941  0.1530 -0.0334 -0.3263
  110loPI   C1B 1757  16.559   5.450   9.251 -0.0309 -0.1217 -0.1068
  110loPI   C2B 1758  16.543   5.517   8.842  0.1125  0.1362 -0.1000
  110loPI   C3B 1759  16.637   5.819   8.637  0.3017 -0.1270  0.0628
  110loPI   C4B 1760  16.608   6.185   8.360 -0.2197 -0.2410  0.1449
  111loPI    C1 1761  14.221   9.100  10.991  0.0747  0.1570 -0.2138
  111loPI    C2 1762  14.539   9.280  11.153 -0.0274  0.2368 -0.1006
  111loPI    C3 1763  14.405   8.935  11.305 -0.2107  0.3850  0.0804
  111loPI   PO4 1764  14.236   9.166  10.723  0.0697 -0.1091 -0.3448
  111loPI   GL1 1765  14.094   9.374  10.409  0.0419 -0.2588  0.3278
  111loPI   GL2 1766  14.381   9.335  10.274 -0.0261 -0.1587 -0.0246
  111loPI   C1A 1767  13.933   9.200  10.017  0.0182 -0.0569  0.0544
  111loPI   C2A 1768  14.015   8.848   9.700  0.0856 -0.1320  0.0570
  111loPI   C3A 1769  14.381   8.905   9.307  0.3184  0.1018  0.1364
  111loPI   C4A 1770  14.334   8.871   8.813 -0.1345 -0.1467  0.1366
  111loPI   C5A 1771  14.448   8.742   8.383  0.0489 -0.3144  0.0536
  111loPI   C6A 1772  14.496   8.772   7.985  0.0632 -0.2747 -0.3446
  111loPI   C1B 1773  14.200   9.622   9.960 -0.0744 -0.2668 -0.0495
  111loPI   C2B 1774  14.182   9.914   9.690  0.0806  0.0795  0.1665
  111loPI   C3B 1775  14.194  10.220   9.304 -0.0227  0.2539 -0.1527
  111loPI   C4B 1776  14.570  10.442   9.104 -0.4384 -0.1011  0.0072
  112loPI    C1 1777   4.402  15.193  10.375 -0.1091 -0.1577 -0.0248
  112loPI    C2 1778   4.391  15.462  10.671 -0.2942 -0.2093  0.0164
  112loPI    C3 1779   4.537  15.097  10.739  0.2954 -0.0123 -0.1308
  112loPI   PO4 1780   4.134  15.266  10.202  0.1364 -0.2593 -0.3519
  112loPI   GL1 1781   4.073  15.498   9.786  0.0204  0.2725  0.3078
  112loPI   GL2 1782   4.191  15.829   9.759 -0.3421  0.3275 -0.2059
  112loPI   C1A 1783   3.974  15.333   9.398 -0.1172 -0.0787 -0.0035
  112loPI   C2A 1784   4.120  15.430   8.997  0.4947  0.2968 -0.2329
  112loPI   C3A 1785   4.272  15.400   8.584 -0.2634  0.3338 -0.0766
  112loPI   C4A 1786   4.398  15.086   8.279  0.0352 -0.1467 -0.2559
  112loPI   C5A 1787   4.660  14.840   7.982 -0.1951 -0.2265  0.2119
  112loPI   C6A 1788   5.007  14.855   7.754  0.1224 -0.0077  0.0158
  112loPI   C1B 1789   4.403  15.625   9.416 -0.1077  0.2140 -0.1283
  112loPI   C2B 1790   4.637  15.432   9.080  0.0508  0.1925 -0.1033
  112loPI   C3B 1791   4.843  15.355   8.672  0.1228  0.0115 -0.0031
  112loPI   C4B 1792   4.947  15.170   8.208  0.3025  0.3509  0.1155
  113loPI    C1 1793   3.412   2.436  10.449 -0.1226 -0.2125 -0.1848
  113loPI    C2 1794   3.210   2.565  10.769  0.0466  0.0110 -0.1661
  113loPI    C3 1795   3.297   2.177  10.732 -0.1578 -0.0481 -0.0466
  113loPI   PO4 1796   3.315   2.646  10.286  0.0717  0.0386  0.0499
  113loPI   GL1 1797   3.123   2.834   9.899 -0.0150  0.1275  0.1062
  113loPI   GL2 1798   2.974   2.567   9.879 -0.0624 -0.0274  0.2168
  113loPI   C1A 1799   3.142   2.904   9.392  0.2270  0.1398 -0.0911
  113loPI   C2A 1800   3.127   2.931   8.869 -0.0610 -0.0611  0.1482
  113loPI   C3A 1801   2.932   3.227   8.610  0.0095 -0.1819 -0.1662
  113loPI   C4A 1802   3.089   3.531   8.343 -0.2837  0.1357  0.1549
  113loPI   C5A 1803   3.409   3.732   8.084  0.1047 -0.0183 -0.1460
  113loPI   C6A 1804   3.846   3.804   8.025 -0.2650  0.0219  0.1600
  113loPI   C1B 1805   2.978   2.459   9.505  0.2502  0.0159 -0.3178
  113loPI   C2B 1806   3.001   2.472   9.063  0.0163  0.0989 -0.0667
  113loPI   C3B 1807   2.999   2.505   8.646  0.1473 -0.2162  0.1088
  113loPI   C4B 1808   3.179   2.491   8.282  0.0360 -0.2606 -0.3547
  114loPI    C1 1809  10.481   7.894  10.514 -0.0543  0.1246 -0.0048
  114loPI    C2 1810  10.278   7.572  10.638 -0.0286  0.1231  0.0336
  114loPI    C3 1811  10.555   7.738  10.875 -0.1818  0.2930  0.0962
  114loPI   PO4 1812  10.533   7.833  10.291  0.1099  0.1812 -0.1285
  114loPI   GL1 1813  10.760   7.853   9.892  0.1087 -0.0827 -0.0129
  114loPI   GL2 1814  10.633   7.523   9.777  0.1943 -0.0895 -0.2836
  114loPI   C1A 1815  10.859   7.913   9.465 -0.0585  0.3555  0.3932
  114loPI   C2A 1816  11.089   8.019   9.071  0.0769  0.2946 -0.3229
  114loPI   C3A 1817  11.252   7.868   8.778  0.2580 -0.0489 -0.0524
  114loPI   C4A 1818  11.357   7.794   8.350 -0.0925 -0.1233  0.0929
  114loPI   C5A 1819  11.456   7.614   7.960  0.1013  0.0460  0.1115
  114loPI   C6A 1820  11.782   7.472   7.754  0.3851  0.0468  0.2411
  114loPI   C1B 1821  10.442   7.638   9.405  0.1342  0.1022  0.3089
  114loPI   C2B 1822  10.575   7.743   9.022 -0.1118  0.3175 -0.1252
  114loPI   C3B 1823  10.495   7.912   8.643  0.2919 -0.0639  0.0801
  114loPI   C4B 1824  10.595   8.230   8.559  0.1436 -0.3612 -0.0126
  115loPI    C1 1825  14.131  14.686   9.958  0.0278 -0.2545 -0.0962
  115loPI    C2 1826  14.416  14.574  10.216 -0.0189 -0.1864 -0.0143
  115loPI    C3 1827  14.423  14.440   9.839  0.0384 -0.3025  0.0277
  115loPI   PO4 1828  13.930  14.649  10.115  0.3687 -0.3730  0.0187
  115loPI   GL1 1829  13.542  14.741   9.915  0.0845 -0.0402 -0.0588
  115loPI   GL2 1830  13.707  14.907   9.681  0.0498  0.2424 -0.1393
  115loPI   C1A 1831  13.569  14.472   9.466  0.0806  0.1300 -0.3547
  115loPI   C2A 1832  13.795  14.373   9.111 -0.1199 -0.0134  0.1236
  115loPI   C3A 1833  14.095  14.324   8.795 -0.1394  0.1117  0.2474
  115loPI   C4A 1834  14.206  14.539   8.426 -0.0251 -0.0282 -0.0013
  115loPI   C5A 1835  14.115  14.919   8.120 -0.0328 -0.0743 -0.1063
  115loPI   C6A 1836  14.192  15.245   7.855 -0.1527 -0.0065  0.1793
  115loPI   C1B 1837  14.036  14.754   9.487 -0.1256 -0.2484  0.0370
  115loPI   C2B 1838  14.266  14.886   9.051  0.0189  0.3032 -0.0407
  115loPI   C3B 1839  14.524  15.006   8.714  0.1737  0.0239  0.0909
  115loPI   C4B 1840  14.546  15.055   8.275 -0.2387 -0.2735 -0.1974
  116loPI    C1 1841  10.968   3.950  10.721 -0.1493 -0.0611 -0.0643
  116loPI    C2 1842  10.928   4.267  10.962  0.0822  0.0944 -0.2269
  116loPI    C3 1843  11.287   4.172  10.813  0.0266 -0.2832 -0.1304
  116loPI   PO4 1844  10.837   3.895  10.566  0.1107  0.0656 -0.2519
  116loPI   GL1 1845  10.807   4.060  10.106  0.3998 -0.0003 -0.1239
  116loPI   GL2 1846  10.927   4.271   9.850 -0.0804 -0.0160 -0.0050
  116loPI   C1A 1847  10.656   3.791   9.689  0.0567  0.5156  0.0135
  116loPI   C2A 1848  10.590   3.722   9.208 -0.0693  0.1596  0.2244
  116loPI   C3A 1849  10.741   3.696   8.808 -0.0197 -0.1873  0.1533
  116loPI   C4A 1850  10.806   3.551   8.320 -0.0451 -0.1422  0.2526
  116loPI   C5A 1851  11.115   3.388   8.078 -0.0428 -0.0444 -0.0466
  116loPI   C6A 1852  11.292   3.018   8.049  0.0343  0.0541  0.1932
  116loPI   C1B 1853  10.854   4.168   9.456 -0.1209 -0.1520 -0.0746
  116loPI   C2B 1854  11.049   4.027   9.092 -0.3127  0.2716  0.0806
  116loPI   C3B 1855  11.295   3.977   8.746  0.3211  0.2013 -0.1638
  116loPI   C4B 1856  11.238   3.810   8.390 -0.1096 -0.0145 -0.0620
  117loPI    C1 1857   9.789  14.026  10.279 -0.2129 -0.3796 -0.3036
  117loPI    C2 1858   9.614  13.757  10.517 -0.0744 -0.0921  0.1370
  117loPI    C3 1859  10.012  13.760  10.478 -0.0778  0.0268  0.1064
  117loPI   PO4 1860   9.506  14.203  10.255  0.1079 -0.0914 -0.0005
  117loPI   GL1 1861   9.283  14.283   9.901 -0.3357  0.0254 -0.3558
  117loPI   GL2 1862   9.180  14.098   9.670 -0.3638 -0.2659  0.2359
  117loPI   C1A 1863   9.537  14.413   9.564 -0.0898  0.0811 -0.2555
  117loPI   C2A 1864   9.586  14.537   9.174  0.0693 -0.1546  0.1420
  117loPI   C3A 1865   9.644  14.235   8.971 -0.2028  0.0983  0.1979
  117loPI   C4A 1866   9.575  14.166   8.555 -0.0962 -0.1212 -0.1990
  117loPI   C5A 1867   9.437  14.455   8.247 -0.0108  0.1628  0.0334
  117loPI   C6A 1868   9.410  14.673   7.807 -0.0081  0.2084 -0.0712
  117loPI   C1B 1869   9.202  14.107   9.215 -0.3072  0.0110  0.1766
  117loPI   C2B 1870   9.328  13.767   8.900 -0.0268 -0.0385 -0.1012
  117loPI   C3B 1871   9.624  13.611   8.574 -0.0936  0.0237  0.2023
  117loPI   C4B 1872   9.682  13.436   8.133  0.1577 -0.1154 -0.2307
  118loPI    C1 1873  17.527  17.536  11.033 -0.1680 -0.3090 -0.0423
  118loPI    C2 1874  17.873  17.422  11.199 -0.0457  0.0653 -0.0293
  118loPI    C3 1875  17.543  17.452  11.423 -0.0286 -0.0455  0.0113
  118loPI   PO4 1876  17.627  17.817  10.783  0.0026 -0.4111 -0.0421
  118loPI   GL1 1877  17.351  17.922  10.409 -0.0338  0.0514  0.1924
  118loPI   GL2 1878  17.112  17.684  10.271  0.0705  0.1074 -0.1265
  118loPI   C1A 1879  17.108  18.166  10.000  0.2739  0.1690 -0.0503
  118loPI   C2A 1880  17.154  18.311   9.586 -0.0836  0.0907  0.3039
  118loPI   C3A 1881  16.894  18.522   9.315 -0.1787 -0.1509  0.0838
  118loPI   C4A 1882  16.698  18.609   9.038 -0.2909  0.1643  0.1604
  118loPI   C5A 1883  16.694  18.602   8.588  0.0337 -0.1977  0.0874
  118loPI   C6A 1884  16.789  18.765   8.205  0.0007 -0.2474 -0.0682
  118loPI   C1B 1885  17.279  17.425   9.880  0.1200  0.0435  0.2138
  118loPI   C2B 1886  17.171  17.468   9.467  0.1661  0.0106  0.2803
  118loPI   C3B 1887  17.214  17.490   9.074  0.0965  0.2377  0.0287
  118loPI   C4B 1888  17.206  17.354   8.551  0.0632  0.1613  0.1256
  119loPI    C1 1889   3.418   0.980  10.276 -0.1232  0.0016 -0.1992
  119loPI    C2 1890   3.081   0.796  10.389 -0.0644  0.0468  0.0569
  119loPI    C3 1891   3.131   1.185  10.466  0.1265 -0.0036  0.1940
  119loPI   PO4 1892   3.477   0.750  10.049  0.0663  0.0555  0.0077
  119loPI   GL1 1893   3.140   0.657   9.661 -0.1605  0.0116  0.0395
  119loPI   GL2 1894   2.983   0.621   9.936  0.0342 -0.0654  0.0977
  119loPI   C1A 1895   3.067   0.579   9.228 -0.1236  0.2411  0.3388
  119loPI   C2A 1896   3.187   0.420   8.849 -0.1193 -0.0569  0.3292
  119loPI   C3A 1897   3.302   0.665   8.374 -0.1680  0.3442  0.0125
  119loPI   C4A 1898   3.490   0.798   7.922 -0.2414 -0.1805  0.0244
  119loPI   C5A 1899   3.696   1.096   7.651 -0.0945 -0.1428 -0.0049
  119loPI   C6A 1900   3.744   1.472   7.339 -0.0620 -0.1549 -0.0604
  119loPI   C1B 1901   2.987   0.202   9.613 -0.1237 -0.0444  0.1603
  119loPI   C2B 1902   2.865   0.105   9.157 -0.1292 -0.1724  0.1965
  119loPI   C3B 1903   2.782  -0.290   9.018 -0.3014  0.0524  0.0187
  119loPI   C4B 1904   2.717  -0.451   8.582 -0.1798 -0.1831 -0.0267
  120loPI    C1 1905   1.278   3.103  10.563 -0.1764  0.0643 -0.1206
  120loPI    C2 1906   1.079   3.450  10.561  0.1131  0.2394  0.2076
  120loPI    C3 1907   1.102   3.235  10.897 -0.0312 -0.0830  0.0162
  120loPI   PO4 1908   1.567   3.145  10.400  0.2939 -0.1255 -0.5575
  120loPI   GL1 1909   1.664   3.467  10.025  0.0436  0.1254 -0.2898
  120loPI   GL2 1910   1.343   3.622  10.145  0.0396 -0.3660  0.2818
  120loPI   C1A 1911   1.948   3.448   9.712  0.0541  0.2546  0.1556
  120loPI   C2A 1912   1.861   3.403   9.312 -0.2035  0.0001 -0.3630
  120loPI   C3A 1913   1.893   3.277   8.921  0.2450 -0.0092 -0.0831
  120loPI   C4A 1914   1.825   3.359   8.453  0.0252 -0.1292 -0.0528
  120loPI   C5A 1915   2.186   3.383   8.110  0.2381  0.2167 -0.1850
  120loPI   C6A 1916   2.457   3.526   7.746 -0.0896 -0.1752 -0.2652
  120loPI   C1B 1917   1.074   3.716   9.814 -0.0058  0.0905 -0.0294
  120loPI   C2B 1918   1.041   3.599   9.428 -0.0634 -0.3205 -0.4137
  120loPI   C3B 1919   0.961   3.542   9.051  0.0026 -0.0579  0.1390
  120loPI   C4B 1920   1.010   3.654   8.609  0.1658  0.1467 -0.3166
  121loPI    C1 1921   7.999  12.898  10.494  0.0748 -0.1963 -0.0665
  121loPI    C2 1922   8.192  13.046  10.812  0.0507 -0.2167 -0.0424
  121loPI    C3 1923   7.799  13.108  10.769  0.1218  0.1082 -0.2603
  121loPI   PO4 1924   8.128  13.054  10.247 -0.1335  0.0288  0.1997
  121loPI   GL1 1925   8.058  13.157   9.785 -0.0207  0.1274  0.2689
  121loPI   GL2 1926   8.380  12.958   9.745  0.1161 -0.1819  0.4282
  121loPI   C1A 1927   7.976  12.721   9.532 -0.1780  0.1944 -0.0118
  121loPI   C2A 1928   7.989  12.646   9.064  0.1825 -0.1903 -0.1368
  121loPI   C3A 1929   7.794  12.487   8.627  0.0586 -0.2973  0.0712
  121loPI   C4A 1930   7.642  12.475   8.290 -0.0770  0.1198  0.2992
  121loPI   C5A 1931   7.528  12.767   7.993  0.1371 -0.1842  0.1616
  121loPI   C6A 1932   7.829  13.126   7.857  0.1719  0.4050  0.1980
  121loPI   C1B 1933   8.303  13.122   9.352  0.0961  0.0698 -0.2064
  121loPI   C2B 1934   8.210  13.098   8.939 -0.3310  0.4427  0.3856
  121loPI   C3B 1935   8.309  12.770   8.712 -0.0874 -0.0904 -0.0719
  121loPI   C4B 1936   8.325  12.312   8.750  0.1193  0.2087  0.0716
  122loPI    C1 1937   1.392   7.345  10.530 -0.1366  0.1570 -0.0887
  122loPI    C2 1938   1.774   7.357  10.648 -0.1373  0.1090 -0.0816
  122loPI    C3 1939   1.509   7.613  10.804 -0.1750 -0.0683  0.1515
  122loPI   PO4 1940   1.418   7.370  10.242  0.3012  0.0565 -0.1086
  122loPI   GL1 1941   1.287   7.146   9.864  0.2549 -0.1528  0.0520
  122loPI   GL2 1942   1.620   7.249   9.827 -0.0824 -0.1041 -0.1152
  122loPI   C1A 1943   1.122   7.316   9.436  0.3322  0.3179  0.1501
  122loPI   C2A 1944   1.080   7.240   8.943  0.1931  0.1839 -0.0654
  122loPI   C3A 1945   0.929   7.131   8.598  0.2128 -0.0763 -0.4134
  122loPI   C4A 1946   0.850   7.323   8.215  0.0823 -0.4782 -0.1294
  122loPI   C5A 1947   1.000   7.696   8.061  0.2442  0.0224  0.0667
  122loPI   C6A 1948   1.312   8.016   8.214  0.0724 -0.1465 -0.1751
  122loPI   C1B 1949   1.585   7.544   9.497  0.1172 -0.1408  0.0182
  122loPI   C2B 1950   1.639   7.773   9.175  0.2129 -0.0821  0.1822
  122loPI   C3B 1951   1.506   7.978   8.779 -0.0722  0.0399  0.0168
  122loPI   C4B 1952   1.628   8.254   8.528  0.1153  0.1377  0.1305
  123loPI    C1 1953  12.309   2.648  11.044 -0.1576  0.0495 -0.1032
  123loPI    C2 1954  12.238   2.279  11.181  0.0332  0.0301 -0.0529
  123loPI    C3 1955  12.094   2.597  11.377 -0.0998 -0.0154 -0.0756
  123loPI   PO4 1956  12.245   2.745  10.751  0.1964 -0.0606  0.1146
  123loPI   GL1 1957  12.508   2.707  10.394  0.1001  0.3211  0.3824
  123loPI   GL2 1958  12.532   3.068  10.425  0.0840 -0.1670 -0.0689
  123loPI   C1A 1959  12.316   2.781  10.038  0.0085  0.0375  0.0442
  123loPI   C2A 1960  11.870   2.586   9.770 -0.3675  0.3478  0.0947
  123loPI   C3A 1961  11.829   2.291   9.446 -0.1451  0.0318  0.1875
  123loPI   C4A 1962  11.549   2.076   9.237  0.1192 -0.0453 -0.0504
  123loPI   C5A 1963  11.451   1.891   8.885  0.1885 -0.2587 -0.0868
  123loPI   C6A 1964  11.277   1.579   8.661 -0.0460 -0.0590  0.1152
  123loPI   C1B 1965  12.370   3.266  10.097 -0.1121 -0.1172 -0.0955
  123loPI   C2B 1966  12.405   3.364   9.633 -0.1702 -0.2528 -0.3030
  123loPI   C3B 1967  12.687   3.201   9.340  0.0787 -0.2545  0.1834
  123loPI   C4B 1968  12.547   3.112   8.928 -0.2705  0.0747 -0.2171
  124loPI    C1 1969  11.102  15.167  10.403 -0.1247 -0.0183 -0.1186
  124loPI    C2 1970  11.024  15.365  10.741  0.0293 -0.0253 -0.0783
  124loPI    C3 1971  11.207  15.010  10.756 -0.2203 -0.1588 -0.1519
  124loPI   PO4 1972  10.905  15.062  10.295 -0.1262 -0.0794 -0.1670
  124loPI   GL1 1973  10.740  15.010   9.895  0.0288 -0.0471 -0.2109
  124loPI   GL2 1974  10.895  14.758   9.725 -0.2760 -0.1734 -0.1141
  124loPI   C1A 1975  10.738  15.139   9.440 -0.1234 -0.1325  0.0722
  124loPI   C2A 1976  10.556  15.048   9.062 -0.0377  0.1232 -0.2482
  124loPI   C3A 1977  10.619  14.922   8.630 -0.3279  0.0180 -0.1602
  124loPI   C4A 1978  10.817  14.670   8.292 -0.0135  0.0943  0.3090
  124loPI   C5A 1979  10.704  14.365   7.982  0.1820  0.0794 -0.0364
  124loPI   C6A 1980  10.552  14.135   7.627 -0.2883  0.1117  0.1172
  124loPI   C1B 1981  10.936  14.726   9.276  0.1251  0.3287 -0.1872
  124loPI   C2B 1982  11.062  14.761   8.846  0.0923 -0.0564  0.0066
  124loPI   C3B 1983  11.261  14.802   8.559  0.1334  0.1636 -0.2292
  124loPI   C4B 1984  11.522  14.541   8.403 -0.0405  0.0079  0.2459
  125loPI    C1 1985  13.549  11.036  10.978 -0.0809 -0.0193 -0.0031
  125loPI    C2 1986  13.321  10.971  11.300 -0.0295 -0.0669  0.0241
  125loPI    C3 1987  13.650  11.197  11.330 -0.0529 -0.0284 -0.0068
  125loPI   PO4 1988  13.257  11.027  10.783 -0.0259 -0.2888 -0.1472
  125loPI   GL1 1989  13.212  10.997  10.370 -0.0132  0.0793 -0.0650
  125loPI   GL2 1990  12.984  11.207  10.213  0.1593 -0.2092  0.1350
  125loPI   C1A 1991  13.180  10.661   9.922 -0.3891 -0.0841 -0.1664
  125loPI   C2A 1992  13.175  10.596   9.440 -0.0975  0.0851  0.0630
  125loPI   C3A 1993  13.144  10.443   8.994  0.1965  0.1485  0.2439
  125loPI   C4A 1994  13.497  10.478   8.792  0.2256 -0.0816 -0.1561
  125loPI   C5A 1995  13.483  10.451   8.341 -0.0690  0.3374 -0.1022
  125loPI   C6A 1996  13.700  10.512   8.001  0.1759 -0.1055 -0.2316
  125loPI   C1B 1997  12.957  11.068   9.823 -0.0217  0.3260  0.1549
  125loPI   C2B 1998  12.950  11.068   9.360 -0.2360  0.3033 -0.0873
  125loPI   C3B 1999  13.027  10.936   8.870 -0.0551  0.2271  0.1057
  125loPI   C4B 2000  13.250  10.831   8.507  0.2900 -0.0106  0.1156
  126loPI    C1 2001   8.998   1.931  10.685  0.1342  0.1027  0.1078
  126loPI    C2 2002   8.701   2.197  10.722  0.2778  0.3143 -0.2138
  126loPI    C3 2003   8.706   1.869  10.951 -0.0427  0.4557  0.0025
  126loPI   PO4 2004   9.119   2.014  10.377  0.0624 -0.1618  0.2625
  126loPI   GL1 2005   9.170   1.785  10.041 -0.1518  0.0804  0.0355
  126loPI   GL2 2006   8.874   1.840   9.852  0.0854 -0.1088 -0.4347
  126loPI   C1A 2007   9.441   1.805   9.637 -0.0087  0.1317 -0.3190
  126loPI   C2A 2008   9.390   1.732   9.239  0.1021 -0.1482 -0.2235
  126loPI   C3A 2009   9.516   1.770   8.799  0.2350 -0.1939  0.1436
  126loPI   C4A 2010   9.699   1.485   8.495 -0.2418 -0.1148  0.3242
  126loPI   C5A 2011   9.883   1.322   8.127  0.1281 -0.0722  0.3314
  126loPI   C6A 2012   9.946   1.565   7.737  0.1284 -0.2465  0.0731
  126loPI   C1B 2013   8.941   1.870   9.429 -0.1369  0.0863 -0.1251
  126loPI   C2B 2014   8.847   1.883   8.972 -0.4264 -0.0994  0.2153
  126loPI   C3B 2015   8.835   1.987   8.567 -0.2669 -0.1148  0.2681
  126loPI   C4B 2016   9.318   1.992   8.419 -0.0782 -0.0672  0.2449
  127loPI    C1 2017   2.262   9.866  10.158  0.2245  0.2793 -0.1628
  127loPI    C2 2018   2.512   9.901  10.468  0.1027  0.1941 -0.0537
  127loPI    C3 2019   2.134  10.029  10.501  0.0523  0.0641 -0.1224
  127loPI   PO4 2020   2.264   9.571  10.014 -0.0551 -0.1967  0.1727
  127loPI   GL1 2021   2.483   9.240   9.724 -0.2499 -0.3316  0.1989
  127loPI   GL2 2022   2.422   9.500   9.505  0.0241  0.3299 -0.0566
  127loPI   C1A 2023   2.978   9.370   9.574 -0.4744 -0.0069  0.1725
  127loPI   C2A 2024   2.997   9.418   9.067 -0.2040 -0.2649 -0.1005
  127loPI   C3A 2025   2.890   9.628   8.737 -0.1245  0.1593 -0.0512
  127loPI   C4A 2026   2.680   9.851   8.467  0.2269 -0.2124  0.2768
  127loPI   C5A 2027   2.905   9.890   8.050  0.1992  0.1991 -0.1625
  127loPI   C6A 2028   3.188   9.844   7.657 -0.1307 -0.3932 -0.0872
  127loPI   C1B 2029   2.712   9.725   9.324 -0.0756 -0.1752  0.2057
  127loPI   C2B 2030   2.684   9.973   8.998 -0.0294  0.0169 -0.1005
  127loPI   C3B 2031   2.649  10.314   8.592  0.1204 -0.0951 -0.1694
  127loPI   C4B 2032   2.431  10.678   8.632  0.0224 -0.1407 -0.1057
  128loPI    C1 2033   4.662  14.657  10.433  0.2291 -0.0965 -0.1402
  128loPI    C2 2034   4.849  14.709  10.783 -0.0168  0.2367 -0.0533
  128loPI    C3 2035   4.780  14.339  10.646  0.0670  0.1024  0.2565
  128loPI   PO4 2036   4.793  14.936  10.342  0.0837 -0.0625  0.1594
  128loPI   GL1 2037   4.885  14.845   9.893  0.0186 -0.1546  0.1110
  128loPI   GL2 2038   5.178  14.571   9.880  0.0497 -0.2250 -0.2287
  128loPI   C1A 2039   4.696  14.758   9.499  0.4762  0.1555 -0.0157
  128loPI   C2A 2040   4.787  14.644   9.124  0.1607  0.0102  0.0549
  128loPI   C3A 2041   5.035  14.499   8.776  0.1137  0.2119 -0.3996
  128loPI   C4A 2042   5.250  14.346   8.587 -0.2539  0.3590 -0.0281
  128loPI   C5A 2043   5.390  13.901   8.478  0.1622  0.0981 -0.1025
  128loPI   C6A 2044   5.567  13.646   8.162  0.1393  0.0540  0.0288
  128loPI   C1B 2045   5.211  14.624   9.462 -0.1198 -0.0315 -0.1109
  128loPI   C2B 2046   5.318  14.377   9.196  0.2632 -0.2307  0.1162
  128loPI   C3B 2047   5.503  14.188   8.988  0.2095  0.1991  0.2135
  128loPI   C4B 2048   5.896  14.184   8.719 -0.0798 -0.0557 -0.1283
  129loPI    C1 2049   3.060  17.719  10.718 -0.0477 -0.1087  0.2279
  129loPI    C2 2050   3.185  18.097  10.752  0.0700 -0.1076 -0.1641
  129loPI    C3 2051   3.290  17.826  11.027  0.1845  0.0911 -0.0089
  129loPI   PO4 2052   3.090  17.655  10.545 -0.3356 -0.1688  0.1525
  129loPI   GL1 2053   3.001  17.364  10.066  0.1387  0.1057 -0.0662
  129loPI   GL2 2054   3.047  17.737  10.031  0.2002 -0.1981 -0.1473
  129loPI   C1A 2055   3.054  17.185   9.639  0.0075 -0.0764 -0.2261
  129loPI   C2A 2056   3.071  17.292   9.204 -0.0647 -0.1059 -0.2000
  129loPI   C3A 2057   2.838  17.299   8.889 -0.2955 -0.3326 -0.0182
  129loPI   C4A 2058   2.679  17.222   8.458  0.1746  0.0487  0.2032
  129loPI   C5A 2059   2.782  16.902   8.287 -0.2238 -0.2759  0.0156
  129loPI   C6A 2060   2.677  16.411   8.343  0.1440  0.0770 -0.1627
  129loPI   C1B 2061   3.345  17.622   9.737 -0.0163  0.0989  0.1979
  129loPI   C2B 2062   3.515  17.448   9.345 -0.0650 -0.0658  0.0458
  129loPI   C3B 2063   3.565  17.481   8.959  0.1405 -0.2540 -0.0746
  129loPI   C4B 2064   3.503  17.409   8.538 -0.1707  0.0420 -0.2771
  130loPI    C1 2065   4.354   8.705  10.566 -0.0807  0.1624  0.0250
  130loPI    C2 2066   4.068   8.547  10.796 -0.0030  0.0353  0.0357
  130loPI    C3 2067   4.325   8.813  10.950  0.0629 -0.0664  0.1022
  130loPI   PO4 2068   4.138   8.690  10.303 -0.2924  0.0828  0.2378
  130loPI   GL1 2069   4.107   8.775   9.877 -0.2584  0.1220 -0.2500
  130loPI   GL2 2070   4.089   8.533   9.663 -0.1495 -0.1463 -0.0452
  130loPI   C1A 2071   3.797   9.059   9.543 -0.0016 -0.0259 -0.0929
  130loPI   C2A 2072   3.814   9.170   9.077  0.1117  0.1772  0.1098
  130loPI   C3A 2073   3.766   9.271   8.618 -0.0377 -0.0314 -0.0510
  130loPI   C4A 2074   3.672   9.292   8.185 -0.2901  0.0102 -0.0867
  130loPI   C5A 2075   3.479   9.422   7.872 -0.1515 -0.2637 -0.1247
  130loPI   C6A 2076   3.561   9.642   7.434  0.0511 -0.0497 -0.2571
  130loPI   C1B 2077   4.050   8.718   9.275 -0.1999  0.0013 -0.1866
  130loPI   C2B 2078   4.188   8.657   8.793 -0.0138 -0.0571  0.5100
  130loPI   C3B 2079   4.307   8.566   8.359 -0.0464 -0.2416  0.4873
  130loPI   C4B 2080   4.334   8.570   7.865  0.0425  0.3970  0.2889
  131loPI    C1 2081  16.095   4.937  10.733 -0.0830 -0.3350 -0.1422
  131loPI    C2 2082  16.203   5.304  10.617 -0.0703 -0.3185 -0.0788
  131loPI    C3 2083  16.034   5.249  10.975 -0.0534 -0.3773 -0.0798
  131loPI   PO4 2084  16.024   4.845  10.528 -0.0399 -0.2233  0.1332
  131loPI   GL1 2085  16.201   4.987  10.097  0.1388  0.0975  0.0282
  131loPI   GL2 2086  16.009   5.163   9.938 -0.2730 -0.2113 -0.4054
  131loPI   C1A 2087  16.380   4.833   9.784 -0.2948  0.0609  0.2931
  131loPI   C2A 2088  16.330   4.986   9.409 -0.0365  0.2829 -0.0974
  131loPI   C3A 2089  16.303   5.073   8.983 -0.3933  0.1190  0.2184
  131loPI   C4A 2090  16.322   5.118   8.524  0.0527 -0.0809  0.0659
  131loPI   C5A 2091  16.629   4.889   8.218 -0.0574  0.1961  0.3864
  131loPI   C6A 2092  16.816   4.555   7.969  0.0172 -0.4074 -0.2411
  131loPI   C1B 2093  15.863   4.975   9.661 -0.0088 -0.2349  0.3507
  131loPI   C2B 2094  15.440   5.023   9.425 -0.1922 -0.2092  0.0105
  131loPI   C3B 2095  15.369   5.092   8.986 -0.0899 -0.1507 -0.0423
  131loPI   C4B 2096  15.279   4.991   8.632 -0.1142  0.0168 -0.0138
  132loPI    C1 2097   6.101   3.159  10.014  0.0367  0.1002 -0.1232
  132loPI    C2 2098   5.926   3.047  10.355  0.0435  0.1141 -0.1151
  132loPI    C3 2099   6.248   3.283  10.364  0.2072 -0.1059 -0.1197
  132loPI   PO4 2100   6.213   2.941   9.861  0.1968 -0.1043 -0.1416
  132loPI   GL1 2101   6.447   2.874   9.533  0.0743 -0.2186 -0.0426
  132loPI   GL2 2102   6.194   2.816   9.326 -0.0174 -0.4112  0.0800
  132loPI   C1A 2103   6.651   3.001   9.162  0.2015  0.2121 -0.0078
  132loPI   C2A 2104   6.831   2.776   8.749  0.2056 -0.0178  0.0486
  132loPI   C3A 2105   7.061   2.642   8.476 -0.2915  0.0436 -0.2459
  132loPI   C4A 2106   7.360   2.653   8.254 -0.0917 -0.1081 -0.1219
  132loPI   C5A 2107   7.401   2.996   8.056 -0.1690  0.2583 -0.0666
  132loPI   C6A 2108   7.304   3.293   7.684 -0.2870  0.0580 -0.0951
  132loPI   C1B 2109   5.988   2.811   8.923  0.0871  0.3075  0.0973
  132loPI   C2B 2110   5.861   2.827   8.526  0.0250 -0.1941 -0.1667
  132loPI   C3B 2111   5.801   3.063   8.166  0.2593  0.1741  0.0028
  132loPI   C4B 2112   5.919   3.103   7.763 -0.2910  0.3064 -0.4475
  133loPI    C1 2113  12.634   3.715  10.864  0.1142  0.0043  0.1896
  133loPI    C2 2114  12.761   3.419  10.626 -0.0698 -0.0030  0.0990
  133loPI    C3 2115  12.410   3.388  10.814 -0.0023  0.0761  0.2399
  133loPI   PO4 2116  12.764   3.918  10.667 -0.0748 -0.1287  0.2830
  133loPI   GL1 2117  12.844   3.902  10.182  0.1540  0.2333 -0.3048
  133loPI   GL2 2118  12.517   3.762  10.269 -0.1639 -0.0813 -0.1820
  133loPI   C1A 2119  13.025   4.019   9.819  0.1260 -0.0607  0.0355
  133loPI   C2A 2120  13.153   4.325   9.493 -0.1490 -0.1743 -0.2795
  133loPI   C3A 2121  13.296   4.461   9.092 -0.2325 -0.1318  0.0460
  133loPI   C4A 2122  13.330   4.456   8.717 -0.1037 -0.0540  0.1686
  133loPI   C5A 2123  13.484   4.704   8.293 -0.4644  0.1241  0.0536
  133loPI   C6A 2124  13.268   4.885   7.873 -0.1530  0.2389  0.0732
  133loPI   C1B 2125  12.464   3.891   9.770  0.2603 -0.1875 -0.2752
  133loPI   C2B 2126  12.380   3.847   9.366  0.0859 -0.1455  0.1236
  133loPI   C3B 2127  12.514   3.674   8.979 -0.4509  0.2087  0.1774
  133loPI   C4B 2128  12.631   3.499   8.526 -0.1001  0.2057  0.0189
  134loPI    C1 2129  17.414   1.495  10.582  0.1784 -0.0264  0.0689
  134loPI    C2 2130  17.512   1.867  10.695  0.0407 -0.0319  0.2102
  134loPI    C3 2131  17.306   1.630  10.943 -0.1203 -0.1041  0.0114
  134loPI   PO4 2132  17.594   1.397  10.486  0.2623 -0.1353 -0.1896
  134loPI   GL1 2133  17.834   1.277  10.229  0.0021 -0.2184  0.0965
  134loPI   GL2 2134  17.586   1.194  10.057 -0.0564 -0.1101  0.1286
  134loPI   C1A 2135  18.029   1.297   9.796 -0.2169 -0.4258  0.0385
  134loPI   C2A 2136  18.061   1.370   9.329  0.2997 -0.1327  0.0779
  134loPI   C3A 2137  18.099   1.431   8.991  0.0068  0.0000  0.2637
  134loPI   C4A 2138  17.908   1.677   8.592 -0.3229 -0.1162 -0.0488
  134loPI   C5A 2139  17.569   1.926   8.285  0.1217 -0.1344 -0.1468
  134loPI   C6A 2140  17.124   1.867   8.269  0.1009  0.1004  0.0667
  134loPI   C1B 2141  17.612   1.080   9.574  0.0697  0.1202 -0.1312
  134loPI   C2B 2142  17.688   0.933   9.208  0.1281  0.1762  0.1503
  134loPI   C3B 2143  18.054   0.893   9.104  0.0080  0.0649  0.1488
  134loPI   C4B 2144  18.427   0.747   9.363 -0.1846  0.1452  0.1144
  135loPI    C1 2145  13.503   3.748  10.521  0.0043 -0.0527  0.2126
  135loPI    C2 2146  13.558   3.949  10.862  0.0733  0.1688  0.0735
  135loPI    C3 2147  13.867   3.766  10.685  0.0615  0.1556  0.0667
  135loPI   PO4 2148  13.255   3.628  10.540  0.2926 -0.0668  0.2235
  135loPI   GL1 2149  13.133   3.282  10.194 -0.0814 -0.0454  0.1612
  135loPI   GL2 2150  12.954   3.140  10.157  0.1056  0.0814  0.1612
  135loPI   C1A 2151  12.877   3.515   9.848 -0.3259  0.2080  0.1754
  135loPI   C2A 2152  12.790   3.658   9.524 -0.2839  0.0540  0.0513
  135loPI   C3A 2153  12.905   3.939   9.287  0.1417 -0.2703 -0.0496
  135loPI   C4A 2154  12.943   4.181   8.880  0.0848 -0.0500  0.0529
  135loPI   C5A 2155  12.946   4.152   8.463 -0.1135 -0.1964 -0.1750
  135loPI   C6A 2156  13.123   4.044   8.111  0.0279  0.2128 -0.4657
  135loPI   C1B 2157  12.699   3.011   9.784  0.2529  0.0421  0.3664
  135loPI   C2B 2158  12.529   2.813   9.525  0.0118  0.0022 -0.1073
  135loPI   C3B 2159  12.690   2.432   9.160  0.0657  0.0588 -0.1590
  135loPI   C4B 2160  12.966   2.362   8.831 -0.0846 -0.1448 -0.1963
  136loPI    C1 2161   6.096  15.792  10.555  0.1740  0.0305  0.3161
  136loPI    C2 2162   5.897  16.139  10.538  0.0118 -0.0784 -0.1926
  136loPI    C3 2163   5.744  15.830  10.741 -0.0717  0.0043 -0.1290
  136loPI   PO4 2164   6.123  15.716  10.346  0.2661  0.1169  0.2656
  136loPI   GL1 2165   6.362  15.662  10.001  0.2377  0.3461  0.0992
  136loPI   GL2 2166   6.620  15.799  10.006 -0.0916  0.0348  0.3503
  136loPI   C1A 2167   6.370  15.505   9.565 -0.2923 -0.0923  0.3642
  136loPI   C2A 2168   6.647  15.566   9.234  0.1960 -0.0539  0.1040
  136loPI   C3A 2169   6.612  15.582   8.838 -0.4341  0.1506  0.0576
  136loPI   C4A 2170   6.579  15.463   8.404 -0.0446 -0.1023 -0.0975
  136loPI   C5A 2171   6.407  15.449   8.050  0.2937  0.1499 -0.3165
  136loPI   C6A 2172   6.650  15.678   7.846 -0.0738 -0.2625  0.5269
  136loPI   C1B 2173   6.655  15.939   9.599 -0.1313 -0.2987 -0.0203
  136loPI   C2B 2174   6.648  16.075   9.174  0.0642 -0.0002 -0.0456
  136loPI   C3B 2175   6.709  16.147   8.710  0.1756  0.0401  0.2839
  136loPI   C4B 2176   6.686  16.197   8.241 -0.0750  0.0674  0.1965
  137loPI    C1 2177  16.301  16.104  10.463 -0.2763 -0.1846 -0.0413
  137loPI    C2 2178  15.990  16.355  10.459 -0.1350  0.0006  0.2745
  137loPI    C3 2179  15.966  16.009  10.659 -0.1559 -0.0080  0.2572
  137loPI   PO4 2180  16.421  16.059  10.247 -0.2080 -0.1909  0.0731
  137loPI   GL1 2181  16.572  15.777   9.842  0.0460  0.0045  0.0724
  137loPI   GL2 2182  16.556  15.452   9.887  0.0292  0.2774  0.0084
  137loPI   C1A 2183  16.460  15.980   9.515 -0.0802 -0.0904 -0.1014
  137loPI   C2A 2184  16.324  16.190   9.079  0.0087 -0.0874 -0.2327
  137loPI   C3A 2185  16.082  16.116   8.742  0.0799 -0.0806  0.0369
  137loPI   C4A 2186  16.057  16.322   8.436  0.0339 -0.0648  0.0238
  137loPI   C5A 2187  16.397  16.539   8.262 -0.2157  0.1101  0.0223
  137loPI   C6A 2188  16.401  16.907   8.039 -0.3009 -0.0004 -0.0652
  137loPI   C1B 2189  16.410  15.367   9.499  0.2875  0.3934  0.1232
  137loPI   C2B 2190  16.634  15.150   9.193  0.0608  0.2833 -0.2543
  137loPI   C3B 2191  16.773  15.283   8.814  0.0809  0.0665  0.1840
  137loPI   C4B 2192  16.684  15.352   8.388  0.0664  0.1700 -0.0421
  138loPI    C1 2193  14.908  11.994  10.564 -0.4108  0.0918 -0.0974
  138loPI    C2 2194  14.950  12.300  10.309  0.0427  0.1850  0.0800
  138loPI    C3 2195  14.726  12.343  10.639  0.0436  0.3011  0.0661
  138loPI   PO4 2196  14.809  11.783  10.418  0.1281 -0.2564  0.0379
  138loPI   GL1 2197  14.679  11.921   9.995 -0.0312 -0.1143 -0.1917
  138loPI   GL2 2198  14.475  12.015   9.776 -0.0846  0.0493 -0.1522
  138loPI   C1A 2199  14.950  12.028   9.687 -0.3470 -0.0331  0.0883
  138loPI   C2A 2200  14.742  12.153   9.231  0.1762 -0.1014 -0.1357
  138loPI   C3A 2201  14.847  12.620   9.087 -0.0141 -0.1600 -0.1829
  138loPI   C4A 2202  14.958  12.796   8.646  0.0329 -0.2540 -0.1097
  138loPI   C5A 2203  14.873  12.560   8.239 -0.4086 -0.1249  0.1036
  138loPI   C6A 2204  14.729  12.633   7.840  0.0942  0.0817 -0.2563
  138loPI   C1B 2205  14.319  12.246   9.482 -0.0456  0.1657  0.1106
  138loPI   C2B 2206  14.237  12.370   9.079  0.1141  0.1930 -0.4196
  138loPI   C3B 2207  14.135  12.384   8.709  0.2680  0.0692  0.0966
  138loPI   C4B 2208  13.961  12.458   8.371  0.1885  0.2541 -0.0698
  139loPI    C1 2209  14.071  14.165  10.255  0.1683 -0.0294  0.1055
  139loPI    C2 2210  14.086  13.962  10.599  0.1124 -0.0029  0.1237
  139loPI    C3 2211  13.909  14.320  10.586 -0.0232 -0.0723  0.0332
  139loPI   PO4 2212  14.287  14.100  10.169 -0.0475  0.0552 -0.0112
  139loPI   GL1 2213  14.620  13.856  10.017 -0.2585  0.0495 -0.1078
  139loPI   GL2 2214  14.744  14.079  10.034 -0.0402 -0.2100  0.0189
  139loPI   C1A 2215  14.644  13.584   9.703  0.2715  0.1001 -0.0163
  139loPI   C2A 2216  14.681  13.552   9.269 -0.3083  0.0143 -0.0524
  139loPI   C3A 2217  14.812  13.635   8.879  0.1441 -0.1882 -0.1715
  139loPI   C4A 2218  14.759  13.626   8.476 -0.0818 -0.0504  0.2954
  139loPI   C5A 2219  14.619  13.867   8.099  0.1687 -0.1985  0.1676
  139loPI   C6A 2220  14.422  14.024   7.646 -0.1097  0.1330  0.1456
  139loPI   C1B 2221  14.577  14.105   9.537  0.1328 -0.0493 -0.2924
  139loPI   C2B 2222  14.743  14.070   9.069  0.1615 -0.1042  0.1634
  139loPI   C3B 2223  14.786  14.107   8.567  0.2312 -0.2119 -0.2155
  139loPI   C4B 2224  15.076  14.153   8.181  0.1460  0.0412  0.2001
  140loPI    C1 2225   4.148  10.726  10.578  0.3251 -0.0604 -0.3131
  140loPI    C2 2226   4.146  11.097  10.728  0.1444 -0.1680 -0.0421
  140loPI    C3 2227   4.493  10.915  10.650  0.2360 -0.0013 -0.0274
  140loPI   PO4 2228   4.049  10.775  10.295  0.0721 -0.0142 -0.0150
  140loPI   GL1 2229   3.879  10.935   9.805 -0.1072  0.1519  0.1979
  140loPI   GL2 2230   4.165  10.683   9.820  0.1503 -0.0901  0.2301
  140loPI   C1A 2231   3.599  11.044   9.419  0.0287 -0.3232  0.2650
  140loPI   C2A 2232   3.282  10.863   9.129 -0.1418 -0.3397 -0.0601
  140loPI   C3A 2233   3.360  10.897   8.653 -0.0438  0.1829 -0.1905
  140loPI   C4A 2234   3.438  10.966   8.245 -0.3491 -0.0442  0.0701
  140loPI   C5A 2235   3.586  11.004   7.832 -0.1406 -0.0039 -0.1107
  140loPI   C6A 2236   3.721  10.711   7.480 -0.3068  0.1324  0.3611
  140loPI   C1B 2237   4.099  10.785   9.363 -0.2376 -0.0320 -0.0529
  140loPI   C2B 2238   4.251  10.803   8.968 -0.0220  0.0668 -0.1634
  140loPI   C3B 2239   4.336  10.791   8.557 -0.0790 -0.0851  0.3389
  140loPI   C4B 2240   4.515  10.667   8.239  0.0719  0.1545 -0.2352
  141loPI    C1 2241  15.377   3.624  10.258 -0.1931 -0.1169  0.1215
  141loPI    C2 2242  15.147   3.631   9.931 -0.4402 -0.2275  0.2905
  141loPI    C3 2243  15.180   3.958  10.159  0.0986 -0.0023 -0.0892
  141loPI   PO4 2244  15.537   3.538  10.271  0.0425 -0.0261  0.0852
  141loPI   GL1 2245  15.540   3.295   9.929  0.0975 -0.0238 -0.0217
  141loPI   GL2 2246  15.472   2.947   9.830 -0.0966 -0.1124  0.1206
  141loPI   C1A 2247  15.577   3.593   9.577  0.0979 -0.5842  0.0122
  141loPI   C2A 2248  15.827   3.683   9.152 -0.0691  0.0293  0.3439
  141loPI   C3A 2249  15.894   3.736   8.753  0.2592 -0.2348 -0.4092
  141loPI   C4A 2250  15.869   3.725   8.339  0.4797 -0.0025  0.0925
  141loPI   C5A 2251  15.680   3.746   7.882 -0.0907  0.0242  0.0281
  141loPI   C6A 2252  15.679   3.605   7.469  0.0982  0.1002  0.0707
  141loPI   C1B 2253  15.494   2.948   9.423 -0.3742 -0.0931  0.1197
  141loPI   C2B 2254  15.504   2.948   8.919  0.1604  0.3066 -0.0178
  141loPI   C3B 2255  15.481   2.900   8.518  0.0175 -0.3812  0.1906
  141loPI   C4B 2256  15.277   2.867   8.156 -0.2750  0.0321  0.0633
  142loPI    C1 2257  10.079  15.750  10.734  0.1399 -0.0438  0.2023
  142loPI    C2 2258  10.042  15.357  10.670  0.2051 -0.0575  0.2485
  142loPI    C3 2259   9.776  15.548  10.899  0.0717 -0.0414  0.0815
  142loPI   PO4 2260  10.139  15.819  10.495 -0.0954  0.2909 -0.0533
  142loPI   GL1 2261  10.036  15.841  10.121  0.0147 -0.1830 -0.0928
  142loPI   GL2 2262  10.239  15.664  10.061 -0.1112  0.0071  0.0456
  142loPI   C1A 2263   9.904  15.516   9.773 -0.0926  0.1190  0.1863
  142loPI   C2A 2264   9.762  15.310   9.403  0.3791 -0.0861  0.1985
  142loPI   C3A 2265   9.691  15.202   8.948  0.0323 -0.1817 -0.1050
  142loPI   C4A 2266   9.557  15.362   8.477 -0.0681  0.1778  0.2286
  142loPI   C5A 2267   9.748  15.381   8.031  0.0720 -0.2576  0.1729
  142loPI   C6A 2268   9.682  15.052   7.671  0.2136  0.0517 -0.2622
  142loPI   C1B 2269  10.500  15.619   9.664  0.1907  0.0192  0.0213
  142loPI   C2B 2270  10.578  15.610   9.227  0.0976 -0.2567  0.2564
  142loPI   C3B 2271  10.944  15.685   8.998  0.0271  0.3510  0.2875
  142loPI   C4B 2272  11.316  15.749   8.690  0.1771  0.1762  0.1228
  143loPI    C1 2273  11.059  12.866  10.355 -0.1375  0.1043  0.0237
  143loPI    C2 2274  10.980  12.511  10.521  0.2533 -0.0452 -0.0982
  143loPI    C3 2275  10.994  12.839  10.749 -0.1298 -0.0996  0.0120
  143loPI   PO4 2276  11.270  12.828  10.185  0.1706 -0.1750 -0.2409
  143loPI   GL1 2277  11.436  12.731   9.868  0.1284 -0.3005 -0.1824
  143loPI   GL2 2278  11.749  12.661   9.840  0.0915 -0.2370 -0.0959
  143loPI   C1A 2279  11.261  12.697   9.507 -0.2253 -0.1445  0.1878
  143loPI   C2A 2280  11.306  12.780   9.054  0.2010  0.1500 -0.2836
  143loPI   C3A 2281  11.334  12.906   8.611 -0.2637 -0.0109  0.1817
  143loPI   C4A 2282  11.202  12.871   8.099  0.6857 -0.1831 -0.2483
  143loPI   C5A 2283  10.903  12.736   7.945  0.1230 -0.0075  0.0074
  143loPI   C6A 2284  10.527  12.771   7.782 -0.0309  0.4549  0.1932
  143loPI   C1B 2285  11.729  12.880   9.460  0.2805 -0.1989  0.0473
  143loPI   C2B 2286  11.685  13.094   9.102  0.2266 -0.2207  0.0580
  143loPI   C3B 2287  11.763  13.146   8.698 -0.4183  0.4501  0.2352
  143loPI   C4B 2288  11.745  13.126   8.198  0.3918 -0.0716 -0.0839
  144loPI    C1 2289   9.576  10.808   9.948 -0.1200  0.0296  0.0817
  144loPI    C2 2290   9.359  10.479   9.882  0.2528 -0.1334 -0.3939
  144loPI    C3 2291   9.507  10.551  10.246 -0.1662 -0.2777 -0.1883
  144loPI   PO4 2292   9.622  10.966   9.709  0.1311 -0.0458  0.0162
  144loPI   GL1 2293   9.424  11.270   9.520  0.1833  0.0144  0.2596
  144loPI   GL2 2294   9.418  11.213   9.229  0.1905  0.0084  0.4050
  144loPI   C1A 2295   9.882  11.350   9.317 -0.0025  0.0069  0.3023
  144loPI   C2A 2296   9.925  11.355   8.918  0.2239 -0.1928 -0.1578
  144loPI   C3A 2297   9.942  11.352   8.495  0.1734  0.2406  0.2301
  144loPI   C4A 2298   9.902  11.293   8.145 -0.2791 -0.2191  0.1234
  144loPI   C5A 2299   9.663  11.531   7.896  0.0655 -0.2018 -0.0396
  144loPI   C6A 2300   9.383  11.787   8.014  0.0334 -0.1494  0.0227
  144loPI   C1B 2301   9.504  11.170   8.790  0.1305 -0.1834  0.4991
  144loPI   C2B 2302   9.410  11.306   8.348  0.0547 -0.1216  0.2453
  144loPI   C3B 2303   9.203  11.323   7.911  0.0701  0.2672  0.1791
  144loPI   C4B 2304   9.231  11.585   7.579 -0.0653 -0.2127  0.3674
  145loPI    C1 2305   5.337   0.153  10.291  0.2609 -0.1054  0.0103
  145loPI    C2 2306   5.287   0.538  10.390  0.1816 -0.0398 -0.2757
  145loPI    C3 2307   5.563   0.317  10.578  0.0979  0.1038  0.0218
  145loPI   PO4 2308   5.330   0.212   9.969  0.1446  0.0264  0.0016
  145loPI   GL1 2309   5.370   0.188   9.651  0.0376  0.2632  0.0660
  145loPI   GL2 2310   5.393   0.497   9.454 -0.2702 -0.2473 -0.2022
  145loPI   C1A 2311   5.239  -0.141   9.447 -0.0193  0.3638  0.0426
  145loPI   C2A 2312   5.465  -0.265   9.108  0.2403  0.0796  0.0844
  145loPI   C3A 2313   5.409  -0.323   8.639  0.1744  0.2690 -0.1172
  145loPI   C4A 2314   5.476  -0.602   8.431 -0.2667  0.1832  0.0810
  145loPI   C5A 2315   5.498  -0.979   8.262  0.0606 -0.0456 -0.1733
  145loPI   C6A 2316   5.622  -1.295   7.903 -0.1305 -0.4483 -0.0399
  145loPI   C1B 2317   5.335   0.254   9.170 -0.0898  0.0336  0.0821
  145loPI   C2B 2318   5.073   0.021   8.885  0.0229  0.0623  0.2858
  145loPI   C3B 2319   4.653   0.088   8.766 -0.0076 -0.0555 -0.1745
  145loPI   C4B 2320   4.368   0.357   8.567  0.2553 -0.0548 -0.2301
  146loPI    C1 2321  14.846   6.196  10.777 -0.0913  0.0845  0.1199
  146loPI    C2 2322  14.807   5.987  11.116  0.0366  0.0439  0.1100
  146loPI    C3 2323  14.770   6.385  11.122  0.0681  0.0460  0.1772
  146loPI   PO4 2324  14.853   5.915  10.581 -0.1042  0.0172 -0.2195
  146loPI   GL1 2325  15.130   5.697  10.289 -0.0750  0.1780 -0.0697
  146loPI   GL2 2326  15.448   5.772  10.378  0.0238  0.0166 -0.2169
  146loPI   C1A 2327  15.097   5.615   9.805 -0.1818  0.0184  0.0677
  146loPI   C2A 2328  15.180   5.513   9.302  0.1333  0.2038  0.3013
  146loPI   C3A 2329  15.105   5.489   8.873  0.1506 -0.0174 -0.0269
  146loPI   C4A 2330  15.220   5.423   8.403  0.0478 -0.1172 -0.4209
  146loPI   C5A 2331  15.421   5.049   8.174  0.1587 -0.0239 -0.1776
  146loPI   C6A 2332  15.902   5.003   8.031  0.0658  0.0210 -0.3128
  146loPI   C1B 2333  15.605   5.735  10.021 -0.3934  0.4034 -0.0107
  146loPI   C2B 2334  15.870   5.933   9.696 -0.1147  0.3432 -0.3129
  146loPI   C3B 2335  15.773   6.125   9.371  0.2522  0.0557 -0.0336
  146loPI   C4B 2336  15.779   6.150   8.850  0.0836  0.1148  0.2092
  147loPI    C1 2337  11.595  10.220  10.504  0.0367 -0.0939  0.0236
  147loPI    C2 2338  11.400   9.907  10.659  0.1938 -0.0805  0.2536
  147loPI    C3 2339  11.472  10.230  10.885  0.1904  0.0495  0.0709
  147loPI   PO4 2340  11.391  10.309  10.245 -0.0383  0.0014 -0.4347
  147loPI   GL1 2341  11.422  10.127   9.894  0.0917 -0.1560 -0.0283
  147loPI   GL2 2342  11.182  10.113   9.852  0.0445 -0.0381 -0.2120
  147loPI   C1A 2343  11.654   9.957   9.661  0.3420 -0.1432 -0.0910
  147loPI   C2A 2344  11.893  10.057   9.349  0.1683 -0.0094 -0.1519
  147loPI   C3A 2345  11.945  10.021   8.975 -0.0183  0.2516 -0.3198
  147loPI   C4A 2346  12.254   9.970   8.721  0.1515 -0.1017 -0.2931
  147loPI   C5A 2347  12.602  10.153   8.465 -0.0446  0.2963 -0.0701
  147loPI   C6A 2348  13.067  10.276   8.516 -0.1538 -0.1326  0.1700
  147loPI   C1B 2349  11.314  10.297   9.462  0.2120  0.3778 -0.0177
  147loPI   C2B 2350  11.526  10.249   9.039 -0.0329 -0.0259 -0.1855
  147loPI   C3B 2351  11.486  10.220   8.594 -0.0029  0.0873  0.1049
  147loPI   C4B 2352  11.404  10.324   8.150 -0.1701 -0.3110 -0.1452
  148loPI    C1 2353  10.420  10.302  10.032  0.0201 -0.1595 -0.0176
  148loPI    C2 2354  10.246  10.015  10.250  0.0520 -0.0648  0.1337
  148loPI    C3 2355  10.471  10.294  10.428  0.1339 -0.0257 -0.0288
  148loPI   PO4 2356  10.305  10.283   9.740  0.1525 -0.2076  0.2547
  148loPI   GL1 2357  10.269  10.124   9.322 -0.2725 -0.0264 -0.0074
  148loPI   GL2 2358  10.032  10.157   9.113  0.3592 -0.1611 -0.1805
  148loPI   C1A 2359  10.635  10.227   8.997 -0.3161  0.2147 -0.0133
  148loPI   C2A 2360  10.578  10.143   8.521 -0.0388  0.2637  0.1275
  148loPI   C3A 2361  10.418  10.041   8.025 -0.0109  0.0051 -0.1958
  148loPI   C4A 2362  10.187   9.990   7.643 -0.0890  0.0160 -0.0711
  148loPI   C5A 2363   9.936  10.361   7.401 -0.1125  0.1068 -0.1178
  148loPI   C6A 2364   9.801  10.569   6.938 -0.0309  0.0002  0.1049
  148loPI   C1B 2365  10.225  10.014   8.825 -0.1169  0.2739  0.0395
  148loPI   C2B 2366  10.177   9.838   8.427 -0.0316 -0.0413  0.0289
  148loPI   C3B 2367   9.848   9.847   8.073  0.0128  0.1357 -0.0623
  148loPI   C4B 2368   9.634  10.026   7.683  0.1165  0.0957 -0.2165
  149loPI    C1 2369   6.260   6.429  10.010 -0.0269  0.0474 -0.0361
  149loPI    C2 2370   6.455   6.753  10.139  0.0996 -0.0207 -0.0553
  149loPI    C3 2371   6.585   6.388  10.240 -0.0026 -0.0669 -0.0899
  149loPI   PO4 2372   6.000   6.549   9.945 -0.0621 -0.1918  0.3657
  149loPI   GL1 2373   5.815   6.643   9.567 -0.2527  0.0173  0.2376
  149loPI   GL2 2374   6.045   6.707   9.353  0.1990 -0.2685 -0.0335
  149loPI   C1A 2375   5.662   6.616   9.004 -0.1019 -0.2297 -0.0879
  149loPI   C2A 2376   5.639   6.615   8.672  0.1599  0.1418 -0.1301
  149loPI   C3A 2377   5.661   6.659   8.132 -0.1087  0.0854  0.1016
  149loPI   C4A 2378   5.902   6.522   7.707 -0.0026  0.0009  0.1044
  149loPI   C5A 2379   6.367   6.463   7.551 -0.0034  0.1715  0.2251
  149loPI   C6A 2380   6.732   6.302   7.231 -0.0824 -0.0898  0.0555
  149loPI   C1B 2381   6.103   6.780   8.885  0.1273  0.0727 -0.3734
  149loPI   C2B 2382   6.124   6.789   8.410 -0.1733  0.0660 -0.0527
  149loPI   C3B 2383   6.375   6.767   7.994  0.0893 -0.2633  0.0637
  149loPI   C4B 2384   6.449   6.956   7.635 -0.0792 -0.1422  0.2542
  150loPI    C1 2385  12.712  15.576  10.697 -0.1547 -0.1681 -0.0194
  150loPI    C2 2386  13.071  15.407  10.644  0.0027  0.1211  0.1005
  150loPI    C3 2387  12.855  15.321  10.970  0.0502  0.0957  0.1252
  150loPI   PO4 2388  12.462  15.517  10.470 -0.1268 -0.1037  0.0577
  150loPI   GL1 2389  12.500  15.296  10.017  0.2726  0.3589  0.0347
  150loPI   GL2 2390  12.124  15.120   9.933 -0.1371  0.1132  0.0828
  150loPI   C1A 2391  12.613  14.930   9.808  0.3159  0.2136  0.2220
  150loPI   C2A 2392  12.667  14.740   9.388 -0.0622  0.3511  0.1749
  150loPI   C3A 2393  12.886  14.798   9.034 -0.2781  0.0674 -0.0553
  150loPI   C4A 2394  12.897  14.951   8.572  0.3419  0.1660  0.0922
  150loPI   C5A 2395  12.912  14.741   8.040 -0.0939 -0.0855  0.0303
  150loPI   C6A 2396  12.731  14.508   7.741 -0.1651 -0.0475 -0.0985
  150loPI   C1B 2397  12.190  15.187   9.548 -0.3176  0.1010 -0.1793
  150loPI   C2B 2398  12.319  15.309   9.227  0.2230  0.2763  0.0568
  150loPI   C3B 2399  12.023  15.380   9.022 -0.1422  0.0111 -0.1025
  150loPI   C4B 2400  11.817  15.484   8.556 -0.1262  0.0807  0.1379
  151loPI    C1 2401   0.654   9.326  10.393  0.1023 -0.0145  0.1821
  151loPI    C2 2402   0.808   9.176  10.730 -0.1102 -0.1383  0.2255
  151loPI    C3 2403   0.576   8.948  10.496  0.1498 -0.0972 -0.0786
  151loPI   PO4 2404   0.841   9.478  10.091 -0.1968  0.0998 -0.1232
  151loPI   GL1 2405   0.912   9.598   9.665  0.2536 -0.0806 -0.0564
  151loPI   GL2 2406   0.638   9.339   9.649 -0.3078  0.2234  0.1262
  151loPI   C1A 2407   0.942   9.634   9.195  0.2498  0.2650  0.0568
  151loPI   C2A 2408   0.923   9.470   8.805  0.1194  0.0397 -0.1677
  151loPI   C3A 2409   0.996   9.563   8.311  0.2582  0.1815  0.1342
  151loPI   C4A 2410   0.714   9.711   7.985  0.2343  0.0146 -0.1016
  151loPI   C5A 2411   0.435   9.524   7.649 -0.1395 -0.1685 -0.1197
  151loPI   C6A 2412   0.162   9.294   7.361 -0.3193  0.4120  0.2642
  151loPI   C1B 2413   0.474   9.155   9.182 -0.1740 -0.3537  0.1371
  151loPI   C2B 2414   0.486   9.281   8.644 -0.2572 -0.0067  0.0557
  151loPI   C3B 2415   0.354   9.292   8.147  0.3143  0.0297  0.2227
  151loPI   C4B 2416   0.189   9.086   7.828  0.4609  0.2651  0.0616
  152loPI    C1 2417  15.186  15.513  10.471  0.0578 -0.0071 -0.0884
  152loPI    C2 2418  15.342  15.145  10.456  0.3418  0.1042  0.0500
  152loPI    C3 2419  15.262  15.313  10.809  0.0608  0.1150 -0.0164
  152loPI   PO4 2420  15.197  15.547  10.205  0.1210 -0.2008  0.0592
  152loPI   GL1 2421  15.041  15.622   9.866 -0.1297  0.1489  0.2770
  152loPI   GL2 2422  14.768  15.443   9.720 -0.1582  0.3318  0.0654
  152loPI   C1A 2423  15.048  15.890   9.503  0.0808 -0.3244 -0.0855
  152loPI   C2A 2424  15.064  15.847   9.079  0.1193 -0.0745  0.0578
  152loPI   C3A 2425  14.981  15.907   8.692  0.4860  0.3650 -0.2174
  152loPI   C4A 2426  14.854  16.109   8.370  0.1552  0.1252  0.0618
  152loPI   C5A 2427  14.677  16.503   8.235 -0.1285  0.0992 -0.3207
  152loPI   C6A 2428  14.726  16.963   8.347  0.0641  0.1876 -0.1497
  152loPI   C1B 2429  14.933  15.417   9.311 -0.2086 -0.0789  0.3550
  152loPI   C2B 2430  14.914  15.372   8.864  0.0536 -0.1497 -0.1441
  152loPI   C3B 2431  14.697  15.512   8.548  0.0568 -0.0237 -0.2941
  152loPI   C4B 2432  14.377  15.802   8.214  0.0859  0.2033 -0.1533
  153loPI    C1 2433   0.942  14.219  10.592 -0.1604 -0.1074 -0.0309
  153loPI    C2 2434   0.978  14.597  10.466 -0.1739 -0.0871  0.0262
  153loPI    C3 2435   1.215  14.460  10.758 -0.0312 -0.1820 -0.1328
  153loPI   PO4 2436   0.807  14.110  10.318  0.1702 -0.0751  0.1030
  153loPI   GL1 2437   0.779  13.835  10.098 -0.0771  0.0985 -0.0429
  153loPI   GL2 2438   1.057  13.887   9.891 -0.1293 -0.0487 -0.0233
  153loPI   C1A 2439   0.446  13.620   9.874  0.1762 -0.0753 -0.0454
  153loPI   C2A 2440   0.416  13.405   9.369  0.3836 -0.0694  0.0928
  153loPI   C3A 2441   0.564  13.319   8.978  0.0191 -0.0773 -0.0485
  153loPI   C4A 2442   0.790  13.321   8.577  0.0572  0.3854  0.0079
  153loPI   C5A 2443   0.964  13.573   8.198  0.2855 -0.0876  0.1015
  153loPI   C6A 2444   0.947  13.683   7.739  0.3035 -0.0677  0.1592
  153loPI   C1B 2445   0.773  13.778   9.508  0.0930 -0.2297 -0.4692
  153loPI   C2B 2446   0.647  13.787   9.120  0.1629 -0.0803  0.0049
  153loPI   C3B 2447   0.512  13.759   8.710  0.1870 -0.1182  0.1590
  153loPI   C4B 2448   0.541  13.863   8.242 -0.1275  0.0795  0.2864
  154loPI    C1 2449   8.199  10.371   9.943  0.1041 -0.0224 -0.0031
  154loPI    C2 2450   8.311  10.602  10.249 -0.0905 -0.0096  0.0597
  154loPI    C3 2451   8.115  10.260  10.318 -0.4841  0.1845 -0.0621
  154loPI   PO4 2452   8.105  10.536   9.816  0.0681 -0.0672  0.1441
  154loPI   GL1 2453   7.966  10.795   9.514 -0.1239 -0.0902 -0.0903
  154loPI   GL2 2454   7.655  10.890   9.437  0.2982 -0.1083  0.0990
  154loPI   C1A 2455   8.203  10.807   9.145  0.1199  0.2192  0.1304
  154loPI   C2A 2456   8.157  10.726   8.735  0.0628  0.0023  0.0632
  154loPI   C3A 2457   8.132  10.844   8.299  0.0077  0.0429  0.0771
  154loPI   C4A 2458   8.173  10.924   7.809 -0.0737  0.0133 -0.0998
  154loPI   C5A 2459   8.359  10.656   7.499 -0.0533 -0.1309 -0.1161
  154loPI   C6A 2460   8.417  10.293   7.296 -0.1957 -0.1082 -0.2226
  154loPI   C1B 2461   7.746  10.965   8.978 -0.0248  0.0393  0.0344
  154loPI   C2B 2462   7.706  10.959   8.579  0.3535 -0.0535  0.1043
  154loPI   C3B 2463   7.705  11.028   8.082  0.1360 -0.0804  0.0466
  154loPI   C4B 2464   7.351  10.897   7.750  0.1499 -0.0837  0.4139
  155loPI    C1 2465   3.732  12.394  10.569  0.3824 -0.0238  0.3472
  155loPI    C2 2466   3.968  12.650  10.372  0.0691  0.0001 -0.0081
  155loPI    C3 2467   3.587  12.746  10.446  0.0428 -0.2247  0.1575
  155loPI   PO4 2468   3.938  12.104  10.484 -0.1785 -0.3816  0.0358
  155loPI   GL1 2469   3.984  11.995  10.017 -0.3211 -0.0546  0.0735
  155loPI   GL2 2470   4.237  12.213  10.019  0.1136  0.3324  0.1648
  155loPI   C1A 2471   3.900  11.857   9.626  0.0592  0.0278  0.1481
  155loPI   C2A 2472   3.933  11.879   9.155 -0.2532  0.0275 -0.1330
  155loPI   C3A 2473   4.005  12.126   8.770  0.0460  0.0089  0.0101
  155loPI   C4A 2474   4.102  12.510   8.524  0.0594 -0.0266  0.0375
  155loPI   C5A 2475   4.550  12.713   8.347  0.1488  0.1653 -0.3750
  155loPI   C6A 2476   4.640  13.027   8.001 -0.2181 -0.0753 -0.0235
  155loPI   C1B 2477   4.210  12.280   9.555  0.2196  0.0409 -0.2492
  155loPI   C2B 2478   4.348  12.483   9.152 -0.1113  0.1211 -0.0890
  155loPI   C3B 2479   4.628  12.627   8.817 -0.0183  0.3443  0.0046
  155loPI   C4B 2480   4.939  12.939   8.630  0.2205  0.1006 -0.3729
  156loPI    C1 2481   6.985   6.636  10.032 -0.1327  0.1576 -0.2363
  156loPI    C2 2482   7.098   6.393  10.329 -0.1216  0.0012 -0.3667
  156loPI    C3 2483   7.318   6.716  10.239 -0.2607  0.1911 -0.0416
  156loPI   PO4 2484   6.918   6.467   9.840  0.2084  0.0288  0.1955
  156loPI   GL1 2485   6.549   6.527   9.535 -0.1747 -0.0257 -0.2550
  156loPI   GL2 2486   6.536   6.855   9.420 -0.0696  0.0789 -0.0355
  156loPI   C1A 2487   6.571   6.485   9.038 -0.2661 -0.5538 -0.2140
  156loPI   C2A 2488   6.585   6.646   8.662  0.0810  0.0614 -0.0593
  156loPI   C3A 2489   6.838   6.707   8.281  0.0764 -0.3264 -0.1933
  156loPI   C4A 2490   6.834   6.957   7.995 -0.0700  0.1933 -0.2407
  156loPI   C5A 2491   6.957   7.179   7.632 -0.1087  0.1788  0.0118
  156loPI   C6A 2492   6.977   7.595   7.486 -0.0778  0.2141 -0.0676
  156loPI   C1B 2493   6.703   7.008   9.086 -0.1061  0.1706  0.3440
  156loPI   C2B 2494   6.864   7.213   8.715  0.0457  0.1955  0.0968
  156loPI   C3B 2495   7.106   7.388   8.356 -0.0020  0.1654  0.0300
  156loPI   C4B 2496   7.240   7.473   7.931 -0.0774  0.1982 -0.0138
  157loPI    C1 2497   9.938   6.638  10.616 -0.0311  0.1654  0.0512
  157loPI    C2 2498   9.593   6.526  10.785  0.0670 -0.1057  0.0762
  157loPI    C3 2499   9.940   6.384  10.925  0.1851  0.1035  0.0007
  157loPI   PO4 2500   9.890   6.550  10.395  0.2193  0.1575  0.0473
  157loPI   GL1 2501   9.815   6.428  10.062  0.0590  0.0390 -0.1240
  157loPI   GL2 2502   9.922   6.142   9.838 -0.0483 -0.1296 -0.3690
  157loPI   C1A 2503   9.615   6.629   9.633 -0.2848 -0.0749 -0.2628
  157loPI   C2A 2504   9.616   6.570   9.185  0.3341  0.0259 -0.1872
  157loPI   C3A 2505   9.541   6.574   8.828 -0.3093  0.3030  0.1772
  157loPI   C4A 2506   9.671   6.660   8.416  0.0230  0.1204  0.4242
  157loPI   C5A 2507  10.001   6.653   8.115  0.2032 -0.3135 -0.0729
  157loPI   C6A 2508  10.416   6.816   8.073  0.3036 -0.2100  0.0011
  157loPI   C1B 2509   9.880   6.200   9.441  0.2431 -0.0293  0.2254
  157loPI   C2B 2510   9.956   6.310   8.932 -0.1732  0.0777 -0.2221
  157loPI   C3B 2511  10.032   6.282   8.541  0.0957  0.0616  0.2052
  157loPI   C4B 2512  10.436   6.293   8.197  0.0624 -0.2433 -0.0312
  158loPI    C1 2513  10.838  10.974  10.234  0.1256 -0.0917 -0.0448
  158loPI    C2 2514  10.471  10.816  10.208  0.1096 -0.0395 -0.1400
  158loPI    C3 2515  10.706  10.726  10.519  0.0812 -0.2098 -0.1668
  158loPI   PO4 2516  10.895  10.972  10.019 -0.2389  0.2411  0.1002
  158loPI   GL1 2517  10.805  10.789   9.619  0.0556 -0.1757  0.1216
  158loPI   GL2 2518  10.550  10.778   9.631  0.0463  0.1261  0.1183
  158loPI   C1A 2519  10.874  11.076   9.302 -0.0960 -0.0221  0.0172
  158loPI   C2A 2520  10.899  11.038   8.871 -0.3458  0.0125 -0.0701
  158loPI   C3A 2521  10.937  11.108   8.480  0.0043  0.0118 -0.4181
  158loPI   C4A 2522  10.855  11.005   8.058 -0.0512  0.1880  0.0315
  158loPI   C5A 2523  10.519  10.945   7.725  0.0361  0.1041  0.1354
  158loPI   C6A 2524  10.167  10.821   7.402  0.0274  0.1500  0.0248
  158loPI   C1B 2525  10.469  10.737   9.098 -0.2566  0.1059  0.1666
  158loPI   C2B 2526  10.565  10.699   8.666  0.1032  0.0106  0.2105
  158loPI   C3B 2527  10.528  10.579   8.229 -0.2671  0.3519 -0.1342
  158loPI   C4B 2528  10.363  10.482   7.830 -0.1704  0.1083 -0.0839
  159loPI    C1 2529   5.933   8.708   9.875  0.0738 -0.2124 -0.1849
  159loPI    C2 2530   5.850   8.959  10.175 -0.2152 -0.1767 -0.2912
  159loPI    C3 2531   6.015   8.603  10.252 -0.0689 -0.0723 -0.1135
  159loPI   PO4 2532   5.682   8.710   9.746  0.0567 -0.1001 -0.0899
  159loPI   GL1 2533   5.763   8.760   9.294 -0.3127  0.1427 -0.0052
  159loPI   GL2 2534   5.442   8.943   9.337  0.0171  0.1723  0.3186
  159loPI   C1A 2535   5.554   8.721   8.914 -0.0734  0.1248  0.0702
  159loPI   C2A 2536   5.495   8.529   8.407  0.0371  0.0176  0.0500
  159loPI   C3A 2537   5.489   8.638   8.028  0.0229  0.1212 -0.0072
  159loPI   C4A 2538   5.868   8.616   7.819  0.2825  0.0499  0.0681
  159loPI   C5A 2539   6.212   8.324   7.570  0.0854 -0.1890  0.1392
  159loPI   C6A 2540   5.996   8.083   7.199 -0.1254 -0.2069 -0.1453
  159loPI   C1B 2541   5.620   9.218   9.087  0.1562  0.0663  0.0427
  159loPI   C2B 2542   5.712   9.131   8.682 -0.1279  0.0372  0.1165
  159loPI   C3B 2543   5.724   9.090   8.330  0.3483  0.1147  0.0363
  159loPI   C4B 2544   5.684   9.185   7.892  0.1433 -0.0352 -0.1574
  160loPI    C1 2545   2.863   9.952  10.045 -0.1539  0.0371 -0.1978
  160loPI    C2 2546   2.726   9.657   9.812  0.3029 -0.2430 -0.1256
  160loPI    C3 2547   2.932   9.570  10.144  0.0762  0.1587  0.1291
  160loPI   PO4 2548   2.665  10.148  10.012  0.2782 -0.0753 -0.1641
  160loPI   GL1 2549   2.427  10.021   9.611 -0.0445  0.2628  0.3370
  160loPI   GL2 2550   2.721  10.269   9.508 -0.0235  0.0471 -0.1207
  160loPI   C1A 2551   2.276   9.945   9.221 -0.2019 -0.2065  0.0143
  160loPI   C2A 2552   2.174  10.270   8.883  0.0524 -0.1605  0.0564
  160loPI   C3A 2553   1.952  10.453   8.576  0.0291  0.2781  0.1967
  160loPI   C4A 2554   1.944  10.822   8.540  0.0257 -0.0189 -0.0488
  160loPI   C5A 2555   1.981  11.254   8.317 -0.1784 -0.0479 -0.0323
  160loPI   C6A 2556   1.862  11.490   8.031  0.0862 -0.1412  0.2116
  160loPI   C1B 2557   2.759  10.561   9.079  0.0840  0.0966 -0.0563
  160loPI   C2B 2558   2.880  10.863   8.826 -0.1800 -0.0095 -0.1418
  160loPI   C3B 2559   2.819  11.098   8.428  0.1776  0.0578  0.0295
  160loPI   C4B 2560   2.353  10.968   8.218 -0.1676 -0.0033 -0.1463
  161loPI    C1 2561   1.834   5.479  10.391 -0.1922 -0.1419 -0.0515
  161loPI    C2 2562   1.878   5.866  10.299 -0.0204 -0.1630 -0.0612
  161loPI    C3 2563   1.592   5.650  10.122  0.0062 -0.0876 -0.1979
  161loPI   PO4 2564   1.971   5.359  10.345 -0.5061  0.4358 -0.2293
  161loPI   GL1 2565   1.911   5.291   9.914  0.2682  0.1532 -0.0396
  161loPI   GL2 2566   2.232   5.164   9.778  0.1002 -0.1456 -0.1003
  161loPI   C1A 2567   1.812   5.366   9.489 -0.0691 -0.0020 -0.0269
  161loPI   C2A 2568   1.795   5.261   9.083  0.0060  0.0026  0.1006
  161loPI   C3A 2569   1.562   5.165   8.798  0.0911 -0.3254  0.0813
  161loPI   C4A 2570   1.338   5.030   8.422  0.3118  0.3746 -0.1791
  161loPI   C5A 2571   1.264   5.188   7.995  0.3657 -0.0431  0.2099
  161loPI   C6A 2572   1.103   5.220   7.573 -0.0574 -0.2941  0.1624
  161loPI   C1B 2573   2.243   5.119   9.319  0.0938 -0.3079 -0.0725
  161loPI   C2B 2574   2.160   5.043   8.861  0.0948 -0.2650  0.2423
  161loPI   C3B 2575   1.962   5.101   8.462  0.0194  0.0629 -0.1928
  161loPI   C4B 2576   1.784   5.068   8.125  0.3818 -0.0386 -0.1164
  162loPI    C1 2577   7.028   9.649  10.097 -0.0966 -0.2035 -0.1354
  162loPI    C2 2578   7.080   9.257  10.157 -0.0395 -0.1585  0.1226
  162loPI    C3 2579   6.767   9.444  10.321 -0.0342 -0.0841  0.0489
  162loPI   PO4 2580   7.000   9.653   9.816  0.2069  0.1804 -0.0665
  162loPI   GL1 2581   6.683   9.520   9.413  0.0901  0.2639 -0.3297
  162loPI   GL2 2582   6.916   9.364   9.277  0.0734  0.0114  0.0816
  162loPI   C1A 2583   6.264   9.311   9.355  0.0344  0.2834 -0.0110
  162loPI   C2A 2584   6.083   9.120   9.069 -0.0582 -0.1136 -0.1497
  162loPI   C3A 2585   6.059   8.734   8.824  0.0905 -0.1439  0.0370
  162loPI   C4A 2586   5.986   8.581   8.388 -0.0135 -0.1789 -0.1290
  162loPI   C5A 2587   6.151   8.322   8.051  0.0155 -0.0522 -0.0383
  162loPI   C6A 2588   6.159   7.915   8.048  0.1062  0.0243 -0.1794
  162loPI   C1B 2589   6.597   9.340   8.914 -0.3441 -0.1329 -0.2762
  162loPI   C2B 2590   6.733   9.374   8.498  0.2013 -0.1210  0.3309
  162loPI   C3B 2591   6.489   9.263   8.158  0.0970 -0.3437  0.1416
  162loPI   C4B 2592   6.156   9.338   7.738 -0.1178 -0.1579 -0.1227
  163loPI    C1 2593  11.017  14.004  10.649  0.0617 -0.0833  0.1080
  163loPI    C2 2594  11.066  13.687  10.411  0.1778  0.1382 -0.1691
  163loPI    C3 2595  11.019  13.635  10.805  0.1337 -0.2238 -0.2178
  163loPI   PO4 2596  10.827  14.172  10.544  0.4960 -0.0762  0.2620
  163loPI   GL1 2597  10.929  14.339  10.051  0.1916 -0.1446  0.0227
  163loPI   GL2 2598  10.541  14.413  10.061 -0.1057  0.0357 -0.0086
  163loPI   C1A 2599  11.206  14.388   9.776  0.1051 -0.3125  0.1378
  163loPI   C2A 2600  11.376  14.567   9.369 -0.1626  0.2850  0.0500
  163loPI   C3A 2601  11.526  14.690   8.994 -0.0471  0.0197 -0.0889
  163loPI   C4A 2602  11.906  14.812   8.784  0.1771  0.2061 -0.0935
  163loPI   C5A 2603  12.204  14.942   8.417  0.0945  0.1318  0.2348
  163loPI   C6A 2604  12.351  14.808   8.118 -0.0283  0.0542  0.0402
  163loPI   C1B 2605  10.598  14.294   9.665 -0.0187 -0.1807  0.1360
  163loPI   C2B 2606  10.957  14.193   9.283 -0.0775 -0.2125 -0.0416
  163loPI   C3B 2607  11.061  14.239   8.889  0.0971  0.3497  0.2780
  163loPI   C4B 2608  11.053  14.288   8.470  0.2565  0.0752 -0.3542
  164loPI    C1 2609   8.903   6.132  10.378 -0.3114  0.1763  0.1930
  164loPI    C2 2610   8.545   5.955  10.402 -0.1134 -0.2480  0.1079
  164loPI    C3 2611   8.829   5.870  10.671 -0.0051 -0.0784  0.0487
  164loPI   PO4 2612   8.920   6.054  10.017  0.1256 -0.0022 -0.0319
  164loPI   GL1 2613   9.037   6.063   9.639  0.1024 -0.0854 -0.0179
  164loPI   GL2 2614   9.019   5.757   9.608  0.1201 -0.0507 -0.1319
  164loPI   C1A 2615   9.403   6.166   9.344 -0.1804 -0.2047  0.1115
  164loPI   C2A 2616   9.490   6.072   8.940  0.0566 -0.0920 -0.2749
  164loPI   C3A 2617   9.603   6.060   8.555 -0.1418  0.3552  0.3118
  164loPI   C4A 2618   9.626   6.247   8.149 -0.0270 -0.2304  0.0669
  164loPI   C5A 2619   9.568   6.592   7.957  0.1482 -0.3014  0.1716
  164loPI   C6A 2620   9.313   7.028   7.895 -0.4372 -0.0751 -0.0637
  164loPI   C1B 2621   8.950   5.876   9.097 -0.1516  0.0037 -0.1519
  164loPI   C2B 2622   9.031   6.022   8.654 -0.0995  0.0612  0.1339
  164loPI   C3B 2623   9.129   5.988   8.232 -0.0703  0.1125 -0.0994
  164loPI   C4B 2624   8.857   5.956   7.871 -0.0234  0.1455 -0.0746
  165loPI    C1 2625   3.912   3.243  10.431  0.0549  0.2227  0.1178
  165loPI    C2 2626   4.266   3.237  10.618  0.0028  0.3224  0.2210
  165loPI    C3 2627   3.928   3.262  10.830 -0.0831 -0.0810  0.1403
  165loPI   PO4 2628   3.977   3.416  10.211  0.1508  0.1151 -0.1715
  165loPI   GL1 2629   3.996   3.575   9.848  0.0859  0.1416 -0.0497
  165loPI   GL2 2630   4.234   3.370   9.779  0.0701  0.1904 -0.0860
  165loPI   C1A 2631   3.719   3.625   9.398  0.0953  0.0457 -0.2045
  165loPI   C2A 2632   3.814   3.500   8.964 -0.1576  0.2395 -0.3160
  165loPI   C3A 2633   3.815   3.534   8.497 -0.2976  0.0142  0.3177
  165loPI   C4A 2634   3.713   3.293   8.171 -0.3393  0.1499  0.0496
  165loPI   C5A 2635   3.356   3.309   7.865 -0.0782  0.1422 -0.3125
  165loPI   C6A 2636   3.475   3.535   7.547 -0.2293  0.0064 -0.2228
  165loPI   C1B 2637   4.219   3.503   9.334  0.1947  0.1690  0.2658
  165loPI   C2B 2638   4.341   3.486   8.853  0.0043 -0.0326 -0.1561
  165loPI   C3B 2639   4.542   3.362   8.442 -0.2142 -0.1194  0.1431
  165loPI   C4B 2640   4.791   3.177   8.244 -0.1034 -0.0325  0.1124
  166loPI    C1 2641   0.112  11.498  10.214 -0.2506 -0.0529 -0.0657
  166loPI    C2 2642  -0.140  11.413   9.915 -0.1478 -0.1039 -0.1382
  166loPI    C3 2643   0.093  11.126  10.068  0.1191  0.0179 -0.3082
  166loPI   PO4 2644   0.088  11.787  10.168  0.0066 -0.3181 -0.0670
  166loPI   GL1 2645   0.106  12.129   9.788  0.1142  0.0307 -0.0208
  166loPI   GL2 2646  -0.164  11.945   9.757  0.1255 -0.0245  0.0675
  166loPI   C1A 2647   0.227  12.108   9.475 -0.1679 -0.3510 -0.2046
  166loPI   C2A 2648   0.120  12.016   9.093 -0.0458 -0.2672 -0.0423
  166loPI   C3A 2649   0.114  11.864   8.680  0.1597  0.1255  0.0645
  166loPI   C4A 2650   0.136  11.932   8.270  0.0009  0.1001 -0.0841
  166loPI   C5A 2651  -0.228  12.081   7.940  0.0963 -0.0202 -0.3808
  166loPI   C6A 2652  -0.615  12.119   7.812  0.1403 -0.3026  0.0173
  166loPI   C1B 2653  -0.282  12.058   9.343 -0.0728 -0.1413  0.0022
  166loPI   C2B 2654  -0.376  12.137   8.878  0.3016  0.3596  0.0001
  166loPI   C3B 2655  -0.251  12.216   8.438 -0.0030  0.0830  0.1530
  166loPI   C4B 2656  -0.119  12.512   8.105  0.2367 -0.0648  0.0267
  167loPI    C1 2657   3.796   5.917  10.614 -0.0706 -0.1994 -0.2116
  167loPI    C2 2658   3.875   6.101  10.268  0.0179  0.0869 -0.0425
  167loPI    C3 2659   3.900   6.303  10.612 -0.2926 -0.1339  0.1150
  167loPI   PO4 2660   3.624   5.716  10.484  0.1762 -0.1100  0.1581
  167loPI   GL1 2661   3.556   5.568  10.089 -0.2417  0.2062  0.1744
  167loPI   GL2 2662   3.609   5.784   9.951  0.2699  0.0645 -0.1809
  167loPI   C1A 2663   3.898   5.276   9.963 -0.3903  0.5017 -0.1352
  167loPI   C2A 2664   4.181   5.083   9.604 -0.1113 -0.0113 -0.3207
  167loPI   C3A 2665   4.309   4.898   9.238  0.2016  0.0161  0.3966
  167loPI   C4A 2666   4.556   4.887   8.831 -0.0234 -0.0275 -0.2134
  167loPI   C5A 2667   4.578   4.994   8.354  0.0427  0.2984 -0.0108
  167loPI   C6A 2668   4.876   5.009   8.090 -0.0376 -0.2667  0.1725
  167loPI   C1B 2669   3.920   5.737   9.733 -0.0921 -0.1312  0.0063
  167loPI   C2B 2670   4.077   5.516   9.433 -0.2567 -0.1616  0.1850
  167loPI   C3B 2671   3.970   5.232   9.131 -0.2220  0.1365  0.1565
  167loPI   C4B 2672   3.984   4.887   8.850 -0.1302 -0.1579 -0.1997
  168loPI    C1 2673  12.788   2.595  10.863 -0.0520  0.0443 -0.1909
  168loPI    C2 2674  13.088   2.714  11.100 -0.0495 -0.0207 -0.1612
  168loPI    C3 2675  12.756   2.559  11.260 -0.0137 -0.1429 -0.2040
  168loPI   PO4 2676  12.994   2.430  10.680  0.1333 -0.3063 -0.2046
  168loPI   GL1 2677  12.966   2.595  10.143  0.0512 -0.0148  0.3341
  168loPI   GL2 2678  12.686   2.482   9.975  0.2028  0.1165 -0.2785
  168loPI   C1A 2679  13.224   2.251   9.911 -0.2056 -0.1507  0.0763
  168loPI   C2A 2680  13.035   2.047   9.690  0.0392  0.1703  0.1823
  168loPI   C3A 2681  12.877   1.658   9.474  0.2355 -0.1651 -0.1374
  168loPI   C4A 2682  12.749   1.333   9.096 -0.1160 -0.2857  0.2424
  168loPI   C5A 2683  12.649   1.159   8.759  0.0794  0.2167  0.3246
  168loPI   C6A 2684  12.655   0.926   8.386  0.4613 -0.1906  0.0949
  168loPI   C1B 2685  12.944   2.614   9.578 -0.1026 -0.0462 -0.1756
  168loPI   C2B 2686  13.022   2.841   9.109  0.0713  0.1205  0.1668
  168loPI   C3B 2687  13.066   3.017   8.718  0.1589 -0.1386  0.0780
  168loPI   C4B 2688  13.114   3.207   8.309 -0.1654  0.0174 -0.3853
  169loPI    C1 2689  12.210   5.110  10.591 -0.0245 -0.0354  0.2295
  169loPI    C2 2690  12.575   5.222  10.472 -0.1452  0.0245 -0.0968
  169loPI    C3 2691  12.340   5.481  10.667 -0.0048 -0.0235  0.1397
  169loPI   PO4 2692  12.096   4.955  10.358  0.0454  0.0846  0.0567
  169loPI   GL1 2693  11.808   5.012   9.904  0.0736  0.0307 -0.2494
  169loPI   GL2 2694  12.228   5.137   9.947 -0.1808  0.0466 -0.0096
  169loPI   C1A 2695  11.955   4.858   9.607 -0.1777 -0.0045  0.1955
  169loPI   C2A 2696  11.916   4.612   9.257 -0.1721 -0.1364  0.0880
  169loPI   C3A 2697  12.066   4.594   8.810  0.1798 -0.2528 -0.0835
  169loPI   C4A 2698  12.101   4.395   8.395  0.2351 -0.0451 -0.0906
  169loPI   C5A 2699  12.001   4.041   8.306 -0.0110 -0.0477  0.1050
  169loPI   C6A 2700  12.140   3.567   8.331  0.4507 -0.1479  0.0993
  169loPI   C1B 2701  12.241   5.303   9.410  0.2082 -0.0286 -0.0284
  169loPI   C2B 2702  12.430   5.492   8.967 -0.0332  0.0753  0.0008
  169loPI   C3B 2703  12.321   5.505   8.664  0.0114  0.0563 -0.0966
  169loPI   C4B 2704  12.163   5.571   8.344  0.0460  0.0652 -0.1276
  170loPI    C1 2705   7.152  13.431  10.605  0.3176  0.1132 -0.4747
  170loPI    C2 2706   7.242  13.811  10.688  0.3477  0.0317 -0.1160
  170loPI    C3 2707   7.433  13.515  10.878 -0.1063 -0.1538  0.0644
  170loPI   PO4 2708   7.123  13.537  10.306  0.0362 -0.0207  0.2548
  170loPI   GL1 2709   7.381  13.528   9.871 -0.2474 -0.2528 -0.0306
  170loPI   GL2 2710   7.091  13.498   9.779 -0.0596  0.2022 -0.1949
  170loPI   C1A 2711   7.630  13.237   9.584 -0.2492  0.2445 -0.1667
  170loPI   C2A 2712   7.703  13.073   9.135 -0.0649  0.1274  0.2115
  170loPI   C3A 2713   7.732  13.057   8.782  0.0575  0.0930 -0.0112
  170loPI   C4A 2714   7.872  12.892   8.427  0.4263 -0.2505 -0.2232
  170loPI   C5A 2715   8.104  12.676   8.240 -0.0281 -0.0641 -0.3597
  170loPI   C6A 2716   8.462  12.794   8.039  0.0282 -0.1474  0.2787
  170loPI   C1B 2717   7.218  13.525   9.276  0.0611 -0.1964  0.0971
  170loPI   C2B 2718   7.382  13.368   8.963 -0.1249  0.4367  0.2030
  170loPI   C3B 2719   7.125  13.179   8.818  0.1994 -0.1272  0.4272
  170loPI   C4B 2720   6.651  13.276   8.769  0.2798  0.4380  0.1444
  171loPI    C1 2721  13.193  10.141  10.840 -0.0067  0.1232 -0.0839
  171loPI    C2 2722  13.048   9.816  11.024  0.2031  0.0476 -0.0491
  171loPI    C3 2723  12.987  10.179  11.181  0.1752  0.0043  0.0411
  171loPI   PO4 2724  13.296   9.929  10.599  0.0069  0.2120 -0.2288
  171loPI   GL1 2725  13.332   9.994  10.256 -0.0819  0.0505  0.1622
  171loPI   GL2 2726  13.420  10.152  10.104  0.1473  0.0760  0.1134
  171loPI   C1A 2727  13.012   9.786   9.859  0.0787  0.1687 -0.2553
  171loPI   C2A 2728  12.815   9.653   9.539 -0.1638 -0.3227  0.2293
  171loPI   C3A 2729  12.911   9.659   9.046  0.0991  0.3606 -0.3315
  171loPI   C4A 2730  12.946   9.808   8.600  0.0371 -0.0758  0.0165
  171loPI   C5A 2731  13.305   9.816   8.297 -0.1402  0.0112 -0.0028
  171loPI   C6A 2732  13.446  10.016   8.027 -0.0903  0.1207  0.0508
  171loPI   C1B 2733  13.390  10.203   9.683  0.2770  0.0167 -0.2187
  171loPI   C2B 2734  13.596  10.336   9.259 -0.0309 -0.1661  0.2414
  171loPI   C3B 2735  13.957  10.259   8.888  0.0151 -0.2347  0.2375
  171loPI   C4B 2736  14.361  10.186   8.719  0.1371 -0.1205 -0.0404
  172loPI    C1 2737   7.708   8.647  10.248  0.2382 -0.0476 -0.1425
  172loPI    C2 2738   8.036   8.818  10.400  0.1379 -0.1572  0.2047
  172loPI    C3 2739   7.763   8.655  10.644 -0.1897 -0.0432 -0.0784
  172loPI   PO4 2740   7.840   8.522   9.972 -0.2078 -0.0002 -0.0357
  172loPI   GL1 2741   8.117   8.522   9.551  0.0430 -0.3295 -0.1364
  172loPI   GL2 2742   8.292   8.840   9.534 -0.2355  0.2773  0.0607
  172loPI   C1A 2743   7.696   8.594   9.251  0.0095  0.1966  0.2701
  172loPI   C2A 2744   7.753   8.407   8.788  0.0642 -0.0465 -0.0676
  172loPI   C3A 2745   7.812   8.553   8.418 -0.0517 -0.1441  0.1047
  172loPI   C4A 2746   7.854   8.720   7.991 -0.0825 -0.0695  0.1490
  172loPI   C5A 2747   7.772   8.748   7.593 -0.2896  0.0961  0.3017
  172loPI   C6A 2748   7.579   8.456   7.328  0.1870  0.4511  0.2754
  172loPI   C1B 2749   8.260   8.625   9.069  0.3756 -0.0090 -0.4745
  172loPI   C2B 2750   8.269   8.398   8.752  0.1271  0.3373  0.0812
  172loPI   C3B 2751   8.333   8.083   8.377 -0.0592 -0.4363 -0.0122
  172loPI   C4B 2752   8.429   8.119   7.889  0.0305 -0.3875 -0.0087
  173loPI    C1 2753   2.773   0.419  10.596  0.0825  0.2134 -0.0772
  173loPI    C2 2754   3.103   0.344  10.809  0.0864  0.0992 -0.1226
  173loPI    C3 2755   2.883   0.670  10.888 -0.0243 -0.0471  0.1916
  173loPI   PO4 2756   2.762   0.411  10.354  0.0577  0.2223 -0.2134
  173loPI   GL1 2757   2.651   0.210   9.948  0.1101  0.1129  0.1843
  173loPI   GL2 2758   2.474   0.535   9.745  0.0735 -0.0137 -0.0913
  173loPI   C1A 2759   2.521  -0.012   9.665 -0.2216 -0.0596 -0.0790
  173loPI   C2A 2760   2.409  -0.092   9.271 -0.0001 -0.0972  0.2502
  173loPI   C3A 2761   2.366  -0.099   8.816  0.2726 -0.0716 -0.0425
  173loPI   C4A 2762   2.430   0.011   8.395  0.1268  0.0729  0.3411
  173loPI   C5A 2763   2.459   0.273   8.035 -0.3390  0.1392  0.0644
  173loPI   C6A 2764   2.351   0.620   7.766  0.1853 -0.0022 -0.0663
  173loPI   C1B 2765   2.563   0.568   9.243 -0.1682  0.2586  0.1871
  173loPI   C2B 2766   2.594   0.359   8.843 -0.0518  0.1144  0.3244
  173loPI   C3B 2767   2.868   0.084   8.645 -0.1171  0.0907 -0.1229
  173loPI   C4B 2768   3.104   0.225   8.413  0.0558  0.2937 -0.1743
  174loPI    C1 2769  16.172  11.850  10.180  0.0736 -0.1956  0.0141
  174loPI    C2 2770  16.247  11.988  10.547  0.1697  0.0844 -0.1083
  174loPI    C3 2771  15.869  11.953  10.420  0.1434  0.2257 -0.0708
  174loPI   PO4 2772  16.299  11.928  10.054  0.0833 -0.0003  0.3498
  174loPI   GL1 2773  16.312  12.180   9.691 -0.1054 -0.0242 -0.3102
  174loPI   GL2 2774  16.692  12.176   9.721 -0.0865  0.2034 -0.0614
  174loPI   C1A 2775  16.374  11.923   9.392  0.0832  0.1715 -0.1927
  174loPI   C2A 2776  16.490  11.870   9.044 -0.0849 -0.1469 -0.0403
  174loPI   C3A 2777  16.643  11.833   8.605 -0.0715  0.4391 -0.0392
  174loPI   C4A 2778  16.618  11.741   8.202  0.1606  0.0549 -0.2704
  174loPI   C5A 2779  16.767  11.605   7.810  0.5160 -0.0122  0.1351
  174loPI   C6A 2780  16.982  11.279   7.572  0.0414 -0.0632 -0.1714
  174loPI   C1B 2781  16.729  12.264   9.284 -0.2400  0.3699 -0.0439
  174loPI   C2B 2782  16.799  12.323   8.811  0.0924  0.2134 -0.3032
  174loPI   C3B 2783  16.919  12.251   8.366  0.0680 -0.0938 -0.0954
  174loPI   C4B 2784  16.650  12.351   8.015  0.3265 -0.0894 -0.0352
  175loPI    C1 2785   3.272  15.128  10.496  0.0229  0.1834  0.2099
  175loPI    C2 2786   3.655  15.158  10.385 -0.0397  0.1125 -0.0290
  175loPI    C3 2787   3.553  14.914  10.685  0.0999  0.1214  0.0268
  175loPI   PO4 2788   3.174  15.023  10.292  0.2356 -0.2573 -0.1636
  175loPI   GL1 2789   3.060  14.877   9.929  0.1160 -0.0686  0.0677
  175loPI   GL2 2790   2.834  14.641   9.803 -0.0334 -0.1473 -0.2067
  175loPI   C1A 2791   2.941  15.128   9.629  0.2110  0.2659 -0.2714
  175loPI   C2A 2792   3.027  15.186   9.233  0.0826 -0.0705 -0.2067
  175loPI   C3A 2793   2.837  15.222   8.778 -0.2246  0.0991  0.3179
  175loPI   C4A 2794   2.463  15.241   8.472  0.2297  0.3562 -0.0564
  175loPI   C5A 2795   2.147  15.381   8.114 -0.2377  0.0702 -0.0299
  175loPI   C6A 2796   1.902  15.717   8.048 -0.1712  0.2190 -0.0029
  175loPI   C1B 2797   2.921  14.718   9.340 -0.0042  0.3511 -0.1650
  175loPI   C2B 2798   2.932  14.734   8.888  0.0139  0.1236 -0.0197
  175loPI   C3B 2799   2.865  14.871   8.456 -0.0190 -0.1397 -0.0261
  175loPI   C4B 2800   2.912  15.270   8.178 -0.2030  0.1798 -0.2034
  176loPI    C1 2801  10.774  16.279  10.794  0.2713  0.1935  0.0106
  176loPI    C2 2802  10.971  16.169  11.124  0.0132  0.0231  0.1111
  176loPI    C3 2803  10.657  16.414  11.152 -0.0847 -0.0889  0.0069
  176loPI   PO4 2804  10.944  16.295  10.545 -0.0610 -0.1560 -0.1854
  176loPI   GL1 2805  10.892  16.191  10.147 -0.0118 -0.0206 -0.0050
  176loPI   GL2 2806  10.703  15.953  10.000  0.0466 -0.2315  0.2410
  176loPI   C1A 2807  11.170  16.229   9.816  0.2189 -0.1248 -0.1934
  176loPI   C2A 2808  11.187  16.549   9.407 -0.1576  0.0875 -0.0437
  176loPI   C3A 2809  11.355  16.735   9.034  0.0511 -0.2286  0.2190
  176loPI   C4A 2810  11.480  16.878   8.779  0.1380 -0.1135  0.0018
  176loPI   C5A 2811  11.854  16.862   8.511 -0.4682 -0.5579 -0.1813
  176loPI   C6A 2812  11.994  16.442   8.315 -0.1699  0.0702 -0.1316
  176loPI   C1B 2813  10.743  16.035   9.644  0.0079 -0.0506 -0.0621
  176loPI   C2B 2814  10.765  16.179   9.285  0.2047  0.1522 -0.3192
  176loPI   C3B 2815  11.006  16.266   9.023  0.0763 -0.2250 -0.1917
  176loPI   C4B 2816  11.170  16.431   8.724 -0.1065  0.2135  0.1584
  177loPI    C1 2817  14.167   4.553  10.781 -0.1182  0.1259  0.0318
  177loPI    C2 2818  13.877   4.297  10.881  0.0210 -0.0798 -0.0836
  177loPI    C3 2819  14.095   4.473  11.166 -0.1459 -0.0062 -0.0002
  177loPI   PO4 2820  14.093   4.725  10.644 -0.1522  0.0980 -0.1715
  177loPI   GL1 2821  14.171   4.841  10.298 -0.2314 -0.1476 -0.1909
  177loPI   GL2 2822  14.299   4.633  10.094  0.0366 -0.0322 -0.0216
  177loPI   C1A 2823  13.941   5.019   9.886 -0.2480  0.0038 -0.2024
  177loPI   C2A 2824  13.833   4.971   9.508  0.0307 -0.1486 -0.0513
  177loPI   C3A 2825  13.775   4.850   9.074 -0.1974  0.1106 -0.0921
  177loPI   C4A 2826  13.805   4.730   8.661  0.0918 -0.0190 -0.1039
  177loPI   C5A 2827  13.940   4.870   8.265  0.1144 -0.0223  0.0747
  177loPI   C6A 2828  14.232   5.141   8.038 -0.0880 -0.1264 -0.2099
  177loPI   C1B 2829  14.026   4.490   9.837 -0.0235 -0.0770 -0.4037
  177loPI   C2B 2830  13.907   4.161   9.719 -0.1399 -0.0166  0.2043
  177loPI   C3B 2831  13.894   3.858   9.338 -0.3237  0.0126 -0.0633
  177loPI   C4B 2832  13.890   3.780   8.949 -0.1915  0.2077  0.0151
  178loPI    C1 2833  17.979   2.189  10.962  0.0018 -0.0743 -0.2491
  178loPI    C2 2834  18.192   1.852  10.996  0.0527 -0.0225 -0.0414
  178loPI    C3 2835  18.277   2.167  11.228 -0.1185  0.0681 -0.1000
  178loPI   PO4 2836  18.013   2.237  10.667 -0.0808 -0.1853 -0.0424
  178loPI   GL1 2837  18.038   2.359  10.256  0.2301  0.1274 -0.2681
  178loPI   GL2 2838  17.737   2.191  10.255 -0.1270  0.2120  0.4047
  178loPI   C1A 2839  17.919   2.436   9.820 -0.2060 -0.3520 -0.2298
  178loPI   C2A 2840  18.062   2.621   9.457  0.0902  0.0927  0.1590
  178loPI   C3A 2841  17.837   2.681   9.072  0.1567  0.1236  0.0508
  178loPI   C4A 2842  17.746   2.723   8.536  0.1696 -0.0611 -0.2228
  178loPI   C5A 2843  17.401   2.425   8.365 -0.2328 -0.0314 -0.0874
  178loPI   C6A 2844  17.115   2.363   8.142  0.1075  0.1424 -0.1187
  178loPI   C1B 2845  17.441   2.246   9.896 -0.0452  0.1878  0.1041
  178loPI   C2B 2846  17.300   2.107   9.585  0.1017  0.0474  0.2233
  178loPI   C3B 2847  17.405   1.963   9.218  0.1921  0.2162  0.2436
  178loPI   C4B 2848  17.299   2.008   8.770 -0.4400  0.0340  0.0111
  179loPI    C1 2849  17.810   6.946  10.566  0.2637  0.2630 -0.0723
  179loPI    C2 2850  17.673   6.973  10.941  0.1507  0.1383 -0.1036
  179loPI    C3 2851  17.966   7.216  10.817  0.1725  0.1959  0.0581
  179loPI   PO4 2852  17.596   7.020  10.386  0.3797 -0.0571  0.0964
  179loPI   GL1 2853  17.487   6.983  10.075 -0.1345 -0.0611 -0.1082
  179loPI   GL2 2854  17.211   6.900   9.817  0.0634  0.1690 -0.2215
  179loPI   C1A 2855  17.748   6.769   9.724 -0.3814  0.1577 -0.2790
  179loPI   C2A 2856  17.963   6.766   9.392 -0.1022 -0.2041 -0.1069
  179loPI   C3A 2857  18.138   6.810   9.044 -0.2557 -0.0161  0.3167
  179loPI   C4A 2858  18.308   7.013   8.594 -0.0440 -0.0164  0.0511
  179loPI   C5A 2859  18.371   7.068   8.173  0.0018 -0.3104 -0.2070
  179loPI   C6A 2860  18.637   6.911   7.738  0.0966 -0.4093  0.1425
  179loPI   C1B 2861  17.352   6.910   9.480  0.2388 -0.0262 -0.1180
  179loPI   C2B 2862  17.192   6.970   9.043  0.1182 -0.1118 -0.2390
  179loPI   C3B 2863  17.103   7.012   8.597  0.2319 -0.1197  0.3303
  179loPI   C4B 2864  17.105   7.153   8.251  0.3237  0.1130  0.0033
  180loPI    C1 2865  11.019  12.036  10.482  0.0972  0.0846  0.0171
  180loPI    C2 2866  10.846  11.910  10.820 -0.1275 -0.1778 -0.1908
  180loPI    C3 2867  10.664  12.183  10.592  0.1298  0.1694  0.0092
  180loPI   PO4 2868  11.055  11.761  10.402  0.3449 -0.0656  0.0491
  180loPI   GL1 2869  11.061  11.858   9.994 -0.0505  0.2171  0.2515
  180loPI   GL2 2870  10.688  11.914  10.133 -0.1559  0.3701  0.0889
  180loPI   C1A 2871  11.041  11.979   9.591  0.0772 -0.1572  0.0528
  180loPI   C2A 2872  11.067  12.052   9.166  0.0359 -0.1723  0.2898
  180loPI   C3A 2873  11.120  11.969   8.681  0.0333  0.0907 -0.0111
  180loPI   C4A 2874  11.194  11.945   8.197  0.3266 -0.0414  0.2234
  180loPI   C5A 2875  11.391  12.191   7.808 -0.0771 -0.1441 -0.0367
  180loPI   C6A 2876  11.399  12.302   7.339 -0.0656 -0.1483  0.0972
  180loPI   C1B 2877  10.575  12.028   9.752 -0.1403  0.2414  0.0158
  180loPI   C2B 2878  10.556  12.149   9.366 -0.5012  0.0730  0.1784
  180loPI   C3B 2879  10.614  12.085   8.918  0.0464  0.1163 -0.0052
  180loPI   C4B 2880  10.642  12.078   8.438 -0.0254 -0.2618 -0.0412
  181loPI    C1 2881   4.356  11.829  10.338  0.0489  0.1453  0.1033
  181loPI    C2 2882   4.350  11.904  10.731 -0.2748  0.1431  0.1013
  181loPI    C3 2883   4.090  11.645  10.573 -0.0568  0.0412 -0.0955
  181loPI   PO4 2884   4.601  12.046  10.331 -0.1258  0.2133 -0.2309
  181loPI   GL1 2885   4.770  12.128   9.916 -0.3675  0.0948 -0.2531
  181loPI   GL2 2886   5.067  12.121  10.081 -0.1145  0.2374  0.3504
  181loPI   C1A 2887   4.736  12.311   9.547  0.1277  0.1495 -0.3965
  181loPI   C2A 2888   4.758  12.678   9.307 -0.0153  0.1717  0.3869
  181loPI   C3A 2889   4.915  13.063   9.092  0.2065  0.0704 -0.3693
  181loPI   C4A 2890   5.177  13.365   9.004  0.0519  0.0784  0.0161
  181loPI   C5A 2891   5.545  13.704   8.896 -0.0322 -0.2398  0.0385
  181loPI   C6A 2892   5.835  13.669   8.668  0.0619 -0.1546  0.0199
  181loPI   C1B 2893   5.078  11.892   9.607 -0.0537 -0.1830  0.0127
  181loPI   C2B 2894   4.899  11.828   9.331 -0.1393 -0.0177  0.2625
  181loPI   C3B 2895   4.761  12.155   9.078  0.0871 -0.1582 -0.0118
  181loPI   C4B 2896   4.544  12.140   8.682  0.4359  0.0409  0.1020
  182loPI    C1 2897   6.563  12.864  10.449  0.1428 -0.0799  0.0820
  182loPI    C2 2898   6.775  12.623  10.211 -0.0739 -0.0201 -0.1764
  182loPI    C3 2899   6.815  12.597  10.608  0.0207 -0.3728 -0.2051
  182loPI   PO4 2900   6.323  12.904  10.256 -0.0886  0.2299  0.3132
  182loPI   GL1 2901   6.361  12.683   9.892 -0.4059 -0.1522  0.1504
  182loPI   GL2 2902   6.113  12.527   9.833  0.0610  0.2374 -0.0942
  182loPI   C1A 2903   6.491  12.868   9.394 -0.0860  0.1656 -0.0458
  182loPI   C2A 2904   6.457  12.822   9.019 -0.2396  0.3048  0.0795
  182loPI   C3A 2905   6.225  12.975   8.700 -0.0656 -0.1721 -0.0556
  182loPI   C4A 2906   5.757  13.112   8.633  0.0257  0.0607 -0.2279
  182loPI   C5A 2907   5.371  13.315   8.533  0.2850  0.1494 -0.1974
  182loPI   C6A 2908   5.060  13.624   8.266  0.0073  0.1534  0.2089
  182loPI   C1B 2909   5.985  12.583   9.402  0.1389 -0.2195 -0.1034
  182loPI   C2B 2910   6.020  12.617   8.991 -0.0837  0.0583 -0.0923
  182loPI   C3B 2911   5.879  12.574   8.589 -0.1098  0.3053  0.1321
  182loPI   C4B 2912   5.825  12.327   8.288 -0.0671 -0.0347  0.0288
  183loPI    C1 2913  11.267  18.106  10.693 -0.0236  0.0478  0.2038
  183loPI    C2 2914  10.963  17.962  10.910 -0.0842 -0.0872  0.0319
  183loPI    C3 2915  11.322  18.015  11.078 -0.1848  0.0107  0.2190
  183loPI   PO4 2916  11.167  17.968  10.402 -0.1760 -0.1504  0.0052
  183loPI   GL1 2917  11.379  18.035   9.970 -0.1720 -0.2764  0.2938
  183loPI   GL2 2918  11.104  18.212   9.944 -0.0450 -0.2469  0.2034
  183loPI   C1A 2919  11.458  17.870   9.640 -0.4378  0.2746  0.0310
  183loPI   C2A 2920  11.527  17.730   9.206 -0.2692 -0.1096 -0.2600
  183loPI   C3A 2921  11.417  17.817   8.804  0.0681  0.1433  0.0042
  183loPI   C4A 2922  11.574  17.849   8.420  0.1728 -0.2250 -0.2000
  183loPI   C5A 2923  12.055  17.896   8.364 -0.5060 -0.0372  0.1854
  183loPI   C6A 2924  12.548  17.818   8.374 -0.2407 -0.0143  0.0806
  183loPI   C1B 2925  11.061  18.138   9.499 -0.0512 -0.0858 -0.0851
  183loPI   C2B 2926  11.187  18.100   9.158  0.1796 -0.1028  0.3298
  183loPI   C3B 2927  11.288  18.246   8.715  0.2490  0.0879  0.4208
  183loPI   C4B 2928  11.404  18.569   8.429 -0.0028 -0.1841  0.2700
  184loPI    C1 2929  16.671  14.069  10.789  0.0034 -0.0451  0.2907
  184loPI    C2 2930  17.043  14.138  10.660 -0.0800 -0.1669 -0.0235
  184loPI    C3 2931  16.977  13.864  10.944  0.0737 -0.1097  0.0687
  184loPI   PO4 2932  16.578  14.068  10.505 -0.0573  0.1539  0.0286
  184loPI   GL1 2933  16.654  13.760  10.218  0.2432  0.0955 -0.0470
  184loPI   GL2 2934  16.956  13.945  10.213 -0.1216 -0.0316 -0.4465
  184loPI   C1A 2935  16.586  13.790   9.824 -0.0893 -0.0640 -0.0448
  184loPI   C2A 2936  16.515  13.797   9.443 -0.1322 -0.2215  0.1009
  184loPI   C3A 2937  16.844  13.781   9.125 -0.1052  0.0151  0.1071
  184loPI   C4A 2938  16.957  13.617   8.699 -0.2861 -0.0697  0.2499
  184loPI   C5A 2939  16.715  13.706   8.338  0.1913 -0.1812  0.2962
  184loPI   C6A 2940  16.649  14.150   8.062  0.1930  0.0749 -0.1615
  184loPI   C1B 2941  17.007  14.167   9.749  0.1503 -0.0509  0.3071
  184loPI   C2B 2942  16.853  14.149   9.449 -0.4054  0.2385 -0.0123
  184loPI   C3B 2943  16.512  14.198   9.091  0.0967  0.2609  0.0898
  184loPI   C4B 2944  16.085  13.978   9.102 -0.3441  0.0570 -0.1132
  185loPI    C1 2945   5.077   8.816   9.963  0.2399  0.4057 -0.0008
  185loPI    C2 2946   5.089   8.436  10.087 -0.1253  0.4180  0.0857
  185loPI    C3 2947   5.378   8.691  10.194  0.1624  0.1498 -0.0349
  185loPI   PO4 2948   5.150   8.796   9.683 -0.0147  0.0082 -0.1334
  185loPI   GL1 2949   4.953   8.576   9.399 -0.1329  0.0096 -0.0565
  185loPI   GL2 2950   5.162   8.570   9.130 -0.1331 -0.1579 -0.2042
  185loPI   C1A 2951   4.590   8.794   9.106 -0.0404 -0.4181  0.1471
  185loPI   C2A 2952   4.681   8.783   8.599  0.1604 -0.1899 -0.1622
  185loPI   C3A 2953   4.701   8.825   8.138  0.4072 -0.1219  0.1221
  185loPI   C4A 2954   5.092   8.878   7.900  0.1166 -0.1644 -0.1726
  185loPI   C5A 2955   5.231   9.190   7.567  0.0317 -0.2028  0.0214
  185loPI   C6A 2956   5.373   9.448   7.028 -0.0870 -0.0620  0.0203
  185loPI   C1B 2957   5.092   8.482   8.699 -0.3281  0.2551 -0.1623
  185loPI   C2B 2958   5.269   8.101   8.402 -0.1148  0.3562 -0.1218
  185loPI   C3B 2959   5.218   7.882   8.058 -0.4600  0.1470 -0.2830
  185loPI   C4B 2960   5.231   7.807   7.609  0.0396 -0.1631  0.1967
  186loPI    C1 2961   4.257   9.235   9.996 -0.0923  0.1184  0.1797
  186loPI    C2 2962   4.521   8.988  10.167 -0.0730 -0.0108 -0.0333
  186loPI    C3 2963   4.303   9.235  10.394  0.1042 -0.0276  0.1586
  186loPI   PO4 2964   4.469   9.479   9.737  0.3015 -0.2330  0.1247
  186loPI   GL1 2965   4.463   9.472   9.291 -0.0884  0.2041 -0.0048
  186loPI   GL2 2966   4.245   9.205   9.355  0.2096 -0.2456  0.0536
  186loPI   C1A 2967   4.591   9.575   8.904  0.1374  0.2592  0.1982
  186loPI   C2A 2968   4.653   9.324   8.480 -0.1053  0.2950 -0.3231
  186loPI   C3A 2969   4.669   9.364   8.146  0.3368 -0.0824  0.0462
  186loPI   C4A 2970   4.636   9.133   7.743 -0.0212  0.0371 -0.1421
  186loPI   C5A 2971   4.709   8.707   7.575 -0.0116 -0.0910 -0.1654
  186loPI   C6A 2972   4.716   8.175   7.694  0.1395 -0.1234  0.3569
  186loPI   C1B 2973   4.285   9.197   8.859 -0.2467 -0.1719 -0.0395
  186loPI   C2B 2974   4.226   9.033   8.472  0.1033 -0.1016 -0.1944
  186loPI   C3B 2975   4.211   9.085   8.015  0.1723 -0.2188  0.1013
  186loPI   C4B 2976   4.192   9.054   7.620  0.4307  0.1608 -0.0737
  187loPI    C1 2977   6.780   5.104  10.392  0.0759  0.1739 -0.0942
  187loPI    C2 2978   6.867   5.494  10.387  0.2257  0.1401 -0.2184
  187loPI    C3 2979   7.065   5.248  10.633  0.0756  0.1541 -0.0820
  187loPI   PO4 2980   6.694   5.053  10.142  0.1645 -0.0436  0.0399
  187loPI   GL1 2981   6.827   4.687   9.755  0.0851 -0.0229  0.3969
  187loPI   GL2 2982   6.742   4.314   9.708 -0.0419  0.3852  0.1340
  187loPI   C1A 2983   6.590   4.964   9.545 -0.0153  0.1740  0.1545
  187loPI   C2A 2984   6.487   5.245   9.219 -0.0969 -0.1535 -0.5107
  187loPI   C3A 2985   6.518   5.243   8.781 -0.1713  0.0561 -0.0648
  187loPI   C4A 2986   6.671   5.203   8.417 -0.0419  0.0715 -0.2299
  187loPI   C5A 2987   6.523   5.271   7.963  0.1434  0.2135  0.0859
  187loPI   C6A 2988   6.692   5.235   7.467  0.2555  0.1067 -0.3886
  187loPI   C1B 2989   6.717   4.469   9.270 -0.1255 -0.1639  0.1010
  187loPI   C2B 2990   6.585   4.789   8.972  0.0702  0.2449  0.2275
  187loPI   C3B 2991   6.365   4.771   8.592 -0.1559  0.1749 -0.0312
  187loPI   C4B 2992   6.295   4.825   8.119 -0.1440 -0.0285 -0.4242
  188loPI    C1 2993   9.513  16.678  10.440 -0.0606 -0.0618  0.1272
  188loPI    C2 2994   9.808  16.704  10.710  0.0043 -0.0119  0.0522
  188loPI    C3 2995   9.558  17.012  10.655 -0.0417 -0.0418  0.0920
  188loPI   PO4 2996   9.532  16.438  10.409 -0.0083 -0.2649 -0.1104
  188loPI   GL1 2997   9.576  16.113  10.115 -0.2608 -0.4475  0.2243
  188loPI   GL2 2998   9.845  16.441   9.989  0.1136 -0.0828  0.0917
  188loPI   C1A 2999   9.568  15.890   9.677 -0.0467  0.1027  0.0266
  188loPI   C2A 3000   9.482  16.120   9.340 -0.0422 -0.1381 -0.0843
  188loPI   C3A 3001   9.408  16.276   8.895 -0.3461  0.1924 -0.0296
  188loPI   C4A 3002   9.159  16.250   8.558  0.0923 -0.1357 -0.0097
  188loPI   C5A 3003   8.876  15.980   8.387 -0.0665  0.0618  0.3529
  188loPI   C6A 3004   8.429  16.054   8.268 -0.1503 -0.2715  0.0444
  188loPI   C1B 3005   9.694  16.572   9.502  0.0462  0.0876  0.2338
  188loPI   C2B 3006   9.837  16.434   9.146  0.0395  0.0614  0.1654
  188loPI   C3B 3007   9.886  16.228   8.845 -0.0102 -0.0065  0.0570
  188loPI   C4B 3008  10.105  16.053   8.515 -0.0793  0.1394 -0.2104
  189loPI    C1 3009  10.123   0.661  10.498 -0.0409 -0.1776  0.3110
  189loPI    C2 3010   9.886   0.357  10.606  0.0555 -0.2779  0.2426
  189loPI    C3 3011  10.171   0.487  10.856  0.0737 -0.3038  0.2353
  189loPI   PO4 3012  10.143   0.597  10.263 -0.2005  0.0717  0.3812
  189loPI   GL1 3013  10.342   0.454   9.854  0.1167  0.0333  0.0571
  189loPI   GL2 3014  10.102   0.726   9.780  0.2799  0.0462 -0.1850
  189loPI   C1A 3015  10.491   0.788   9.478 -0.1576 -0.0270 -0.0051
  189loPI   C2A 3016  10.542   0.782   9.063 -0.0611 -0.1237 -0.0711
  189loPI   C3A 3017  10.727   0.578   8.649  0.0140 -0.1012  0.3775
  189loPI   C4A 3018  10.873   0.281   8.546  0.0111 -0.1663  0.1432
  189loPI   C5A 3019  10.977   0.040   8.224 -0.0553 -0.1644 -0.5052
  189loPI   C6A 3020  11.250  -0.310   8.031 -0.1815  0.1107 -0.2893
  189loPI   C1B 3021  10.044   0.444   9.425  0.0312  0.0939 -0.1740
  189loPI   C2B 3022  10.087   0.536   9.016 -0.0656  0.3439 -0.0092
  189loPI   C3B 3023  10.247   0.671   8.639 -0.0251 -0.0099  0.1781
  189loPI   C4B 3024  10.023   0.537   8.294  0.3647 -0.0278  0.1241
  190loPI    C1 3025   8.286  17.488  10.288 -0.1046 -0.1564 -0.0091
  190loPI    C2 3026   8.112  17.224  10.532 -0.0899  0.0560  0.2347
  190loPI    C3 3027   8.064  17.616  10.595  0.1957  0.1146  0.1006
  190loPI   PO4 3028   8.232  17.360  10.040 -0.0930 -0.1868 -0.1070
  190loPI   GL1 3029   8.475  17.365   9.631  0.1630  0.0323 -0.0178
  190loPI   GL2 3030   8.336  17.679   9.649  0.2385 -0.5344  0.1292
  190loPI   C1A 3031   8.686  17.362   9.228 -0.2878  0.0980 -0.1454
  190loPI   C2A 3032   8.914  17.472   8.896  0.0193 -0.2269 -0.0758
  190loPI   C3A 3033   9.130  17.559   8.520 -0.0602 -0.2408 -0.0145
  190loPI   C4A 3034   9.167  17.511   8.156  0.0980 -0.0763 -0.0304
  190loPI   C5A 3035   9.359  17.739   7.847 -0.2711 -0.0222 -0.0905
  190loPI   C6A 3036   9.239  18.164   7.845  0.0125  0.0708 -0.0234
  190loPI   C1B 3037   8.148  17.552   9.261 -0.3735  0.0092  0.3294
  190loPI   C2B 3038   8.050  17.437   8.853  0.2068  0.1246  0.1002
  190loPI   C3B 3039   7.813  17.519   8.587  0.0804 -0.1780  0.0300
  190loPI   C4B 3040   7.699  17.459   8.117 -0.1869 -0.1243  0.1555
  191loPI    C1 3041  13.957   8.088  11.032 -0.0843  0.1894  0.2626
  191loPI    C2 3042  13.963   7.688  11.047  0.1580  0.1692 -0.1849
  191loPI    C3 3043  13.711   7.893  11.280  0.2243 -0.2286  0.2523
  191loPI   PO4 3044  13.931   8.072  10.690 -0.2215  0.2083 -0.1996
  191loPI   GL1 3045  14.096   7.898  10.310 -0.1569  0.0624 -0.0276
  191loPI   GL2 3046  14.430   7.820  10.192  0.0057 -0.1631  0.0694
  191loPI   C1A 3047  13.905   7.830  10.024  0.0771  0.0145 -0.1075
  191loPI   C2A 3048  13.862   7.929   9.613 -0.1088 -0.1736  0.4089
  191loPI   C3A 3049  13.713   8.188   9.195  0.0959  0.1381  0.0946
  191loPI   C4A 3050  13.740   8.306   8.777  0.1003 -0.1093 -0.1554
  191loPI   C5A 3051  13.882   8.686   8.520 -0.1351 -0.0400  0.0241
  191loPI   C6A 3052  14.007   8.935   8.168 -0.2057 -0.0580  0.0051
  191loPI   C1B 3053  14.324   8.012   9.801  0.0476 -0.0475  0.0052
  191loPI   C2B 3054  14.376   7.974   9.413  0.0457 -0.0412  0.1260
  191loPI   C3B 3055  14.148   7.965   9.039  0.4100 -0.1369 -0.1104
  191loPI   C4B 3056  13.899   7.746   8.717 -0.2429 -0.0990 -0.0937
  192loPI    C1 3057   4.149  17.376  10.644  0.0643 -0.0975 -0.0164
  192loPI    C2 3058   4.393  17.658  10.499  0.1829 -0.1410  0.0963
  192loPI    C3 3059   4.069  17.763  10.708  0.0097 -0.0780 -0.1981
  192loPI   PO4 3060   4.060  17.286  10.404 -0.0539 -0.0599  0.3075
  192loPI   GL1 3061   4.087  17.462  10.010 -0.0725 -0.5309 -0.2969
  192loPI   GL2 3062   4.096  17.820  10.037 -0.0352 -0.1342  0.1858
  192loPI   C1A 3063   3.933  17.255   9.613 -0.0639  0.2285 -0.3072
  192loPI   C2A 3064   3.880  17.028   9.141  0.1173  0.0766  0.1033
  192loPI   C3A 3065   3.787  16.991   8.639 -0.1575 -0.1239  0.3624
  192loPI   C4A 3066   3.853  17.167   8.174 -0.0261  0.1113 -0.1228
  192loPI   C5A 3067   3.955  17.064   7.761  0.2518  0.1021  0.0879
  192loPI   C6A 3068   4.155  17.286   7.367  0.1683 -0.1819 -0.0803
  192loPI   C1B 3069   4.354  17.609   9.644  0.1445 -0.5418 -0.1294
  192loPI   C2B 3070   4.436  17.795   9.306  0.1797  0.0257  0.2457
  192loPI   C3B 3071   4.417  18.018   9.011  0.2475  0.2014 -0.2589
  192loPI   C4B 3072   4.201  18.077   8.652  0.0479  0.0413 -0.3843
  193loPI    C1 3073   2.273   4.279  10.070 -0.0454  0.1458 -0.0208
  193loPI    C2 3074   1.973   4.346  10.326 -0.0554 -0.0954  0.0331
  193loPI    C3 3075   2.278   4.112  10.434  0.1661  0.1677 -0.0128
  193loPI   PO4 3076   2.365   4.524   9.950 -0.0570 -0.1299  0.0598
  193loPI   GL1 3077   2.276   4.619   9.486 -0.1586 -0.0071 -0.2587
  193loPI   GL2 3078   2.468   4.380   9.445  0.0822 -0.3524  0.0615
  193loPI   C1A 3079   2.238   4.565   9.006  0.1207  0.3466 -0.1363
  193loPI   C2A 3080   2.318   4.632   8.635 -0.1209 -0.1358  0.3317
  193loPI   C3A 3081   2.277   4.727   8.236 -0.0664 -0.0664  0.0215
  193loPI   C4A 3082   2.367   4.547   7.814  0.2798  0.2968  0.3244
  193loPI   C5A 3083   2.756   4.261   7.845  0.0114  0.1003  0.3340
  193loPI   C6A 3084   2.904   3.779   7.965  0.1407 -0.1403  0.0730
  193loPI   C1B 3085   2.699   4.502   9.186  0.1142 -0.1703 -0.3982
  193loPI   C2B 3086   2.759   4.397   8.704 -0.1488 -0.3396 -0.1451
  193loPI   C3B 3087   2.520   4.267   8.344 -0.1251  0.2447 -0.0364
  193loPI   C4B 3088   2.319   3.995   7.987 -0.3215  0.2120  0.1747
  194loPI    C1 3089  14.693   6.788  10.798  0.2246 -0.0847 -0.0018
  194loPI    C2 3090  14.958   6.821  11.096  0.0310  0.1646  0.1472
  194loPI    C3 3091  14.568   6.869  11.169 -0.0198  0.2175 -0.1458
  194loPI   PO4 3092  14.789   6.848  10.633  0.0027  0.2702 -0.2022
  194loPI   GL1 3093  14.719   7.087  10.185  0.1323 -0.1922  0.5175
  194loPI   GL2 3094  14.388   6.834  10.275  0.0166 -0.1832 -0.1982
  194loPI   C1A 3095  14.874   7.096   9.730 -0.1634 -0.2791 -0.0425
  194loPI   C2A 3096  15.005   6.922   9.408 -0.1577  0.0311 -0.1680
  194loPI   C3A 3097  14.936   6.745   8.920 -0.0014 -0.3255 -0.1624
  194loPI   C4A 3098  14.868   6.292   8.805 -0.1096  0.0232 -0.0209
  194loPI   C5A 3099  14.879   6.137   8.388  0.2912  0.0788 -0.1070
  194loPI   C6A 3100  15.227   5.878   8.228 -0.1802  0.1523 -0.1082
  194loPI   C1B 3101  14.354   6.886   9.840 -0.3297  0.0905  0.0458
  194loPI   C2B 3102  14.482   6.996   9.431  0.0059 -0.2254  0.1223
  194loPI   C3B 3103  14.277   7.213   9.078 -0.1436 -0.0422 -0.1437
  194loPI   C4B 3104  14.026   7.171   8.710 -0.1614  0.4008  0.1707
  195loPI    C1 3105  14.782  11.181  10.678 -0.0136 -0.2100  0.1807
  195loPI    C2 3106  14.752  11.552  10.825  0.2614 -0.1724  0.1473
  195loPI    C3 3107  14.536  11.255  10.984 -0.1565  0.0485  0.0063
  195loPI   PO4 3108  14.724  11.225  10.356 -0.0780 -0.1188  0.2700
  195loPI   GL1 3109  14.692  11.196   9.926 -0.1810 -0.0530  0.1349
  195loPI   GL2 3110  14.887  11.485   9.822  0.1230 -0.1081  0.1669
  195loPI   C1A 3111  14.636  11.123   9.465  0.0147 -0.3999  0.4494
  195loPI   C2A 3112  14.535  11.382   9.104  0.0253 -0.3129  0.2931
  195loPI   C3A 3113  14.526  11.542   8.757 -0.0828  0.0464 -0.1019
  195loPI   C4A 3114  14.546  11.849   8.481  0.0056  0.0769 -0.0119
  195loPI   C5A 3115  14.879  12.011   8.199 -0.0704  0.3390  0.0375
  195loPI   C6A 3116  15.195  12.242   7.934  0.0468 -0.2832 -0.1070
  195loPI   C1B 3117  14.928  11.557   9.440  0.0617  0.1323 -0.0855
  195loPI   C2B 3118  14.943  11.638   9.056 -0.3527 -0.0288  0.1082
  195loPI   C3B 3119  14.967  11.997   8.767  0.0764 -0.2050 -0.0021
  195loPI   C4B 3120  14.641  12.286   8.765  0.1467 -0.2682 -0.0580
  196loPI    C1 3121  12.706  12.675  10.511  0.1276  0.3013 -0.2468
  196loPI    C2 3122  12.416  12.783  10.764  0.1514 -0.6141  0.2136
  196loPI    C3 3123  12.787  12.924  10.813 -0.0152 -0.1465  0.1753
  196loPI   PO4 3124  12.637  12.691  10.225 -0.1131 -0.0607 -0.0255
  196loPI   GL1 3125  12.662  12.832   9.935 -0.1262  0.0089 -0.1279
  196loPI   GL2 3126  12.566  13.100   9.870 -0.3550  0.0937  0.3093
  196loPI   C1A 3127  12.719  12.718   9.560 -0.1369 -0.1618 -0.1440
  196loPI   C2A 3128  12.858  12.678   9.113  0.1844 -0.0370  0.0181
  196loPI   C3A 3129  12.995  12.857   8.765  0.2137  0.0502  0.1359
  196loPI   C4A 3130  13.067  12.939   8.313 -0.0108 -0.1157  0.2541
  196loPI   C5A 3131  12.736  12.993   7.980 -0.0151  0.0859 -0.0297
  196loPI   C6A 3132  12.700  13.371   7.764  0.0312  0.0499  0.0954
  196loPI   C1B 3133  12.734  13.169   9.435 -0.0679  0.2178  0.2423
  196loPI   C2B 3134  12.768  13.184   9.015  0.2656 -0.0377  0.0748
  196loPI   C3B 3135  12.607  13.156   8.599 -0.0481 -0.5961  0.1670
  196loPI   C4B 3136  12.623  13.525   8.277 -0.0445 -0.0603 -0.2908
  197loPI    C1 3137   7.821  14.406  10.371  0.0993 -0.1916  0.1404
  197loPI    C2 3138   7.444  14.321  10.475  0.1703 -0.2239  0.3778
  197loPI    C3 3139   7.566  14.702  10.460  0.0126 -0.1849 -0.1202
  197loPI   PO4 3140   7.862  14.260  10.176  0.4974 -0.1340  0.4695
  197loPI   GL1 3141   8.212  14.175   9.866  0.0566 -0.2261  0.0559
  197loPI   GL2 3142   8.253  13.932  10.003  0.0640  0.2066 -0.0678
  197loPI   C1A 3143   8.342  14.030   9.469  0.0486 -0.3475  0.3406
  197loPI   C2A 3144   8.327  14.115   8.956  0.4192  0.2055  0.0229
  197loPI   C3A 3145   8.401  13.995   8.548  0.1153 -0.1274  0.0083
  197loPI   C4A 3146   8.287  13.711   8.308 -0.2007  0.1547 -0.1392
  197loPI   C5A 3147   8.338  13.391   7.994  0.0463  0.1527 -0.1169
  197loPI   C6A 3148   8.291  13.037   7.684  0.2641 -0.2236  0.0107
  197loPI   C1B 3149   8.335  13.653   9.708  0.1675  0.1132 -0.1363
  197loPI   C2B 3150   8.373  13.579   9.196 -0.1152  0.3087 -0.0544
  197loPI   C3B 3151   8.383  13.480   8.737 -0.0335 -0.1315  0.0243
  197loPI   C4B 3152   8.284  13.177   8.400  0.0474  0.0225  0.0206
  198loPI    C1 3153   3.197  12.025  10.634  0.0895 -0.2453 -0.2419
  198loPI    C2 3154   3.555  11.938  10.789 -0.0778 -0.1867  0.1932
  198loPI    C3 3155   3.262  11.666  10.798 -0.0883 -0.1847 -0.0333
  198loPI   PO4 3156   3.273  12.076  10.350 -0.2113 -0.0140  0.0212
  198loPI   GL1 3157   3.510  12.278  10.076  0.1632 -0.2353 -0.0673
  198loPI   GL2 3158   3.780  12.402   9.966  0.2483 -0.2170 -0.1713
  198loPI   C1A 3159   3.213  12.542   9.823 -0.0805  0.0304  0.1002
  198loPI   C2A 3160   3.037  12.660   9.508 -0.1069  0.0947  0.0749
  198loPI   C3A 3161   3.108  12.474   9.048 -0.1223 -0.1292  0.0111
  198loPI   C4A 3162   3.067  12.499   8.714 -0.0824 -0.1121  0.1784
  198loPI   C5A 3163   3.039  12.510   8.198  0.0661  0.1356 -0.3155
  198loPI   C6A 3164   3.178  12.970   8.109  0.0142 -0.0557 -0.2893
  198loPI   C1B 3165   3.668  12.348   9.545  0.2821 -0.3063  0.1819
  198loPI   C2B 3166   3.767  12.372   9.086  0.2490  0.0174 -0.2758
  198loPI   C3B 3167   3.572  12.399   8.627  0.0522  0.1813  0.1830
  198loPI   C4B 3168   3.570  12.584   8.269  0.0325  0.3171  0.3325
  199loPI    C1 3169  10.529  11.396  10.312 -0.1320 -0.1260  0.2512
  199loPI    C2 3170  10.688  11.236  10.642 -0.0208 -0.0791  0.2210
  199loPI    C3 3171  10.304  11.169  10.552 -0.0774 -0.0140  0.4096
  199loPI   PO4 3172  10.723  11.449  10.168 -0.5447 -0.0334 -0.3781
  199loPI   GL1 3173  10.683  11.568   9.759 -0.0742 -0.0769  0.0312
  199loPI   GL2 3174  10.982  11.406   9.647 -0.3132 -0.1680  0.0662
  199loPI   C1A 3175  10.645  11.654   9.345 -0.0086  0.1710 -0.0643
  199loPI   C2A 3176  10.694  11.567   8.948  0.3875 -0.3436 -0.0291
  199loPI   C3A 3177  10.789  11.585   8.552  0.0415  0.2507 -0.6812
  199loPI   C4A 3178  10.737  11.643   8.203 -0.2207  0.4053  0.0051
  199loPI   C5A 3179  10.740  11.910   7.876 -0.0144  0.1773  0.2797
  199loPI   C6A 3180  10.892  12.285   7.772  0.3505  0.1951  0.0795
  199loPI   C1B 3181  11.136  11.493   9.233  0.0133 -0.2617 -0.3291
  199loPI   C2B 3182  11.208  11.407   8.810  0.3248 -0.0944 -0.1572
  199loPI   C3B 3183  11.262  11.483   8.502 -0.0496  0.0565 -0.0692
  199loPI   C4B 3184  11.308  11.284   8.164 -0.2321 -0.1948 -0.1114
  200loPI    C1 3185   6.563  17.991  10.203  0.2583 -0.2504  0.2759
  200loPI    C2 3186   6.384  17.645  10.115 -0.3334  0.1383 -0.1195
  200loPI    C3 3187   6.184  17.930  10.312  0.0716  0.3450  0.0043
  200loPI   PO4 3188   6.565  18.107   9.913  0.1095  0.1224 -0.0865
  200loPI   GL1 3189   6.391  17.949   9.449  0.0011 -0.0414  0.0521
  200loPI   GL2 3190   6.553  17.981   9.205  0.1301 -0.1889  0.1289
  200loPI   C1A 3191   6.107  17.841   9.117  0.1726  0.0349  0.2212
  200loPI   C2A 3192   5.922  17.888   8.727 -0.4073  0.0041  0.0000
  200loPI   C3A 3193   5.953  17.736   8.226  0.0983 -0.2108 -0.2793
  200loPI   C4A 3194   5.737  17.576   7.898 -0.2465  0.1195  0.3027
  200loPI   C5A 3195   5.840  17.337   7.623  0.1036  0.1829 -0.0238
  200loPI   C6A 3196   6.177  17.317   7.360  0.0041 -0.0004  0.0650
  200loPI   C1B 3197   6.486  17.956   8.744  0.0627 -0.1253 -0.0018
  200loPI   C2B 3198   6.407  17.985   8.273 -0.4819  0.0003 -0.3697
  200loPI   C3B 3199   6.306  18.042   7.888  0.3229 -0.0959  0.1199
  200loPI   C4B 3200   6.613  18.057   7.521  0.3639  0.0464 -0.2245
  201loPI    C1 3201   8.818   9.616   9.701  0.0519 -0.0108 -0.0742
  201loPI    C2 3202   8.871   9.724  10.083 -0.0822 -0.0710 -0.0379
  201loPI    C3 3203   9.072   9.411   9.933  0.2566  0.1817 -0.1246
  201loPI   PO4 3204   8.854   9.784   9.559  0.1305  0.2940  0.2701
  201loPI   GL1 3205   8.940   9.736   9.112 -0.2253 -0.1098 -0.2276
  201loPI   GL2 3206   8.715  10.019   9.131  0.0335  0.1217  0.1285
  201loPI   C1A 3207   9.256   9.926   8.796 -0.1747  0.0300  0.0773
  201loPI   C2A 3208   9.506  10.054   8.474 -0.1361 -0.0400 -0.0270
  201loPI   C3A 3209   9.584  10.504   8.306 -0.0476 -0.1651  0.0316
  201loPI   C4A 3210   9.581  10.899   8.032  0.1187 -0.0073  0.0821
  201loPI   C5A 3211   9.683  11.026   7.672 -0.0734 -0.0126  0.0725
  201loPI   C6A 3212   9.645  10.813   7.323 -0.1384 -0.0833 -0.0244
  201loPI   C1B 3213   8.966  10.296   8.879  0.2026  0.1416 -0.2608
  201loPI   C2B 3214   9.070  10.366   8.525 -0.3087 -0.0759 -0.3590
  201loPI   C3B 3215   9.229  10.253   8.085 -0.0979 -0.3819 -0.1326
  201loPI   C4B 3216   9.461  10.485   7.726 -0.3022 -0.0794  0.0072
  202loPI    C1 3217  15.080   2.498  10.584 -0.1173  0.1565 -0.2351
  202loPI    C2 3218  15.453   2.555  10.718 -0.1417  0.0404 -0.1149
  202loPI    C3 3219  15.174   2.836  10.777 -0.1554 -0.0147  0.0917
  202loPI   PO4 3220  15.130   2.225  10.558 -0.1474 -0.3649  0.1800
  202loPI   GL1 3221  15.006   1.992  10.274 -0.1972 -0.1535  0.0108
  202loPI   GL2 3222  14.742   2.261  10.219  0.1027  0.5517  0.2963
  202loPI   C1A 3223  15.103   2.039   9.813  0.0084  0.0990  0.0093
  202loPI   C2A 3224  15.020   2.228   9.413 -0.0054 -0.2887 -0.0492
  202loPI   C3A 3225  14.952   2.384   9.017 -0.0481  0.0632  0.1862
  202loPI   C4A 3226  14.715   2.284   8.653 -0.4826 -0.3273  0.0101
  202loPI   C5A 3227  14.574   2.411   8.267  0.0200  0.0181 -0.2855
  202loPI   C6A 3228  14.388   2.520   7.855  0.1046 -0.0706 -0.0374
  202loPI   C1B 3229  14.605   2.294   9.840 -0.0690  0.1964  0.0185
  202loPI   C2B 3230  14.444   2.438   9.431 -0.2725  0.0018  0.0484
  202loPI   C3B 3231  14.414   2.573   8.977 -0.2842  0.1531  0.0896
  202loPI   C4B 3232  14.283   2.506   8.650  0.0048 -0.0289  0.0219
  203loPI    C1 3233   6.409   8.899  10.050  0.0762  0.0991 -0.2675
  203loPI    C2 3234   6.185   9.119   9.802 -0.2087  0.1402  0.0209
  203loPI    C3 3235   6.340   9.285  10.131 -0.2371 -0.0326  0.1228
  203loPI   PO4 3236   6.516   8.742   9.857 -0.0520  0.3348 -0.1507
  203loPI   GL1 3237   6.870   8.838   9.503 -0.1258 -0.1550 -0.0653
  203loPI   GL2 3238   7.012   8.595   9.536  0.3260 -0.1944 -0.3002
  203loPI   C1A 3239   6.741   8.762   9.137 -0.2917 -0.0348 -0.0991
  203loPI   C2A 3240   6.570   8.816   8.760 -0.1106  0.0413 -0.0764
  203loPI   C3A 3241   6.583   8.716   8.347  0.1654 -0.0597  0.3767
  203loPI   C4A 3242   6.628   8.641   7.916  0.0246 -0.0017  0.0243
  203loPI   C5A 3243   6.703   8.300   7.752  0.3592  0.0611 -0.0503
  203loPI   C6A 3244   6.573   7.797   7.753 -0.3313 -0.1142  0.0869
  203loPI   C1B 3245   7.205   8.487   9.141 -0.1850 -0.1759 -0.1367
  203loPI   C2B 3246   7.333   8.638   8.775 -0.0464 -0.0271  0.3992
  203loPI   C3B 3247   7.418   8.762   8.255  0.5759  0.2647 -0.0482
  203loPI   C4B 3248   7.365   9.101   7.915  0.1620 -0.0252 -0.0215
  204loPI    C1 3249   3.997  13.680  10.350  0.2666 -0.0472  0.3043
  204loPI    C2 3250   3.765  13.791  10.656  0.1947  0.0295  0.2225
  204loPI    C3 3251   4.089  13.566  10.722  0.0728 -0.1157  0.3322
  204loPI   PO4 3252   3.932  13.818  10.075  0.4677 -0.0913 -0.2011
  204loPI   GL1 3253   3.807  13.774   9.646  0.2270  0.0965  0.1823
  204loPI   GL2 3254   3.509  14.016   9.736 -0.0168 -0.1869 -0.2387
  204loPI   C1A 3255   3.653  13.793   9.211 -0.0500 -0.0257 -0.2800
  204loPI   C2A 3256   3.567  13.943   8.769  0.0176 -0.0921 -0.1038
  204loPI   C3A 3257   3.533  14.170   8.427 -0.0888  0.0026 -0.2437
  204loPI   C4A 3258   3.361  14.157   8.009 -0.1066 -0.1686 -0.1832
  204loPI   C5A 3259   3.039  14.174   7.681 -0.0869  0.2147  0.2482
  204loPI   C6A 3260   2.793  14.346   7.457 -0.0891  0.0167  0.0094
  204loPI   C1B 3261   3.408  14.542   9.591 -0.1297  0.0154 -0.0017
  204loPI   C2B 3262   3.441  14.767   9.139  0.1609  0.0280 -0.2496
  204loPI   C3B 3263   3.399  14.999   8.695  0.0596 -0.3417 -0.0278
  204loPI   C4B 3264   3.666  15.098   8.214  0.1025 -0.0338 -0.1105
  205loPI    C1 3265   3.605   6.581  10.281 -0.0355 -0.0561  0.1359
  205loPI    C2 3266   3.798   6.931  10.282 -0.2090  0.0422 -0.0306
  205loPI    C3 3267   3.487   6.873  10.527 -0.3735  0.1163 -0.2189
  205loPI   PO4 3268   3.622   6.535  10.046  0.0776 -0.0151  0.0307
  205loPI   GL1 3269   3.926   6.616   9.741 -0.3894 -0.1007  0.0078
  205loPI   GL2 3270   3.894   6.238   9.736 -0.3060  0.1081  0.1238
  205loPI   C1A 3271   3.701   6.584   9.391  0.3562 -0.2230 -0.2642
  205loPI   C2A 3272   3.775   6.594   8.966  0.0548  0.4509 -0.1393
  205loPI   C3A 3273   3.698   6.496   8.556 -0.1538 -0.2065  0.1764
  205loPI   C4A 3274   3.647   6.360   8.089 -0.0217  0.4194  0.0539
  205loPI   C5A 3275   3.631   6.431   7.615  0.0635  0.2439 -0.1688
  205loPI   C6A 3276   3.477   6.738   7.331 -0.3258  0.0863  0.1525
  205loPI   C1B 3277   3.821   6.065   9.291  0.0795 -0.2245 -0.2204
  205loPI   C2B 3278   3.736   6.050   8.904  0.4505 -0.1036  0.3935
  205loPI   C3B 3279   3.460   6.013   8.549 -0.1292 -0.0887  0.0333
  205loPI   C4B 3280   3.535   5.901   8.172 -0.1187 -0.1088 -0.1378
  206loPI    C1 3281  14.739  18.223  10.830 -0.1907 -0.0806 -0.3157
  206loPI    C2 3282  14.823  17.997  10.512  0.0678 -0.2692 -0.1181
  206loPI    C3 3283  14.948  17.885  10.875  0.0967  0.1314 -0.0001
  206loPI   PO4 3284  14.783  18.476  10.663  0.2370 -0.1245  0.1697
  206loPI   GL1 3285  14.562  18.687  10.286 -0.2263  0.0741  0.2033
  206loPI   GL2 3286  14.358  18.845   9.957  0.0925 -0.2047 -0.2521
  206loPI   C1A 3287  14.728  18.544   9.924 -0.2157  0.2004 -0.1663
  206loPI   C2A 3288  14.759  18.644   9.497  0.0178  0.0471 -0.2143
  206loPI   C3A 3289  14.746  18.619   9.026  0.0941 -0.0608  0.2046
  206loPI   C4A 3290  14.655  18.581   8.645  0.1664  0.1741  0.0559
  206loPI   C5A 3291  14.301  18.628   8.320 -0.1684 -0.4124 -0.2699
  206loPI   C6A 3292  14.241  18.837   7.981  0.4164 -0.1924  0.0552
  206loPI   C1B 3293  14.310  18.851   9.515 -0.0523 -0.2007 -0.1290
  206loPI   C2B 3294  14.330  18.882   9.104  0.0518 -0.0042 -0.2513
  206loPI   C3B 3295  14.210  18.804   8.768  0.0421  0.2511  0.1064
  206loPI   C4B 3296  13.977  18.969   8.458  0.1720  0.0562  0.0968
  207loPI    C1 3297  17.156   2.408  10.702  0.2062  0.1588 -0.0598
  207loPI    C2 3298  17.295   2.514  11.062  0.0176 -0.2891  0.1532
  207loPI    C3 3299  17.538   2.339  10.797  0.1353 -0.0366  0.0913
  207loPI   PO4 3300  17.037   2.632  10.585 -0.0190  0.2693 -0.1109
  207loPI   GL1 3301  16.729   2.561  10.283  0.0125 -0.0501 -0.1984
  207loPI   GL2 3302  16.818   2.882  10.197  0.2768 -0.1505  0.1859
  207loPI   C1A 3303  17.012   2.536   9.831  0.0592 -0.1674 -0.1552
  207loPI   C2A 3304  16.878   2.655   9.425 -0.1574 -0.1908 -0.0174
  207loPI   C3A 3305  16.703   2.660   8.966 -0.2698 -0.2338  0.0439
  207loPI   C4A 3306  16.737   2.669   8.441  0.0642  0.0113  0.2479
  207loPI   C5A 3307  16.644   2.447   8.083 -0.2504  0.0249  0.0366
  207loPI   C6A 3308  16.696   1.955   8.029 -0.0443 -0.2032  0.0469
  207loPI   C1B 3309  16.808   3.033   9.720 -0.1668  0.2267 -0.0789
  207loPI   C2B 3310  16.855   3.111   9.291 -0.1159  0.0413  0.2551
  207loPI   C3B 3311  16.984   3.082   8.900  0.3185 -0.3561 -0.0147
  207loPI   C4B 3312  16.910   3.109   8.462  0.2228  0.0551 -0.1600
  208loPI    C1 3313   3.402  11.296  10.453 -0.0774 -0.1265  0.0484
  208loPI    C2 3314   3.793  11.249  10.384 -0.0531  0.0397  0.0689
  208loPI    C3 3315   3.668  11.386  10.739 -0.1344 -0.0799  0.0869
  208loPI   PO4 3316   3.320  11.393  10.234 -0.0130  0.1513 -0.2406
  208loPI   GL1 3317   3.395  11.255   9.848 -0.0561  0.0018 -0.2016
  208loPI   GL2 3318   3.598  11.477   9.800 -0.1224  0.1797 -0.0579
  208loPI   C1A 3319   3.031  11.355   9.570 -0.0184 -0.0749  0.2597
  208loPI   C2A 3320   2.947  11.267   9.061 -0.1868 -0.1252 -0.0085
  208loPI   C3A 3321   2.863  11.512   8.698 -0.2562  0.2952  0.1489
  208loPI   C4A 3322   2.898  11.702   8.312 -0.1336  0.1905 -0.0416
  208loPI   C5A 3323   2.835  11.926   8.011 -0.1035  0.0097 -0.2270
  208loPI   C6A 3324   2.880  11.879   7.544  0.0002  0.5350 -0.2077
  208loPI   C1B 3325   3.547  11.566   9.392 -0.0825  0.0917 -0.0057
  208loPI   C2B 3326   3.438  11.369   9.022 -0.4112  0.2827  0.1726
  208loPI   C3B 3327   3.387  11.397   8.579  0.2358 -0.0422  0.0871
  208loPI   C4B 3328   3.262  11.466   8.143 -0.1081  0.1747  0.3561
  209loPI    C1 3329  12.122   7.206  10.439  0.1253 -0.0186 -0.1873
  209loPI    C2 3330  12.092   7.605  10.431 -0.0119 -0.0255 -0.0626
  209loPI    C3 3331  11.826   7.389  10.637 -0.0540 -0.1940 -0.2894
  209loPI   PO4 3332  12.336   7.110  10.487  0.0108  0.1141  0.0247
  209loPI   GL1 3333  12.611   7.194  10.125 -0.0146 -0.0199  0.0878
  209loPI   GL2 3334  12.944   7.422  10.049  0.0146 -0.1861  0.1730
  209loPI   C1A 3335  12.593   7.130   9.612 -0.0951 -0.0077 -0.0841
  209loPI   C2A 3336  12.447   7.106   9.191  0.2887  0.2077  0.1037
  209loPI   C3A 3337  12.673   6.960   8.876 -0.1137 -0.1991  0.3315
  209loPI   C4A 3338  12.767   6.719   8.537  0.1725 -0.0139 -0.0200
  209loPI   C5A 3339  12.685   6.421   8.210 -0.1410  0.1981  0.1771
  209loPI   C6A 3340  12.881   6.028   8.186  0.0806 -0.3021 -0.1158
  209loPI   C1B 3341  12.811   7.687   9.687 -0.0910  0.1054  0.2324
  209loPI   C2B 3342  12.773   7.756   9.308 -0.1962 -0.1368 -0.2796
  209loPI   C3B 3343  12.865   7.739   8.843 -0.0363  0.0446 -0.1121
  209loPI   C4B 3344  12.997   7.629   8.443  0.0501  0.0353  0.2073
  210loPI    C1 3345   0.140  13.484  10.680  0.0705  0.1107  0.1077
  210loPI    C2 3346   0.469  13.540  10.459 -0.1307  0.1672 -0.1824
  210loPI    C3 3347   0.270  13.855  10.607 -0.1134  0.1373 -0.0948
  210loPI   PO4 3348   0.002  13.303  10.514 -0.2555 -0.1085 -0.1274
  210loPI   GL1 3349   0.276  13.067  10.107  0.2796  0.0149  0.0405
  210loPI   GL2 3350   0.440  12.835  10.091 -0.3825 -0.0335  0.1545
  210loPI   C1A 3351   0.218  12.998   9.650  0.0039  0.0237  0.1903
  210loPI   C2A 3352   0.272  12.900   9.246 -0.0048  0.2418  0.1987
  210loPI   C3A 3353   0.362  12.826   8.839 -0.1242 -0.0287 -0.3051
  210loPI   C4A 3354   0.541  12.875   8.357 -0.0232 -0.1903 -0.0414
  210loPI   C5A 3355   0.774  12.602   8.205  0.2795  0.2346  0.1533
  210loPI   C6A 3356   1.215  12.339   8.355 -0.1156  0.1653 -0.1396
  210loPI   C1B 3357   0.382  12.539   9.754 -0.0498  0.3633  0.1312
  210loPI   C2B 3358   0.575  12.389   9.462 -0.1942 -0.3276 -0.0291
  210loPI   C3B 3359   0.458  12.367   8.989  0.0526  0.0381  0.0316
  210loPI   C4B 3360   0.632  12.250   8.646  0.2573  0.0612  0.1379
  211loPI    C1 3361  12.844   6.633  10.248  0.1152 -0.0462 -0.1656
  211loPI    C2 3362  12.864   6.438  10.597  0.1579  0.1348 -0.0654
  211loPI    C3 3363  13.140   6.712  10.505  0.0540  0.2056 -0.1701
  211loPI   PO4 3364  12.576   6.641  10.246  0.2706  0.2020  0.0401
  211loPI   GL1 3365  12.296   6.839   9.987  0.0219  0.2523  0.1437
  211loPI   GL2 3366  12.216   6.641   9.767  0.0837 -0.1745  0.0424
  211loPI   C1A 3367  12.039   7.083   9.661  0.0449 -0.1126  0.0035
  211loPI   C2A 3368  11.944   7.189   9.130  0.3767  0.1633 -0.0258
  211loPI   C3A 3369  11.934   7.249   8.686 -0.1171  0.1289 -0.0393
  211loPI   C4A 3370  11.842   7.482   8.436  0.0662 -0.0667 -0.1974
  211loPI   C5A 3371  11.800   7.895   8.142 -0.3747 -0.2647  0.2554
  211loPI   C6A 3372  11.964   8.312   8.095  0.2330  0.0432 -0.4924
  211loPI   C1B 3373  12.111   6.718   9.367  0.0052  0.0151 -0.2126
  211loPI   C2B 3374  12.166   6.804   8.902 -0.1553 -0.1278  0.0340
  211loPI   C3B 3375  12.310   6.938   8.566 -0.1310 -0.0186 -0.0152
  211loPI   C4B 3376  12.343   6.886   8.146  0.1524  0.0216 -0.1690
  212loPI    C1 3377  15.203   8.186  10.765  0.0460 -0.1110 -0.1267
  212loPI    C2 3378  15.281   8.544  10.606 -0.0634 -0.0378 -0.0177
  212loPI    C3 3379  15.250   8.505  11.003 -0.2132 -0.1360 -0.0386
  212loPI   PO4 3380  15.037   8.082  10.732  0.1019  0.1616 -0.4592
  212loPI   GL1 3381  14.873   7.994  10.307 -0.0005 -0.1881 -0.2730
  212loPI   GL2 3382  14.919   7.661  10.124 -0.0966 -0.2869 -0.1797
  212loPI   C1A 3383  14.855   8.086   9.766 -0.2357 -0.0241 -0.2880
  212loPI   C2A 3384  14.881   7.896   9.419  0.1287 -0.0636  0.1779
  212loPI   C3A 3385  15.045   7.801   8.993 -0.0309  0.0210  0.1143
  212loPI   C4A 3386  15.008   7.378   8.703  0.1847  0.1021  0.0049
  212loPI   C5A 3387  14.916   7.109   8.372 -0.1410  0.1641 -0.1131
  212loPI   C6A 3388  15.125   7.147   7.965  0.1638 -0.1664 -0.0285
  212loPI   C1B 3389  14.698   7.609   9.790 -0.0450 -0.1989  0.2433
  212loPI   C2B 3390  14.519   7.484   9.420 -0.0039 -0.1338  0.0074
  212loPI   C3B 3391  14.577   7.624   9.059 -0.0084  0.2111 -0.1689
  212loPI   C4B 3392  14.423   7.852   8.623 -0.1527 -0.1551  0.2308
  213loPI    C1 3393   9.553   5.500  10.358  0.2580 -0.1316  0.0053
  213loPI    C2 3394   9.274   5.761  10.476  0.0612 -0.2204 -0.2537
  213loPI    C3 3395   9.512   5.587  10.746 -0.0508 -0.0508 -0.0425
  213loPI   PO4 3396   9.350   5.307  10.256 -0.2676  0.0450  0.0012
  213loPI   GL1 3397   9.100   5.210   9.929 -0.4869  0.0062 -0.0392
  213loPI   GL2 3398   8.869   5.217   9.873 -0.2543  0.1127  0.0830
  213loPI   C1A 3399   9.338   5.421   9.602 -0.1149 -0.0539  0.0521
  213loPI   C2A 3400   9.362   5.630   9.175  0.2636 -0.6614  0.1359
  213loPI   C3A 3401   9.501   5.471   8.825 -0.0279 -0.0583 -0.1126
  213loPI   C4A 3402   9.668   5.568   8.451  0.0400  0.4865  0.2663
  213loPI   C5A 3403   9.578   5.780   8.080  0.0448  0.1414  0.0336
  213loPI   C6A 3404   9.532   5.872   7.646  0.1892 -0.0727 -0.1858
  213loPI   C1B 3405   8.922   5.290   9.404 -0.1016  0.1655  0.0195
  213loPI   C2B 3406   8.942   5.416   8.921  0.0072  0.2114  0.0460
  213loPI   C3B 3407   8.878   5.378   8.517  0.0016 -0.0716  0.0730
  213loPI   C4B 3408   9.196   5.368   8.263 -0.1160 -0.0684 -0.1733
  214loPI    C1 3409   8.556   8.413  10.520  0.1521  0.2082  0.0352
  214loPI    C2 3410   8.724   8.414  10.883  0.2569  0.1268 -0.0125
  214loPI    C3 3411   8.364   8.580  10.829  0.1663 -0.0082  0.1628
  214loPI   PO4 3412   8.777   8.458  10.317 -0.1490 -0.2122  0.1074
  214loPI   GL1 3413   9.142   8.379  10.012 -0.1397  0.0764  0.4218
  214loPI   GL2 3414   9.413   8.525   9.867 -0.3411 -0.0632 -0.1115
  214loPI   C1A 3415   9.039   8.247   9.569 -0.0324  0.0570  0.0615
  214loPI   C2A 3416   9.113   8.417   9.104  0.1095 -0.0860  0.0670
  214loPI   C3A 3417   9.126   8.443   8.725 -0.0358  0.4274  0.1541
  214loPI   C4A 3418   9.316   8.402   8.292 -0.0166 -0.3183 -0.1923
  214loPI   C5A 3419   9.447   8.584   7.824 -0.0326  0.0373 -0.0585
  214loPI   C6A 3420   9.689   8.503   7.488 -0.0521  0.0908 -0.0307
  214loPI   C1B 3421   9.601   8.547   9.497  0.1306 -0.3893  0.1161
  214loPI   C2B 3422   9.644   8.703   9.079 -0.0486  0.2793 -0.2376
  214loPI   C3B 3423   9.690   8.512   8.724 -0.4323 -0.1359 -0.1324
  214loPI   C4B 3424   9.785   8.663   8.231  0.2372 -0.0199  0.1533
  215loPI    C1 3425   8.567   9.316  10.081 -0.2105 -0.0586  0.0934
  215loPI    C2 3426   8.318   9.440  10.369 -0.0111  0.0008  0.2425
  215loPI    C3 3427   8.703   9.370  10.453  0.0479  0.0108 -0.0087
  215loPI   PO4 3428   8.530   9.236   9.921 -0.2216  0.0469 -0.0979
  215loPI   GL1 3429   8.821   9.117   9.597  0.0561  0.0789  0.0450
  215loPI   GL2 3430   8.772   9.293   9.299  0.1143 -0.1984  0.2083
  215loPI   C1A 3431   8.710   8.792   9.262 -0.4539 -0.2766 -0.1608
  215loPI   C2A 3432   8.697   8.665   8.836 -0.3553 -0.1386  0.1052
  215loPI   C3A 3433   8.631   8.640   8.481 -0.0330  0.0013  0.2099
  215loPI   C4A 3434   8.376   8.607   8.071  0.0828  0.2243  0.2054
  215loPI   C5A 3435   8.196   8.547   7.684  0.1503  0.1667  0.3036
  215loPI   C6A 3436   8.101   8.502   7.294  0.0187  0.0804  0.0295
  215loPI   C1B 3437   8.807   9.329   8.864 -0.1456  0.2546 -0.5208
  215loPI   C2B 3438   8.890   9.033   8.532 -0.0434 -0.3178 -0.2381
  215loPI   C3B 3439   9.001   8.795   8.183  0.2271  0.0851  0.0644
  215loPI   C4B 3440   9.097   8.906   7.716 -0.0222  0.1683 -0.1642
  216loPI    C1 3441  10.719  15.835  10.477 -0.1653 -0.0420 -0.0137
  216loPI    C2 3442  10.563  15.482  10.583 -0.2766  0.0106 -0.0010
  216loPI    C3 3443  10.548  15.792  10.836  0.0828 -0.0540  0.1048
  216loPI   PO4 3444  11.035  15.685  10.336  0.2465 -0.1557 -0.1096
  216loPI   GL1 3445  11.205  15.727   9.967 -0.1371 -0.1203 -0.0963
  216loPI   GL2 3446  11.213  15.443   9.890  0.1264  0.0296 -0.1600
  216loPI   C1A 3447  11.542  15.843   9.725  0.0292  0.1863  0.1343
  216loPI   C2A 3448  11.793  16.241   9.697 -0.1438  0.2650  0.0962
  216loPI   C3A 3449  12.008  16.652   9.440  0.0027 -0.2724 -0.3385
  216loPI   C4A 3450  11.916  17.002   9.159  0.1415  0.0800 -0.1570
  216loPI   C5A 3451  11.702  17.312   8.792  0.1887  0.3024  0.0903
  216loPI   C6A 3452  11.343  17.361   8.593 -0.1526  0.0075 -0.0913
  216loPI   C1B 3453  11.052  15.584   9.530 -0.0501  0.4119 -0.0473
  216loPI   C2B 3454  11.193  15.967   9.388 -0.1896 -0.0347 -0.0837
  216loPI   C3B 3455  11.466  16.159   9.115  0.0631  0.4485 -0.0779
  216loPI   C4B 3456  11.653  16.185   8.696 -0.0962 -0.0097 -0.0064
  217loPI    C1 3457   2.105  17.923  10.555  0.1611  0.1278  0.3655
  217loPI    C2 3458   2.233  17.640  10.807 -0.1256 -0.2694  0.0778
  217loPI    C3 3459   1.852  17.759  10.819 -0.0195  0.0725  0.1604
  217loPI   PO4 3460   2.095  17.841  10.383 -0.0121 -0.0320  0.3225
  217loPI   GL1 3461   2.139  17.579  10.220 -0.0888  0.1469 -0.1366
  217loPI   GL2 3462   2.525  17.471  10.244 -0.2034  0.4570  0.0789
  217loPI   C1A 3463   2.121  17.495   9.805 -0.1792 -0.1534 -0.0595
  217loPI   C2A 3464   2.405  17.199   9.465 -0.0141  0.0618 -0.0341
  217loPI   C3A 3465   2.459  17.020   9.003  0.0547  0.2587 -0.2282
  217loPI   C4A 3466   2.381  16.780   8.599  0.1263  0.2129 -0.0592
  217loPI   C5A 3467   2.148  16.575   8.372 -0.0731 -0.1479 -0.2593
  217loPI   C6A 3468   2.169  16.225   8.071  0.1599 -0.0381 -0.3017
  217loPI   C1B 3469   2.373  17.067   9.992 -0.1155 -0.0922  0.1635
  217loPI   C2B 3470   2.084  16.833   9.733 -0.0114 -0.0276 -0.1430
  217loPI   C3B 3471   2.113  16.763   9.274  0.0450  0.1276  0.1701
  217loPI   C4B 3472   2.014  16.735   8.885  0.0081  0.0008 -0.0959
  218loPI    C1 3473  14.483  15.068  10.398 -0.0740  0.2158 -0.0589
  218loPI    C2 3474  14.766  15.306  10.245  0.1064 -0.0597 -0.1616
  218loPI    C3 3475  14.869  14.986  10.461 -0.1321 -0.0785 -0.0727
  218loPI   PO4 3476  14.317  15.075  10.208  0.1938  0.0589 -0.1726
  218loPI   GL1 3477  14.378  15.148   9.865 -0.4201 -0.0394  0.0821
  218loPI   GL2 3478  14.126  15.209   9.724 -0.0225 -0.0427 -0.2020
  218loPI   C1A 3479  14.512  14.758   9.510 -0.4437 -0.0757 -0.1433
  218loPI   C2A 3480  14.776  14.970   9.134  0.0121 -0.1889  0.2127
  218loPI   C3A 3481  15.111  14.949   8.741 -0.1885  0.0881  0.1138
  218loPI   C4A 3482  15.041  15.089   8.391  0.2894 -0.1096 -0.0776
  218loPI   C5A 3483  14.932  14.807   7.994 -0.0603 -0.2025 -0.0593
  218loPI   C6A 3484  14.592  14.436   8.037 -0.1902 -0.1496 -0.2970
  218loPI   C1B 3485  13.942  15.225   9.340 -0.2772 -0.0529  0.0395
  218loPI   C2B 3486  13.835  15.350   8.972  0.0002 -0.0340 -0.0145
  218loPI   C3B 3487  13.562  15.582   8.662  0.1194  0.0618 -0.1193
  218loPI   C4B 3488  13.407  15.570   8.252  0.2435  0.0695  0.0134
  219loPI    C1 3489   3.475  13.218  10.600  0.0619 -0.2007  0.0399
  219loPI    C2 3490   3.667  13.309  10.939 -0.0864 -0.2021  0.1253
  219loPI    C3 3491   3.269  13.343  10.919 -0.0232  0.5013 -0.2722
  219loPI   PO4 3492   3.693  13.315  10.415 -0.0536 -0.0309  0.2091
  219loPI   GL1 3493   3.763  13.058  10.090 -0.0534 -0.2129  0.2448
  219loPI   GL2 3494   3.877  13.284   9.920  0.0348  0.1406  0.1080
  219loPI   C1A 3495   3.622  12.835   9.778 -0.2132  0.0209  0.1231
  219loPI   C2A 3496   3.466  12.798   9.307 -0.1338  0.0032 -0.2429
  219loPI   C3A 3497   3.392  12.828   8.834  0.0476 -0.0421  0.0875
  219loPI   C4A 3498   3.472  13.155   8.540 -0.2201 -0.0903 -0.4523
  219loPI   C5A 3499   3.645  13.163   8.176 -0.0500 -0.0699  0.2570
  219loPI   C6A 3500   3.967  13.374   7.989  0.2528 -0.0145 -0.1955
  219loPI   C1B 3501   3.635  13.270   9.547  0.3102 -0.0787 -0.2455
  219loPI   C2B 3502   3.617  13.238   9.044  0.0806  0.0099 -0.0721
  219loPI   C3B 3503   3.762  13.438   8.699  0.0835 -0.0821 -0.0106
  219loPI   C4B 3504   3.668  13.685   8.284  0.0227 -0.0785  0.4430
  220loPI    C1 3505   3.113   6.638  10.195 -0.1292  0.0220  0.1747
  220loPI    C2 3506   2.892   6.316  10.281 -0.1026  0.0248  0.2541
  220loPI    C3 3507   3.165   6.447  10.543  0.1808 -0.1364  0.0452
  220loPI   PO4 3508   2.908   6.806  10.066 -0.1081  0.2046  0.1347
  220loPI   GL1 3509   2.692   6.677   9.706 -0.0865  0.1813  0.0797
  220loPI   GL2 3510   2.322   6.604   9.535 -0.0167  0.0447  0.1281
  220loPI   C1A 3511   2.849   6.595   9.352 -0.2056 -0.1998 -0.1123
  220loPI   C2A 3512   2.798   6.543   8.902  0.0692  0.0550 -0.1793
  220loPI   C3A 3513   2.671   6.601   8.526 -0.1122  0.2225  0.1108
  220loPI   C4A 3514   2.654   6.471   8.142 -0.3666  0.0737 -0.1015
  220loPI   C5A 3515   2.675   6.140   7.939 -0.3391  0.0763  0.2795
  220loPI   C6A 3516   2.280   5.857   7.891 -0.1098 -0.1651 -0.1652
  220loPI   C1B 3517   2.312   6.531   9.086 -0.1334  0.2041  0.1086
  220loPI   C2B 3518   2.103   6.667   8.704  0.2437 -0.1488 -0.0737
  220loPI   C3B 3519   2.182   6.477   8.273  0.0995 -0.0219 -0.1843
  220loPI   C4B 3520   2.215   6.342   7.844 -0.0805 -0.2894 -0.0241
  221loPI    C1 3521  16.220  18.081  10.632  0.1330 -0.0985  0.0678
  221loPI    C2 3522  16.579  18.255  10.648  0.0166  0.1239  0.3427
  221loPI    C3 3523  16.314  18.316  10.942 -0.2450 -0.0417  0.1451
  221loPI   PO4 3524  16.149  18.155  10.385 -0.0795 -0.1627 -0.1220
  221loPI   GL1 3525  16.052  18.070   9.915  0.0983 -0.0326  0.0135
  221loPI   GL2 3526  16.227  17.820  10.065 -0.1829  0.1968  0.2276
  221loPI   C1A 3527  16.086  18.034   9.610  0.0002  0.0565 -0.3109
  221loPI   C2A 3528  16.201  17.930   9.172 -0.1175  0.1293  0.1358
  221loPI   C3A 3529  16.452  18.001   8.860 -0.0914  0.0499 -0.2459
  221loPI   C4A 3530  16.866  18.072   8.858  0.1790  0.0268 -0.0545
  221loPI   C5A 3531  17.141  17.994   9.165 -0.1767 -0.2889 -0.2263
  221loPI   C6A 3532  17.625  17.913   9.086  0.0989  0.1827  0.1361
  221loPI   C1B 3533  16.544  17.805   9.794  0.0197  0.0443  0.0632
  221loPI   C2B 3534  16.898  17.860   9.636  0.0396  0.0137 -0.0837
  221loPI   C3B 3535  17.382  17.897   9.646  0.0924 -0.1722  0.1225
  221loPI   C4B 3536  17.751  18.025   9.550  0.1541  0.0580  0.1215
  222loPI    C1 3537  15.435   5.218  10.803  0.0089 -0.1314 -0.1658
  222loPI    C2 3538  15.261   4.901  10.973 -0.0162  0.0476  0.1487
  222loPI    C3 3539  15.655   4.959  11.014 -0.0062  0.0402  0.0643
  222loPI   PO4 3540  15.276   5.313  10.576 -0.2211 -0.0563 -0.2998
  222loPI   GL1 3541  15.340   5.242  10.176  0.1951  0.0740 -0.2321
  222loPI   GL2 3542  15.031   5.226  10.088  0.0881  0.2915 -0.0028
  222loPI   C1A 3543  15.581   5.347   9.774  0.3707 -0.0477 -0.0862
  222loPI   C2A 3544  15.630   5.572   9.498 -0.0869 -0.1705  0.0643
  222loPI   C3A 3545  15.590   5.570   8.993  0.1614 -0.0569 -0.2101
  222loPI   C4A 3546  15.622   5.756   8.514 -0.1981 -0.3031 -0.1063
  222loPI   C5A 3547  15.736   6.003   8.080  0.1236  0.2480  0.0827
  222loPI   C6A 3548  16.058   6.103   7.904 -0.0295  0.1797  0.3959
  222loPI   C1B 3549  14.967   5.124   9.628  0.2070  0.2429  0.0748
  222loPI   C2B 3550  14.948   4.985   9.194 -0.1639 -0.0411 -0.3785
  222loPI   C3B 3551  14.851   4.762   8.760  0.0293  0.0529 -0.0506
  222loPI   C4B 3552  15.115   4.697   8.277 -0.2951 -0.0699  0.0443
  223loPI    C1 3553  13.874   0.680  10.441 -0.0141 -0.0212 -0.1437
  223loPI    C2 3554  13.755   0.308  10.354 -0.0786 -0.0637  0.1154
  223loPI    C3 3555  13.672   0.466  10.712 -0.0356  0.1948  0.0143
  223loPI   PO4 3556  14.158   0.695  10.372 -0.0800  0.0127 -0.0845
  223loPI   GL1 3557  14.281   1.003  10.185  0.3484  0.1262  0.2750
  223loPI   GL2 3558  14.611   0.958  10.291 -0.1084 -0.2766  0.1927
  223loPI   C1A 3559  14.296   1.087   9.700 -0.1799  0.1487  0.0827
  223loPI   C2A 3560  14.196   1.111   9.357  0.2708  0.1103  0.0328
  223loPI   C3A 3561  14.209   1.005   8.939 -0.1029  0.0387 -0.0382
  223loPI   C4A 3562  14.374   0.972   8.517 -0.0589  0.2336  0.3053
  223loPI   C5A 3563  14.636   0.733   8.265 -0.0347 -0.3402  0.2487
  223loPI   C6A 3564  14.830   0.432   8.183  0.0378 -0.0232  0.2625
  223loPI   C1B 3565  14.723   1.268   9.984 -0.1104  0.1447 -0.0840
  223loPI   C2B 3566  14.685   1.375   9.565 -0.2051  0.0937 -0.0799
  223loPI   C3B 3567  14.648   1.448   9.174 -0.2294  0.1152 -0.5058
  223loPI   C4B 3568  14.640   1.378   8.758  0.1150 -0.1298 -0.0293
  224loPI    C1 3569   8.160   3.492  10.123 -0.0922  0.1464  0.0293
  224loPI    C2 3570   8.393   3.354  10.416  0.0301 -0.0206 -0.1445
  224loPI    C3 3571   8.138   3.653  10.488 -0.0108 -0.1245  0.1558
  224loPI   PO4 3572   8.060   3.312  10.033  0.1114  0.2216  0.1273
  224loPI   GL1 3573   8.060   3.050   9.677 -0.0202  0.0045  0.0287
  224loPI   GL2 3574   7.820   2.921   9.616 -0.0739 -0.1378  0.1832
  224loPI   C1A 3575   8.191   3.164   9.339 -0.3256 -0.2227 -0.1626
  224loPI   C2A 3576   8.064   3.211   9.006 -0.3882 -0.0984 -0.0860
  224loPI   C3A 3577   8.005   3.294   8.638 -0.2321  0.1422 -0.0543
  224loPI   C4A 3578   8.124   3.179   8.288  0.1410 -0.1124  0.0913
  224loPI   C5A 3579   8.524   3.034   8.052 -0.1461 -0.1677 -0.0245
  224loPI   C6A 3580   8.780   3.008   7.630  0.0114  0.0692  0.1648
  224loPI   C1B 3581   7.628   3.245   9.355 -0.0946 -0.1108 -0.0975
  224loPI   C2B 3582   7.586   3.309   8.908  0.2641 -0.2502 -0.0957
  224loPI   C3B 3583   7.539   3.495   8.547  0.2880 -0.3302 -0.1103
  224loPI   C4B 3584   7.557   3.452   8.181 -0.2476 -0.2540  0.2255
  225loPI    C1 3585  10.505   0.836  10.763 -0.0919 -0.0923 -0.2263
  225loPI    C2 3586  10.366   1.088  11.041 -0.0180  0.1311 -0.3887
  225loPI    C3 3587  10.592   0.775  11.149  0.1438  0.3062 -0.2111
  225loPI   PO4 3588  10.551   1.022  10.517 -0.0347 -0.0555 -0.1219
  225loPI   GL1 3589  10.502   0.951  10.062  0.3596 -0.0616  0.2672
  225loPI   GL2 3590  10.789   0.978   9.985 -0.0141 -0.1080  0.0048
  225loPI   C1A 3591  10.402   1.223   9.675  0.1922  0.1903 -0.4098
  225loPI   C2A 3592  10.414   1.336   9.283  0.0624  0.1517  0.0106
  225loPI   C3A 3593  10.414   1.354   8.845 -0.1545 -0.1130  0.0371
  225loPI   C4A 3594  10.201   1.542   8.473 -0.2734 -0.3301 -0.0112
  225loPI   C5A 3595  10.385   1.516   8.077  0.2442  0.2076  0.1671
  225loPI   C6A 3596  10.307   1.944   7.964 -0.1495  0.0744 -0.1394
  225loPI   C1B 3597  11.035   1.013   9.728 -0.1239 -0.0918  0.0209
  225loPI   C2B 3598  11.033   1.071   9.271  0.0282  0.4575 -0.1240
  225loPI   C3B 3599  10.858   1.047   8.779 -0.1646  0.1047 -0.1772
  225loPI   C4B 3600  10.610   1.088   8.433 -0.1206 -0.2936  0.1117
  226loPI    C1 3601   0.099  15.452  10.506 -0.2680  0.3608  0.0229
  226loPI    C2 3602  -0.288  15.411  10.598 -0.2288  0.3188  0.1714
  226loPI    C3 3603  -0.027  15.525  10.878 -0.0829  0.0429  0.1510
  226loPI   PO4 3604   0.151  15.692  10.262  0.3237  0.2165 -0.2958
  226loPI   GL1 3605   0.299  15.576   9.840 -0.2084 -0.1212 -0.0664
  226loPI   GL2 3606   0.163  15.924   9.830 -0.5499 -0.2134 -0.2732
  226loPI   C1A 3607   0.062  15.490   9.439  0.0213 -0.1734  0.0600
  226loPI   C2A 3608   0.114  15.522   9.057 -0.3642 -0.3020 -0.0495
  226loPI   C3A 3609  -0.054  15.554   8.686  0.0339  0.1652  0.0441
  226loPI   C4A 3610   0.089  15.468   8.340 -0.1622  0.0708  0.0312
  226loPI   C5A 3611   0.402  15.272   8.239  0.0464 -0.0816  0.1163
  226loPI   C6A 3612   0.624  15.173   7.941 -0.1426  0.1552  0.1279
  226loPI   C1B 3613   0.050  16.020   9.413  0.0116 -0.0093 -0.0486
  226loPI   C2B 3614   0.006  15.989   8.987 -0.0352  0.2243 -0.0451
  226loPI   C3B 3615  -0.313  16.008   8.645 -0.0672  0.1305 -0.1746
  226loPI   C4B 3616  -0.253  15.778   8.297 -0.0265  0.0830  0.1078
  227loPI    C1 3617   2.289   5.672  10.620 -0.1179 -0.2301 -0.3429
  227loPI    C2 3618   1.931   5.753  10.779  0.0556 -0.2313  0.0595
  227loPI    C3 3619   2.128   5.422  10.887  0.1692 -0.2443 -0.1794
  227loPI   PO4 3620   2.367   5.642  10.260  0.2843 -0.1203  0.1698
  227loPI   GL1 3621   2.457   5.615   9.788 -0.1440 -0.3411 -0.3664
  227loPI   GL2 3622   2.684   5.383   9.821  0.1780  0.3252 -0.0075
  227loPI   C1A 3623   2.601   5.484   9.344 -0.4161  0.0791 -0.1765
  227loPI   C2A 3624   2.610   5.477   9.043  0.1387  0.1027  0.0223
  227loPI   C3A 3625   2.620   5.676   8.692  0.0928 -0.0406  0.0762
  227loPI   C4A 3626   2.660   5.657   8.281 -0.0160 -0.2624 -0.2220
  227loPI   C5A 3627   3.062   5.794   8.018  0.2456  0.2163  0.1052
  227loPI   C6A 3628   3.182   6.151   8.010 -0.0829 -0.3313  0.2001
  227loPI   C1B 3629   2.954   5.675   9.671 -0.1549 -0.0045 -0.1582
  227loPI   C2B 3630   3.030   5.740   9.237 -0.0666 -0.3365  0.0413
  227loPI   C3B 3631   3.112   5.886   8.855  0.0831 -0.1455 -0.1007
  227loPI   C4B 3632   2.941   6.059   8.458  0.0992 -0.1640 -0.3657
  228loPI    C1 3633   5.131  15.958  10.260 -0.0734  0.0429  0.0893
  228loPI    C2 3634   5.351  15.747  10.520 -0.0579  0.0355  0.0701
  228loPI    C3 3635   5.403  16.142  10.488  0.0131  0.0211  0.0044
  228loPI   PO4 3636   5.164  15.911  10.026 -0.4311 -0.2808  0.0167
  228loPI   GL1 3637   5.579  16.086   9.711  0.1381  0.3426  0.2652
  228loPI   GL2 3638   5.444  15.778   9.636  0.1993 -0.0100 -0.0289
  228loPI   C1A 3639   5.848  16.124   9.451  0.0541  0.1025 -0.0725
  228loPI   C2A 3640   6.063  16.057   9.096 -0.3271  0.2335 -0.0107
  228loPI   C3A 3641   6.242  15.867   8.650 -0.1230  0.0079 -0.0372
  228loPI   C4A 3642   6.264  15.895   8.236 -0.1643  0.1361 -0.0853
  228loPI   C5A 3643   6.319  16.139   7.929 -0.0843  0.0232 -0.1951
  228loPI   C6A 3644   6.223  16.245   7.535  0.0865 -0.2599 -0.0126
  228loPI   C1B 3645   5.465  15.832   9.251 -0.2278 -0.0315 -0.1993
  228loPI   C2B 3646   5.622  16.107   8.843 -0.0980 -0.1406 -0.2577
  228loPI   C3B 3647   5.465  16.421   8.573  0.0952  0.0417  0.0921
  228loPI   C4B 3648   5.456  16.382   8.197 -0.1073  0.3587  0.2438
  229loPI    C1 3649   0.315  17.985  10.893  0.1375  0.1189  0.0387
  229loPI    C2 3650   0.169  18.351  10.965  0.1792  0.1318  0.0581
  229loPI    C3 3651   0.551  18.306  10.858  0.0374  0.1444 -0.4814
  229loPI   PO4 3652   0.197  17.845  10.662 -0.0178 -0.1733 -0.1437
  229loPI   GL1 3653  -0.133  17.789  10.335 -0.2061 -0.2510 -0.0514
  229loPI   GL2 3654  -0.435  17.748  10.313  0.0718 -0.1703 -0.0072
  229loPI   C1A 3655  -0.099  17.990   9.908 -0.0069 -0.0259 -0.4664
  229loPI   C2A 3656  -0.097  17.745   9.478  0.1228 -0.1924 -0.2050
  229loPI   C3A 3657  -0.147  17.654   9.002  0.2943  0.2161  0.0743
  229loPI   C4A 3658  -0.075  17.469   8.659 -0.4747 -0.0304  0.0124
  229loPI   C5A 3659   0.237  17.364   8.379 -0.1376  0.2729 -0.2855
  229loPI   C6A 3660   0.672  17.313   8.377 -0.0445  0.0649  0.1975
  229loPI   C1B 3661  -0.518  17.590   9.925  0.1179 -0.0609  0.0407
  229loPI   C2B 3662  -0.619  17.462   9.490  0.0140  0.0031 -0.2147
  229loPI   C3B 3663  -0.528  17.331   9.028  0.0978 -0.2267  0.0054
  229loPI   C4B 3664  -0.537  17.633   8.703 -0.1536  0.0258 -0.3438
  230loPI    C1 3665  12.350  17.178  10.657 -0.0584 -0.0358 -0.0731
  230loPI    C2 3666  12.474  16.882  10.418  0.3721 -0.1261  0.2488
  230loPI    C3 3667  12.734  17.157  10.547 -0.0048  0.3535  0.0232
  230loPI   PO4 3668  12.177  17.274  10.519 -0.0136  0.1158 -0.2593
  230loPI   GL1 3669  12.172  17.167  10.146  0.1082 -0.1663  0.0514
  230loPI   GL2 3670  12.449  17.396  10.126 -0.1382  0.0410 -0.1520
  230loPI   C1A 3671  12.195  17.094   9.714 -0.0012 -0.0310 -0.1415
  230loPI   C2A 3672  12.415  17.205   9.308  0.2754 -0.0032  0.1972
  230loPI   C3A 3673  12.805  17.090   9.063  0.1566 -0.2344  0.0013
  230loPI   C4A 3674  13.130  17.288   8.768 -0.1664 -0.1446 -0.3618
  230loPI   C5A 3675  13.420  17.091   8.602  0.0171 -0.1110  0.0383
  230loPI   C6A 3676  13.411  17.209   8.275  0.1746 -0.1922  0.4850
  230loPI   C1B 3677  12.647  17.308   9.749  0.3108  0.2165  0.0517
  230loPI   C2B 3678  12.912  17.404   9.484 -0.0322 -0.0520  0.0544
  230loPI   C3B 3679  13.046  17.521   9.194  0.1950 -0.1597  0.0314
  230loPI   C4B 3680  12.736  17.703   8.833 -0.1495 -0.0664 -0.0388
  231loPI    C1 3681  12.081   8.375  10.848 -0.1799 -0.0476 -0.1075
  231loPI    C2 3682  12.241   8.143  11.131 -0.0137  0.0362 -0.1317
  231loPI    C3 3683  11.902   8.341  11.204  0.0476  0.0860  0.0224
  231loPI   PO4 3684  12.357   8.535  10.666 -0.0482  0.0092 -0.0435
  231loPI   GL1 3685  12.444   8.777  10.322 -0.0135  0.0113  0.0652
  231loPI   GL2 3686  12.218   8.871  10.094 -0.0477  0.1926 -0.3010
  231loPI   C1A 3687  12.721   8.604   9.904  0.0895 -0.0010 -0.2155
  231loPI   C2A 3688  13.104   8.644   9.605  0.3235  0.1708  0.1440
  231loPI   C3A 3689  13.069   8.665   9.227 -0.1383 -0.1539 -0.2712
  231loPI   C4A 3690  13.296   8.397   8.944  0.3855 -0.0920  0.0192
  231loPI   C5A 3691  13.363   8.464   8.527 -0.2637  0.0474  0.2431
  231loPI   C6A 3692  13.082   8.546   8.168  0.3791  0.0341 -0.4455
  231loPI   C1B 3693  12.507   9.045   9.760 -0.0906  0.0840  0.0327
  231loPI   C2B 3694  12.476   9.264   9.352 -0.0494  0.3476  0.3520
  231loPI   C3B 3695  12.460   9.267   8.908  0.0187  0.0232  0.1114
  231loPI   C4B 3696  12.562   9.469   8.526  0.2951  0.2282  0.0282
  232loPI    C1 3697  17.873   5.201  10.296 -0.1025 -0.2036  0.0265
  232loPI    C2 3698  17.628   4.893  10.370  0.0276 -0.3102  0.0158
  232loPI    C3 3699  18.012   4.875  10.481 -0.0928  0.0780  0.5356
  232loPI   PO4 3700  17.838   5.252  10.007  0.2570 -0.1090 -0.3970
  232loPI   GL1 3701  18.012   5.161   9.657  0.0019  0.2924  0.0407
  232loPI   GL2 3702  18.294   4.996   9.765 -0.1051  0.0680 -0.1365
  232loPI   C1A 3703  17.933   5.269   9.300 -0.0067 -0.0235 -0.0217
  232loPI   C2A 3704  17.960   5.172   8.867  0.2081 -0.1685 -0.2432
  232loPI   C3A 3705  18.043   4.950   8.537 -0.0338  0.0043 -0.0340
  232loPI   C4A 3706  18.184   4.919   8.112  0.1020  0.2088 -0.2506
  232loPI   C5A 3707  18.054   5.122   7.722  0.1146  0.1646 -0.1224
  232loPI   C6A 3708  17.828   5.461   7.670  0.1842  0.0547 -0.0564
  232loPI   C1B 3709  18.268   4.887   9.276  0.4550 -0.0299 -0.0257
  232loPI   C2B 3710  18.264   4.770   8.897 -0.3741 -0.1249  0.2178
  232loPI   C3B 3711  18.440   4.700   8.494  0.1660  0.2602  0.0079
  232loPI   C4B 3712  18.359   4.452   8.055  0.1290  0.0558 -0.0056
  233loPI    C1 3713  14.104  15.552  10.256 -0.1176  0.1528  0.0912
  233loPI    C2 3714  14.401  15.542  10.523 -0.3348  0.1782  0.3377
  233loPI    C3 3715  14.059  15.350  10.598 -0.2962 -0.0519 -0.0508
  233loPI   PO4 3716  14.048  15.780  10.172  0.1430  0.0793  0.1869
  233loPI   GL1 3717  13.792  15.987   9.916 -0.1973  0.2391  0.0708
  233loPI   GL2 3718  13.705  16.342   9.990  0.0717  0.0775 -0.1758
  233loPI   C1A 3719  13.545  16.058   9.657 -0.1457 -0.2175 -0.0328
  233loPI   C2A 3720  13.566  16.079   9.278  0.4056 -0.0535 -0.1406
  233loPI   C3A 3721  13.508  16.157   8.886 -0.0431  0.0148 -0.1165
  233loPI   C4A 3722  13.299  16.004   8.500  0.3224  0.0249 -0.0158
  233loPI   C5A 3723  13.316  16.072   8.107  0.0036 -0.2892  0.0874
  233loPI   C6A 3724  13.664  16.302   7.928 -0.1061 -0.0295  0.1370
  233loPI   C1B 3725  13.760  16.536   9.595 -0.0618  0.1174  0.1025
  233loPI   C2B 3726  13.653  16.679   9.199  0.0959  0.0262 -0.1404
  233loPI   C3B 3727  13.523  16.644   8.825 -0.3651 -0.1195  0.2261
  233loPI   C4B 3728  13.295  16.522   8.375  0.0178 -0.0942 -0.0308
  234loPI    C1 3729   7.633  11.031   9.935  0.0372 -0.1145  0.0220
  234loPI    C2 3730   7.855  10.798  10.173 -0.0651 -0.2552 -0.0198
  234loPI    C3 3731   7.554  11.012  10.327  0.0265 -0.1530  0.0179
  234loPI   PO4 3732   7.718  11.243   9.853  0.0883 -0.0382 -0.0562
  234loPI   GL1 3733   7.517  11.384   9.490 -0.0679  0.0511 -0.0407
  234loPI   GL2 3734   7.246  11.520   9.568 -0.2186  0.4368  0.0271
  234loPI   C1A 3735   7.574  11.457   9.113 -0.0533  0.2524  0.3306
  234loPI   C2A 3736   7.655  11.427   8.690  0.1269 -0.0116 -0.2247
  234loPI   C3A 3737   7.454  11.354   8.371  0.0463  0.1479  0.0107
  234loPI   C4A 3738   7.199  11.384   8.027  0.2276  0.0586 -0.0388
  234loPI   C5A 3739   6.964  11.422   7.701 -0.0102  0.2533  0.0321
  234loPI   C6A 3740   6.655  11.120   7.343 -0.0115  0.2097 -0.0094
  234loPI   C1B 3741   7.032  11.482   9.366  0.1884  0.1126  0.2540
  234loPI   C2B 3742   7.095  11.594   9.031 -0.1177 -0.3244 -0.3059
  234loPI   C3B 3743   7.099  11.652   8.594  0.1213 -0.0098  0.2977
  234loPI   C4B 3744   7.045  11.829   8.251  0.1496  0.2944 -0.1616
  235loPI    C1 3745  17.211   0.459  10.638 -0.2273 -0.3913  0.0558
  235loPI    C2 3746  17.087   0.698  10.933  0.2401 -0.0470 -0.0157
  235loPI    C3 3747  17.265   0.350  11.019  0.0895 -0.0967  0.0999
  235loPI   PO4 3748  16.929   0.356  10.471  0.0601  0.0001 -0.0089
  235loPI   GL1 3749  16.762   0.239  10.121  0.0394 -0.0311 -0.0660
  235loPI   GL2 3750  16.636  -0.103  10.079  0.2468  0.0405 -0.2882
  235loPI   C1A 3751  16.763   0.515   9.735  0.2180 -0.1221 -0.1218
  235loPI   C2A 3752  16.813   0.743   9.369  0.2626  0.2917 -0.0490
  235loPI   C3A 3753  16.746   0.772   8.884  0.0989  0.0927 -0.2007
  235loPI   C4A 3754  16.908   0.875   8.568  0.1552  0.1989  0.1821
  235loPI   C5A 3755  17.028   1.004   8.141 -0.1717 -0.0554  0.0195
  235loPI   C6A 3756  17.113   1.077   7.655  0.1423 -0.1540 -0.2830
  235loPI   C1B 3757  16.374   0.150   9.701 -0.1333 -0.0262  0.0069
  235loPI   C2B 3758  16.294   0.213   9.264 -0.1190 -0.2055  0.1343
  235loPI   C3B 3759  16.228   0.232   8.905 -0.1422  0.0506  0.0544
  235loPI   C4B 3760  16.077   0.243   8.457 -0.2670 -0.0947  0.2306
  236loPI    C1 3761  14.357   2.377  10.580  0.2064  0.0121 -0.0415
  236loPI    C2 3762  14.666   2.157  10.707  0.0835 -0.3575 -0.3626
  236loPI    C3 3763  14.369   2.250  10.959  0.4116 -0.0672 -0.0734
  236loPI   PO4 3764  14.478   2.567  10.484  0.0280  0.1874  0.0873
  236loPI   GL1 3765  14.384   2.726  10.048 -0.0406  0.1403 -0.0279
  236loPI   GL2 3766  14.040   2.672  10.025 -0.0507  0.0683 -0.0288
  236loPI   C1A 3767  14.247   2.891   9.642  0.1431  0.0845  0.0164
  236loPI   C2A 3768  14.165   2.888   9.207  0.1084  0.0471 -0.1080
  236loPI   C3A 3769  13.964   2.937   8.775  0.3656  0.0157  0.0586
  236loPI   C4A 3770  13.993   2.964   8.352 -0.0227 -0.1954 -0.3198
  236loPI   C5A 3771  14.249   3.317   8.207  0.2742  0.1651  0.2730
  236loPI   C6A 3772  14.626   3.357   7.918  0.2939 -0.0148 -0.2776
  236loPI   C1B 3773  13.966   2.474   9.538 -0.2358  0.1360  0.3253
  236loPI   C2B 3774  13.882   2.503   9.152  0.2427  0.1372 -0.1562
  236loPI   C3B 3775  13.603   2.262   8.855 -0.0897 -0.0919  0.0447
  236loPI   C4B 3776  13.336   2.049   8.644  0.1402  0.1337  0.1227
  237loPI    C1 3777  15.295   9.248  10.044 -0.0785  0.1120  0.0092
  237loPI    C2 3778  15.424   8.872  10.000 -0.0836  0.1396 -0.2584
  237loPI    C3 3779  15.313   9.004  10.361  0.0596 -0.0691 -0.1355
  237loPI   PO4 3780  15.461   9.390   9.833 -0.0510 -0.0703 -0.2340
  237loPI   GL1 3781  15.363   9.272   9.438 -0.0665  0.2776  0.1674
  237loPI   GL2 3782  15.283   9.025   9.576 -0.2970  0.2511 -0.2345
  237loPI   C1A 3783  15.320   9.257   9.003  0.3516 -0.0514 -0.3986
  237loPI   C2A 3784  15.245   9.422   8.614  0.3160  0.0428 -0.3432
  237loPI   C3A 3785  15.219   9.609   8.180 -0.1130 -0.1625 -0.0163
  237loPI   C4A 3786  15.063   9.904   7.879  0.0553  0.0185 -0.0616
  237loPI   C5A 3787  14.798  10.104   7.738 -0.0725 -0.1225 -0.0067
  237loPI   C6A 3788  14.422  10.233   7.636 -0.3868  0.0856  0.0340
  237loPI   C1B 3789  15.326   8.797   9.179 -0.0547  0.2427 -0.1308
  237loPI   C2B 3790  15.350   8.812   8.729 -0.0405  0.1475  0.2774
  237loPI   C3B 3791  15.275   8.614   8.316 -0.3602 -0.0025  0.0812
  237loPI   C4B 3792  15.241   8.189   8.140  0.4245 -0.0339  0.0300
  238loPI    C1 3793   1.206   0.743  10.632 -0.0304 -0.1419  0.0514
  238loPI    C2 3794   1.456   1.033  10.747 -0.1724 -0.0128  0.0384
  238loPI    C3 3795   1.122   0.963  10.955 -0.2501 -0.0183 -0.0874
  238loPI   PO4 3796   1.335   0.562  10.465  0.0662  0.1188 -0.2398
  238loPI   GL1 3797   1.318   0.533   9.992 -0.2885 -0.0883  0.2264
  238loPI   GL2 3798   1.346   0.157  10.193  0.0454  0.0840  0.1576
  238loPI   C1A 3799   1.513   0.637   9.591 -0.1162  0.2715  0.1885
  238loPI   C2A 3800   1.636   0.451   9.301 -0.1859  0.0652  0.1442
  238loPI   C3A 3801   1.493   0.158   8.959  0.4255  0.2219  0.4808
  238loPI   C4A 3802   1.117  -0.043   8.853 -0.2181  0.3987  0.0492
  238loPI   C5A 3803   1.095  -0.354   8.552  0.0763  0.0465  0.1707
  238loPI   C6A 3804   1.060  -0.720   8.299  0.1558  0.0396  0.0350
  238loPI   C1B 3805   1.366   0.162   9.700 -0.0218  0.2418 -0.1792
  238loPI   C2B 3806   1.417  -0.153   9.349 -0.2369  0.4040  0.0395
  238loPI   C3B 3807   1.068  -0.439   9.088 -0.2315  0.4672  0.1740
  238loPI   C4B 3808   0.567  -0.470   9.024 -0.3977 -0.0014  0.2385
  239loPI    C1 3809  15.699   6.152  10.916  0.2636  0.1321 -0.1716
  239loPI    C2 3810  15.344   6.080  10.747  0.2600  0.3029 -0.2385
  239loPI    C3 3811  15.389   6.038  11.142  0.2098  0.1201 -0.2512
  239loPI   PO4 3812  15.882   6.135  10.678 -0.0324 -0.0088  0.2302
  239loPI   GL1 3813  15.928   6.178  10.183 -0.1883 -0.3420 -0.0626
  239loPI   GL2 3814  15.726   6.273  10.229 -0.0152  0.0288  0.0418
  239loPI   C1A 3815  16.103   6.360   9.827 -0.2698 -0.0527 -0.2625
  239loPI   C2A 3816  16.026   6.508   9.485 -0.3011  0.0762  0.2475
  239loPI   C3A 3817  15.935   6.565   9.080  0.1480 -0.1283  0.1897
  239loPI   C4A 3818  15.873   6.662   8.673 -0.0551 -0.0259  0.0076
  239loPI   C5A 3819  15.792   7.060   8.415 -0.0513  0.1903 -0.1476
  239loPI   C6A 3820  15.414   7.370   8.366  0.2534 -0.0992 -0.1846
  239loPI   C1B 3821  15.445   6.219   9.813 -0.1018 -0.0463  0.0422
  239loPI   C2B 3822  15.321   6.008   9.523 -0.0437  0.0276 -0.2938
  239loPI   C3B 3823  15.289   5.945   9.132 -0.2527  0.1592  0.2713
  239loPI   C4B 3824  15.244   5.980   8.714 -0.1301  0.0672 -0.1562
  240loPI    C1 3825   2.817  10.587  10.314  0.1124 -0.0369 -0.2049
  240loPI    C2 3826   2.830  10.335  10.625  0.1520  0.1044 -0.0906
  240loPI    C3 3827   2.480  10.420  10.450  0.1312  0.0153 -0.0928
  240loPI   PO4 3828   3.046  10.456  10.163  0.0195  0.0202 -0.0802
  240loPI   GL1 3829   3.223  10.613   9.790  0.1133 -0.2219  0.1332
  240loPI   GL2 3830   3.164  10.254   9.752 -0.0518  0.0491  0.1805
  240loPI   C1A 3831   3.023  10.758   9.520 -0.1880 -0.1085  0.1655
  240loPI   C2A 3832   2.706  10.939   9.403  0.4268  0.1041 -0.0569
  240loPI   C3A 3833   2.503  11.037   9.010  0.2449 -0.2291  0.2379
  240loPI   C4A 3834   2.344  11.227   8.676  0.0570 -0.3743  0.0558
  240loPI   C5A 3835   2.504  11.463   8.309  0.1623 -0.1582 -0.0358
  240loPI   C6A 3836   2.253  11.803   8.154  0.0466  0.0476 -0.0490
  240loPI   C1B 3837   3.195  10.326   9.286 -0.5061  0.1744  0.0486
  240loPI   C2B 3838   3.339  10.373   8.851  0.0110  0.0411 -0.1451
  240loPI   C3B 3839   3.521  10.360   8.402 -0.0407  0.0286  0.0828
  240loPI   C4B 3840   3.641  10.559   8.012  0.1312 -0.0970  0.0757
  241loPI    C1 3841  11.488   6.410  10.260 -0.1711 -0.1003  0.1401
  241loPI    C2 3842  11.708   6.361  10.590 -0.1128 -0.1299  0.0970
  241loPI    C3 3843  11.334   6.220  10.576 -0.0752 -0.2315  0.1087
  241loPI   PO4 3844  11.524   6.354  10.116  0.0031 -0.1003  0.0219
  241loPI   GL1 3845  11.707   6.483   9.771 -0.1164 -0.0412  0.1663
  241loPI   GL2 3846  11.659   6.754   9.762  0.0526  0.0207  0.1653
  241loPI   C1A 3847  11.439   6.395   9.407 -0.0868  0.3645 -0.0804
  241loPI   C2A 3848  11.256   6.421   8.983 -0.3018 -0.1419 -0.2335
  241loPI   C3A 3849  10.910   6.303   8.743  0.0462 -0.0677 -0.1640
  241loPI   C4A 3850  10.903   6.188   8.311  0.0346 -0.1813  0.0181
  241loPI   C5A 3851  10.849   6.035   7.897  0.0203  0.1884 -0.0324
  241loPI   C6A 3852  10.942   5.837   7.598  0.1014 -0.2418  0.1322
  241loPI   C1B 3853  11.661   6.870   9.327  0.1873  0.1257 -0.3355
  241loPI   C2B 3854  11.574   6.818   8.893 -0.1334  0.1005  0.1141
  241loPI   C3B 3855  11.762   6.714   8.551 -0.2079  0.1137  0.3050
  241loPI   C4B 3856  11.756   6.556   8.173 -0.0021  0.0212  0.0415
  242loPI    C1 3857  12.545   7.563  10.656  0.1124  0.2539 -0.1891
  242loPI    C2 3858  12.655   7.758  10.988  0.0830 -0.0619  0.0103
  242loPI    C3 3859  12.302   7.571  10.973  0.1238 -0.1279 -0.1660
  242loPI   PO4 3860  12.689   7.636  10.474 -0.2623  0.0129  0.1238
  242loPI   GL1 3861  12.537   7.716  10.145 -0.0515  0.1647  0.2253
  242loPI   GL2 3862  12.395   7.983  10.014 -0.1403 -0.3161  0.1505
  242loPI   C1A 3863  12.242   7.462   9.891 -0.1580 -0.0793 -0.2783
  242loPI   C2A 3864  12.261   7.484   9.433  0.2196 -0.4209  0.2820
  242loPI   C3A 3865  12.406   7.549   8.984  0.0957  0.1039  0.1235
  242loPI   C4A 3866  12.412   7.606   8.497 -0.0286 -0.0150  0.0749
  242loPI   C5A 3867  12.699   7.226   8.439  0.0717  0.0989 -0.1425
  242loPI   C6A 3868  13.090   7.102   8.630  0.0020  0.1874 -0.1285
  242loPI   C1B 3869  12.313   7.981   9.552 -0.1960 -0.2000  0.2468
  242loPI   C2B 3870  12.351   7.977   9.073  0.0799 -0.2806  0.1598
  242loPI   C3B 3871  12.418   8.251   8.660 -0.0443 -0.4037 -0.3136
  242loPI   C4B 3872  12.527   8.397   8.203  0.1346 -0.0296  0.0215
  243loPI    C1 3873  15.441   7.764  10.656  0.0448  0.0010  0.0444
  243loPI    C2 3874  15.244   7.554  10.934  0.1696 -0.1257  0.0383
  243loPI    C3 3875  15.634   7.630  10.980  0.0736  0.3235  0.1652
  243loPI   PO4 3876  15.409   7.744  10.300  0.0240  0.0608  0.0804
  243loPI   GL1 3877  15.347   8.054   9.984  0.0791 -0.0991 -0.1045
  243loPI   GL2 3878  15.199   8.446   9.963 -0.1077 -0.0627 -0.1518
  243loPI   C1A 3879  15.378   8.015   9.456  0.0048  0.0277  0.0408
  243loPI   C2A 3880  15.521   7.905   9.019 -0.1070 -0.1765  0.1287
  243loPI   C3A 3881  15.765   8.046   8.682  0.0702  0.0270  0.0514
  243loPI   C4A 3882  15.744   8.124   8.219  0.2486 -0.2942 -0.3776
  243loPI   C5A 3883  15.608   7.826   7.871  0.1344 -0.0829  0.1475
  243loPI   C6A 3884  15.220   7.632   7.900 -0.2221  0.3634 -0.0336
  243loPI   C1B 3885  15.124   8.462   9.597 -0.0513  0.1963 -0.0319
  243loPI   C2B 3886  15.135   8.294   9.135 -0.2494 -0.2770 -0.0480
  243loPI   C3B 3887  15.343   8.288   8.753  0.0638  0.0324 -0.2494
  243loPI   C4B 3888  15.300   7.833   8.598 -0.1028  0.2294  0.3082
  244loPI    C1 3889   1.145   5.405  10.604  0.0829 -0.0163  0.0710
  244loPI    C2 3890   1.488   5.444  10.807 -0.0095  0.0137  0.2234
  244loPI    C3 3891   1.138   5.498  10.993 -0.0905  0.3149 -0.0076
  244loPI   PO4 3892   1.228   5.405  10.369 -0.1463 -0.3012  0.0786
  244loPI   GL1 3893   1.135   5.499   9.887  0.5194  0.1322 -0.2381
  244loPI   GL2 3894   1.029   5.507   9.604  0.0034  0.0051 -0.1682
  244loPI   C1A 3895   1.497   5.701   9.634 -0.0100 -0.1847  0.1050
  244loPI   C2A 3896   1.611   5.749   9.128  0.0398 -0.1195 -0.1193
  244loPI   C3A 3897   1.576   5.863   8.826  0.4057  0.4199 -0.1691
  244loPI   C4A 3898   1.432   6.041   8.391  0.1070  0.2161  0.2621
  244loPI   C5A 3899   1.100   6.228   8.145  0.1124 -0.2201  0.0637
  244loPI   C6A 3900   0.785   6.056   7.887 -0.0369 -0.0921 -0.0817
  244loPI   C1B 3901   1.123   5.561   9.217 -0.0529 -0.1181  0.1370
  244loPI   C2B 3902   1.180   5.579   8.718 -0.1645 -0.1508  0.3187
  244loPI   C3B 3903   1.499   5.477   8.394 -0.0206 -0.3081  0.0403
  244loPI   C4B 3904   1.774   5.570   8.039  0.0087 -0.1941 -0.3582
  245loPI    C1 3905   0.943  11.781  10.652 -0.1027  0.0084 -0.0448
  245loPI    C2 3906   1.138  12.096  10.802  0.0708 -0.0900 -0.0612
  245loPI    C3 3907   0.813  11.955  10.988 -0.0049  0.0948 -0.0512
  245loPI   PO4 3908   1.080  11.833  10.380 -0.0164 -0.0535 -0.0972
  245loPI   GL1 3909   1.105  11.774   9.939  0.0723  0.2332 -0.1148
  245loPI   GL2 3910   0.972  11.433  10.013  0.0131  0.1456  0.3594
  245loPI   C1A 3911   0.825  11.890   9.667 -0.1325 -0.1905 -0.2002
  245loPI   C2A 3912   0.619  11.864   9.307 -0.3726 -0.2199  0.1677
  245loPI   C3A 3913   0.554  11.723   8.897 -0.1093  0.3705 -0.0848
  245loPI   C4A 3914   0.599  11.681   8.512  0.0990  0.0705 -0.1591
  245loPI   C5A 3915   0.680  11.797   8.070  0.0975 -0.0527 -0.1538
  245loPI   C6A 3916   1.004  12.023   8.045  0.3957  0.0023 -0.1922
  245loPI   C1B 3917   0.894  11.417   9.547  0.0397  0.4159 -0.0476
  245loPI   C2B 3918   0.971  11.527   9.193  0.1950 -0.2569  0.1549
  245loPI   C3B 3919   0.989  11.444   8.805 -0.0814 -0.1778  0.2444
  245loPI   C4B 3920   1.007  11.472   8.315  0.1310  0.1349  0.1601
  246loPI    C1 3921  13.756  16.884  10.721  0.1571 -0.1608  0.1642
  246loPI    C2 3922  13.604  17.209  10.897  0.1631  0.0833 -0.2664
  246loPI    C3 3923  13.918  17.021  11.059  0.0275  0.1633  0.0986
  246loPI   PO4 3924  13.847  16.873  10.437  0.0517  0.1307 -0.1554
  246loPI   GL1 3925  13.615  16.870  10.119  0.3902  0.1198  0.0463
  246loPI   GL2 3926  13.730  16.977   9.865 -0.0778  0.1596 -0.0190
  246loPI   C1A 3927  13.306  16.697   9.868 -0.2709 -0.2400 -0.2375
  246loPI   C2A 3928  13.249  16.520   9.477  0.2727  0.0650  0.0596
  246loPI   C3A 3929  13.123  16.536   9.100  0.2756 -0.0480  0.2157
  246loPI   C4A 3930  12.968  16.807   8.699 -0.1158  0.1842  0.0194
  246loPI   C5A 3931  12.651  17.090   8.588  0.1145  0.1210 -0.0473
  246loPI   C6A 3932  12.460  17.333   8.303  0.2683 -0.0340  0.3438
  246loPI   C1B 3933  13.917  17.004   9.493  0.2025  0.2176  0.2393
  246loPI   C2B 3934  14.033  16.948   8.993 -0.2343  0.0954  0.4798
  246loPI   C3B 3935  13.870  16.897   8.582  0.1789  0.1118 -0.2349
  246loPI   C4B 3936  13.658  16.817   8.188 -0.3501 -0.1720  0.2589
  247loPI    C1 3937   9.963   3.948  10.256  0.0584 -0.1756  0.0542
  247loPI    C2 3938   9.596   3.814  10.173  0.0212 -0.1042  0.1027
  247loPI    C3 3939   9.682   3.946  10.540  0.1422 -0.2752  0.1372
  247loPI   PO4 3940  10.012   4.005   9.957  0.1996 -0.0037 -0.2020
  247loPI   GL1 3941   9.983   3.595   9.671 -0.0017  0.0106  0.0175
  247loPI   GL2 3942  10.162   3.758   9.546  0.0286  0.2105 -0.2233
  247loPI   C1A 3943  10.058   3.366   9.245  0.0581  0.2074 -0.1015
  247loPI   C2A 3944  10.241   3.427   8.875  0.0012  0.0936  0.1930
  247loPI   C3A 3945  10.309   3.747   8.651 -0.2940  0.2421 -0.0236
  247loPI   C4A 3946  10.157   3.975   8.308 -0.3248  0.0230  0.1658
  247loPI   C5A 3947   9.817   4.298   8.191 -0.2435  0.0687 -0.1372
  247loPI   C6A 3948   9.759   4.727   8.279  0.1847 -0.0010 -0.4369
  247loPI   C1B 3949  10.117   3.960   9.149  0.0758 -0.0189  0.2304
  247loPI   C2B 3950  10.001   4.150   8.778 -0.4704 -0.2424  0.0289
  247loPI   C3B 3951   9.633   4.007   8.511 -0.0850 -0.1534  0.1242
  247loPI   C4B 3952   9.295   4.013   8.606  0.2719  0.0030 -0.1070
  248loPI    C1 3953   0.246   1.358  10.758 -0.1015 -0.0152  0.2018
  248loPI    C2 3954   0.193   0.985  10.626  0.2401  0.0138 -0.0291
  248loPI    C3 3955   0.336   1.048  10.994 -0.0234 -0.0770  0.0915
  248loPI   PO4 3956   0.108   1.504  10.682  0.0038 -0.0419 -0.3226
  248loPI   GL1 3957   0.121   1.429  10.214 -0.0833 -0.0379  0.1545
  248loPI   GL2 3958   0.456   1.264   9.912  0.1831  0.0440 -0.2354
  248loPI   C1A 3959   0.126   1.640   9.795  0.1179 -0.0374  0.1826
  248loPI   C2A 3960   0.078   1.867   9.420 -0.2422 -0.1072 -0.0319
  248loPI   C3A 3961   0.052   1.892   8.985 -0.2387  0.3106  0.0508
  248loPI   C4A 3962  -0.045   2.044   8.603  0.2027  0.0406 -0.0294
  248loPI   C5A 3963   0.151   2.074   8.256 -0.0139 -0.0604  0.1014
  248loPI   C6A 3964   0.199   1.766   7.827  0.0380  0.1903  0.0541
  248loPI   C1B 3965   0.181   1.197   9.587  0.1097 -0.3541  0.0597
  248loPI   C2B 3966   0.237   1.218   9.099  0.3258 -0.1165 -0.0685
  248loPI   C3B 3967   0.437   0.961   8.878  0.2099  0.0713  0.2041
  248loPI   C4B 3968   0.475   0.748   8.515  0.1577 -0.1079  0.0667
  249loPI    C1 3969   1.662  12.936  10.588  0.1523 -0.0154  0.1350
  249loPI    C2 3970   1.418  13.117  10.848  0.0699 -0.0322  0.0699
  249loPI    C3 3971   1.815  13.161  10.882  0.0443  0.3704 -0.0963
  249loPI   PO4 3972   1.394  12.916  10.369  0.1057 -0.0349 -0.1336
  249loPI   GL1 3973   1.096  12.833   9.928  0.0911 -0.1400  0.1652
  249loPI   GL2 3974   1.333  13.147   9.950 -0.1024 -0.0152  0.1798
  249loPI   C1A 3975   1.269  12.850   9.434  0.0887  0.0844 -0.0842
  249loPI   C2A 3976   1.548  12.894   9.227  0.1183 -0.0412 -0.0039
  249loPI   C3A 3977   1.674  12.948   8.732  0.1210 -0.0657 -0.0140
  249loPI   C4A 3978   1.671  12.621   8.356  0.0315  0.3396  0.0348
  249loPI   C5A 3979   1.691  12.419   8.046 -0.1284 -0.3563 -0.1564
  249loPI   C6A 3980   1.989  12.170   7.934  0.0181 -0.0412  0.1568
  249loPI   C1B 3981   1.668  13.067   9.661 -0.0237  0.0626 -0.2787
  249loPI   C2B 3982   2.019  12.921   9.408 -0.1653  0.2239  0.0814
  249loPI   C3B 3983   2.050  12.702   9.072 -0.0093  0.2011  0.1817
  249loPI   C4B 3984   1.854  12.470   8.777 -0.1292  0.0952  0.1756
  250loPI    C1 3985   2.516   7.085  10.155 -0.0565  0.0736 -0.1478
  250loPI    C2 3986   2.871   7.235  10.265  0.0764 -0.3148 -0.0310
  250loPI    C3 3987   2.564   7.238  10.522 -0.0228  0.0644 -0.1482
  250loPI   PO4 3988   2.401   7.308   9.981  0.1731  0.1514 -0.1441
  250loPI   GL1 3989   2.111   7.319   9.593  0.0660  0.0678  0.3160
  250loPI   GL2 3990   1.982   7.045   9.474 -0.4469 -0.2373 -0.1137
  250loPI   C1A 3991   2.142   7.508   9.225 -0.3510 -0.0659 -0.0890
  250loPI   C2A 3992   2.371   7.482   8.843 -0.3476 -0.0906 -0.2670
  250loPI   C3A 3993   2.269   7.597   8.516  0.3779 -0.0742  0.2983
  250loPI   C4A 3994   2.139   7.489   8.154 -0.0589  0.2483 -0.0687
  250loPI   C5A 3995   2.082   7.375   7.753 -0.2426 -0.1175  0.2303
  250loPI   C6A 3996   1.636   7.149   7.583 -0.1679  0.1197  0.2195
  250loPI   C1B 3997   2.027   7.053   9.033  0.2265  0.2928 -0.3905
  250loPI   C2B 3998   1.965   7.171   8.600 -0.0163 -0.6090  0.2298
  250loPI   C3B 3999   1.880   6.924   8.124 -0.1068  0.0301  0.0808
  250loPI   C4B 4000   1.851   6.689   7.736  0.0416  0.0267 -0.2206
  251loPI    C1 4001  11.349   2.216  10.936  0.0981  0.0439  0.0223
  251loPI    C2 4002  11.026   1.987  10.997  0.1490 -0.0949 -0.2159
  251loPI    C3 4003  11.334   1.972  11.252  0.0768 -0.1581 -0.1321
  251loPI   PO4 4004  11.326   2.395  10.831 -0.0277 -0.3030 -0.2570
  251loPI   GL1 4005  11.593   2.754  10.586  0.0532 -0.2479  0.2078
  251loPI   GL2 4006  11.253   2.750  10.476  0.1333  0.1150  0.3106
  251loPI   C1A 4007  11.590   2.831  10.112  0.1036  0.1179  0.4762
  251loPI   C2A 4008  11.922   3.081   9.854  0.4525 -0.1165  0.1642
  251loPI   C3A 4009  11.958   3.104   9.578 -0.0727  0.0234 -0.2182
  251loPI   C4A 4010  12.080   3.020   9.175 -0.2050  0.2313  0.2869
  251loPI   C5A 4011  12.001   2.849   8.829  0.5560  0.1458 -0.0620
  251loPI   C6A 4012  12.048   2.633   8.366 -0.1040 -0.0310 -0.0691
  251loPI   C1B 4013  11.019   2.422  10.136 -0.1238 -0.2517 -0.0856
  251loPI   C2B 4014  10.827   2.320   9.783  0.1147  0.1871  0.1860
  251loPI   C3B 4015  10.824   2.142   9.515  0.0492  0.3302 -0.0116
  251loPI   C4B 4016  10.996   2.012   9.197 -0.0524 -0.0302  0.1007
  252loPI    C1 4017  10.641   2.821  11.065  0.0330 -0.0460 -0.0166
  252loPI    C2 4018  10.888   2.884  11.373 -0.0705 -0.1907  0.0972
  252loPI    C3 4019  10.518   2.747  11.438 -0.2255  0.1422 -0.0615
  252loPI   PO4 4020  10.665   3.046  10.844 -0.3332  0.0153 -0.1366
  252loPI   GL1 4021  10.788   2.907  10.308 -0.2388  0.5513  0.0904
  252loPI   GL2 4022  10.605   2.807  10.022  0.3020  0.1213 -0.3489
  252loPI   C1A 4023  11.086   2.813   9.923 -0.0600 -0.1251  0.2552
  252loPI   C2A 4024  11.412   2.902   9.657 -0.1454  0.7462  0.1172
  252loPI   C3A 4025  11.656   2.771   9.284 -0.0141  0.0243  0.0628
  252loPI   C4A 4026  11.748   2.419   8.996  0.0564  0.1369 -0.2019
  252loPI   C5A 4027  11.559   2.294   8.576 -0.1476  0.2657 -0.0107
  252loPI   C6A 4028  11.451   1.964   8.366 -0.0706 -0.0488 -0.1474
  252loPI   C1B 4029  10.692   2.877   9.641 -0.3192  0.0507  0.0805
  252loPI   C2B 4030  10.809   2.749   9.215 -0.1926 -0.2219 -0.1348
  252loPI   C3B 4031  10.887   2.781   8.849 -0.2298 -0.0245  0.1723
  252loPI   C4B 4032  11.056   2.690   8.401 -0.1104 -0.1237 -0.3365
  253loPI    C1 4033   4.878  11.866  10.738  0.0968  0.0552 -0.0070
  253loPI    C2 4034   5.133  12.154  10.627  0.0453  0.0494 -0.1431
  253loPI    C3 4035   4.780  12.251  10.789  0.2391  0.0550  0.2921
  253loPI   PO4 4036   4.917  11.563  10.403 -0.0665 -0.0361 -0.0847
  253loPI   GL1 4037   4.673  11.551  10.025 -0.1123 -0.4115 -0.0831
  253loPI   GL2 4038   4.922  11.605   9.901 -0.1001 -0.0377  0.1080
  253loPI   C1A 4039   4.460  11.785   9.720 -0.0912  0.0759 -0.2084
  253loPI   C2A 4040   4.400  11.840   9.360  0.0191 -0.0608 -0.0770
  253loPI   C3A 4041   4.354  11.725   8.911  0.0860 -0.0716 -0.1096
  253loPI   C4A 4042   4.219  11.607   8.538  0.1164 -0.0452 -0.1284
  253loPI   C5A 4043   4.393  11.568   8.060 -0.0850 -0.2723 -0.3169
  253loPI   C6A 4044   4.606  11.503   7.600 -0.0244 -0.1690 -0.1916
  253loPI   C1B 4045   4.830  11.358   9.605  0.1422 -0.2013 -0.0161
  253loPI   C2B 4046   4.989  11.348   9.119  0.0016  0.1379 -0.1148
  253loPI   C3B 4047   4.989  11.265   8.638 -0.0245  0.0314 -0.1675
  253loPI   C4B 4048   5.016  11.311   8.109  0.0166 -0.4123  0.0420
  254loPI    C1 4049   6.248   1.001   9.827  0.1103  0.1133  0.0526
  254loPI    C2 4050   6.162   1.032  10.216 -0.0876  0.1671  0.0056
  254loPI    C3 4051   6.487   1.212  10.069  0.0197  0.0987  0.1557
  254loPI   PO4 4052   6.256   0.654   9.739 -0.2605 -0.1639  0.0485
  254loPI   GL1 4053   6.443   0.741   9.387 -0.2307  0.1395 -0.0389
  254loPI   GL2 4054   6.572   1.053   9.492 -0.1159 -0.1739 -0.2765
  254loPI   C1A 4055   6.330   0.522   9.022 -0.1298  0.2148  0.0709
  254loPI   C2A 4056   6.224   0.142   8.949 -0.0772  0.2881 -0.1412
  254loPI   C3A 4057   6.076  -0.003   8.518 -0.0415 -0.3730 -0.3317
  254loPI   C4A 4058   5.815  -0.066   8.268  0.2852 -0.0298  0.3357
  254loPI   C5A 4059   5.451  -0.259   8.118  0.1603  0.1883  0.5354
  254loPI   C6A 4060   5.246  -0.688   7.934  0.0579  0.1252  0.1200
  254loPI   C1B 4061   6.654   1.320   9.210  0.0889 -0.1990 -0.1403
  254loPI   C2B 4062   6.690   1.760   9.040  0.4693  0.0775 -0.0260
  254loPI   C3B 4063   6.602   2.042   8.653  0.2061 -0.3730 -0.0399
  254loPI   C4B 4064   6.809   2.255   8.316  0.0483 -0.2015  0.0841
  255loPI    C1 4065   7.721   4.360  10.330 -0.0132  0.0630  0.1549
  255loPI    C2 4066   8.044   4.485  10.529  0.0595  0.0041  0.0743
  255loPI    C3 4067   7.698   4.433  10.723  0.0344  0.3032  0.1145
  255loPI   PO4 4068   7.692   4.427  10.134  0.0321  0.2375 -0.1186
  255loPI   GL1 4069   7.861   4.447   9.751 -0.0871  0.0358  0.1041
  255loPI   GL2 4070   7.844   4.123   9.628 -0.3400  0.2245 -0.3477
  255loPI   C1A 4071   8.032   4.732   9.479 -0.1496 -0.0772 -0.1516
  255loPI   C2A 4072   8.176   4.754   9.102  0.0112 -0.0114  0.0213
  255loPI   C3A 4073   8.013   4.804   8.719 -0.0501  0.0041  0.0050
  255loPI   C4A 4074   8.059   4.793   8.324  0.0415  0.0092  0.0589
  255loPI   C5A 4075   7.826   5.001   7.905  0.0129  0.0081 -0.3539
  255loPI   C6A 4076   7.294   5.057   7.830 -0.0218 -0.1082  0.2548
  255loPI   C1B 4077   7.729   4.421   9.279  0.1650  0.0352  0.0916
  255loPI   C2B 4078   7.549   4.496   8.876 -0.1176  0.0228  0.0211
  255loPI   C3B 4079   7.637   4.478   8.524 -0.2697  0.0045  0.0171
  255loPI   C4B 4080   7.614   4.541   8.033 -0.3331 -0.1470 -0.1813
  256loPI    C1 4081  15.336   1.647  10.693 -0.1172  0.2440 -0.3319
  256loPI    C2 4082  15.397   1.917  10.983  0.3458 -0.0507 -0.1425
  256loPI    C3 4083  15.024   1.805  10.888  0.1728  0.3003  0.1009
  256loPI   PO4 4084  15.424   1.787  10.472 -0.1290 -0.0426  0.0183
  256loPI   GL1 4085  15.521   1.919  10.094 -0.2052  0.1197  0.1590
  256loPI   GL2 4086  15.402   2.326  10.101 -0.2354 -0.1149  0.0127
  256loPI   C1A 4087  15.625   2.129   9.591  0.0672 -0.1585  0.0679
  256loPI   C2A 4088  15.772   2.118   9.172  0.0536  0.1914  0.0196
  256loPI   C3A 4089  15.764   1.991   8.749  0.0845 -0.0726  0.0169
  256loPI   C4A 4090  15.604   2.041   8.288 -0.3068  0.2530 -0.0942
  256loPI   C5A 4091  15.679   2.256   7.993 -0.0834  0.0511  0.0475
  256loPI   C6A 4092  15.503   2.518   7.803  0.2579 -0.0455 -0.1309
  256loPI   C1B 4093  15.364   2.500   9.690 -0.1104  0.1011 -0.0474
  256loPI   C2B 4094  15.394   2.479   9.201  0.1672  0.0672  0.2960
  256loPI   C3B 4095  15.465   2.442   8.842  0.1370 -0.3081  0.2267
  256loPI   C4B 4096  15.786   2.469   8.505 -0.1776  0.0096 -0.3240
  257loPI    C1 4097   9.909  12.811  10.652 -0.2896 -0.1143 -0.2319
  257loPI    C2 4098   9.828  12.955  11.016 -0.1605 -0.1026 -0.2071
  257loPI    C3 4099   9.541  12.773  10.804 -0.1940 -0.2572 -0.0321
  257loPI   PO4 4100  10.020  12.864  10.402  0.1115  0.1695 -0.1440
  257loPI   GL1 4101  10.248  12.915  10.063 -0.0836  0.1779  0.1476
  257loPI   GL2 4102  10.024  13.126   9.924 -0.0009  0.0035  0.2160
  257loPI   C1A 4103  10.403  12.679   9.723  0.1757 -0.0006 -0.0019
  257loPI   C2A 4104  10.387  12.594   9.403  0.0405 -0.0441  0.1018
  257loPI   C3A 4105  10.433  12.529   9.063 -0.0824  0.2238 -0.1054
  257loPI   C4A 4106  10.526  12.607   8.700  0.1551  0.0337  0.0347
  257loPI   C5A 4107  10.537  12.532   8.264 -0.1001 -0.1741  0.2300
  257loPI   C6A 4108  10.307  12.246   7.979 -0.0130  0.3034 -0.2793
  257loPI   C1B 4109  10.343  13.205   9.581  0.0281  0.0386  0.0797
  257loPI   C2B 4110  10.370  13.062   9.122  0.0192 -0.0780 -0.1964
  257loPI   C3B 4111  10.251  13.073   8.612  0.1240 -0.0094 -0.0552
  257loPI   C4B 4112  10.288  12.980   8.136  0.0833  0.0561  0.1037
  258loPI    C1 4113  17.039  15.678  10.887 -0.0305 -0.1560  0.2008
  258loPI    C2 4114  17.275  15.438  11.104  0.0092 -0.3646 -0.0672
  258loPI    C3 4115  16.877  15.411  11.138  0.0172 -0.2389  0.1441
  258loPI   PO4 4116  17.093  15.606  10.552 -0.1852  0.1206  0.2843
  258loPI   GL1 4117  17.016  15.670  10.166 -0.0173 -0.1664  0.0303
  258loPI   GL2 4118  17.032  16.096  10.106  0.3716  0.3881  0.2574
  258loPI   C1A 4119  17.062  15.493   9.847  0.4662  0.1724  0.3291
  258loPI   C2A 4120  17.243  15.267   9.517 -0.1002 -0.2117 -0.1216
  258loPI   C3A 4121  17.535  15.040   9.241  0.2272  0.0872  0.2916
  258loPI   C4A 4122  17.538  15.105   8.794  0.2603 -0.0720 -0.0811
  258loPI   C5A 4123  17.183  15.333   8.508 -0.2233 -0.5733  0.1715
  258loPI   C6A 4124  17.049  15.700   8.236 -0.0415  0.0281  0.3201
  258loPI   C1B 4125  17.074  16.056   9.744  0.0725 -0.3429 -0.1646
  258loPI   C2B 4126  16.866  15.755   9.443  0.2680  0.2862  0.0281
  258loPI   C3B 4127  16.661  15.638   9.092 -0.3276  0.1749  0.1701
  258loPI   C4B 4128  16.274  15.488   8.920  0.2136  0.0794 -0.0526
  259loPI    C1 4129   6.701  10.216   9.984  0.1595  0.0820  0.0171
  259loPI    C2 4130   7.047  10.127  10.164  0.0084  0.0646  0.3047
  259loPI    C3 4131   6.704   9.974  10.303 -0.0969 -0.0747 -0.0956
  259loPI   PO4 4132   6.739  10.116   9.714  0.1131  0.0954  0.2863
  259loPI   GL1 4133   6.720  10.054   9.291 -0.1673 -0.2835 -0.2570
  259loPI   GL2 4134   6.987   9.892   9.326 -0.2857 -0.0351 -0.0820
  259loPI   C1A 4135   6.737  10.213   8.954  0.0941 -0.0532 -0.1662
  259loPI   C2A 4136   6.784  10.176   8.498 -0.1584  0.1007 -0.0113
  259loPI   C3A 4137   6.859  10.462   8.138  0.0073 -0.0879  0.4684
  259loPI   C4A 4138   7.192  10.468   7.850 -0.0141  0.0715  0.0974
  259loPI   C5A 4139   7.474  10.305   7.491 -0.2200 -0.0739 -0.1377
  259loPI   C6A 4140   7.907  10.381   7.363 -0.0099 -0.0603  0.0316
  259loPI   C1B 4141   6.951   9.744   9.018 -0.0098  0.0148  0.0431
  259loPI   C2B 4142   7.086   9.730   8.596  0.4238  0.0797 -0.1654
  259loPI   C3B 4143   7.036   9.958   8.119 -0.1505  0.1646 -0.1837
  259loPI   C4B 4144   7.114   9.982   7.734  0.2662 -0.1315  0.5033
  260loPI    C1 4145   7.853  18.118   9.919  0.2232 -0.0254  0.0274
  260loPI    C2 4146   7.813  17.722   9.890  0.0258 -0.0115  0.0968
  260loPI    C3 4147   7.841  17.894  10.250 -0.3878  0.0819  0.0892
  260loPI   PO4 4148   8.011  18.148   9.693  0.1798  0.0647 -0.2267
  260loPI   GL1 4149   8.353  18.402   9.562 -0.1845 -0.2072 -0.1153
  260loPI   GL2 4150   8.613  18.115   9.690 -0.0198 -0.1722 -0.0235
  260loPI   C1A 4151   8.669  18.305   9.180 -0.3604  0.1656  0.2153
  260loPI   C2A 4152   8.821  18.388   8.791 -0.0051  0.1815 -0.1161
  260loPI   C3A 4153   8.874  18.307   8.409  0.0160 -0.3740 -0.1615
  260loPI   C4A 4154   8.692  18.525   8.101  0.0222 -0.0357  0.0792
  260loPI   C5A 4155   8.800  18.900   7.734  0.2085 -0.0120 -0.0209
  260loPI   C6A 4156   8.852  18.931   7.226  0.0452 -0.0279 -0.0564
  260loPI   C1B 4157   8.758  17.828   9.458 -0.2650  0.0921 -0.4876
  260loPI   C2B 4158   8.996  17.927   9.067  0.3080  0.0074 -0.1951
  260loPI   C3B 4159   9.128  18.025   8.710 -0.1297  0.0938  0.4087
  260loPI   C4B 4160   9.281  18.038   8.359  0.0885  0.2900  0.0931
  261loPI    C1 4161   4.584  17.116  10.442  0.2547  0.0767 -0.0787
  261loPI    C2 4162   4.729  17.311  10.760  0.1931 -0.0390  0.0208
  261loPI    C3 4163   4.635  16.923  10.789 -0.1796  0.0446 -0.0271
  261loPI   PO4 4164   4.539  17.269  10.264  0.1229 -0.0853  0.2241
  261loPI   GL1 4165   4.639  17.301   9.823 -0.0705  0.0104 -0.0234
  261loPI   GL2 4166   4.882  17.219   9.628 -0.1469  0.0598  0.0602
  261loPI   C1A 4167   4.382  17.129   9.548 -0.1690 -0.5381 -0.0089
  261loPI   C2A 4168   4.311  17.260   9.163 -0.0615 -0.2353 -0.1538
  261loPI   C3A 4169   4.301  17.174   8.800  0.1037  0.0193  0.4297
  261loPI   C4A 4170   4.396  17.195   8.364  0.1770  0.2186 -0.1301
  261loPI   C5A 4171   4.386  17.060   8.046 -0.1167  0.0526 -0.0331
  261loPI   C6A 4172   4.401  16.881   7.666 -0.1103  0.0533  0.0261
  261loPI   C1B 4173   4.780  17.415   9.256 -0.1284  0.1148 -0.0442
  261loPI   C2B 4174   4.614  17.530   8.869 -0.3096  0.1185  0.2499
  261loPI   C3B 4175   4.536  17.682   8.478  0.1621  0.0763  0.1434
  261loPI   C4B 4176   4.699  17.668   8.005  0.0032 -0.0014 -0.0337
  262loPI    C1 4177   5.425  12.626  10.473  0.0540 -0.1720  0.2898
  262loPI    C2 4178   5.100  12.721  10.687 -0.0401 -0.0744  0.1057
  262loPI    C3 4179   5.355  13.007  10.572  0.0924 -0.1463  0.2180
  262loPI   PO4 4180   5.360  12.480  10.263  0.0154 -0.0322 -0.2696
  262loPI   GL1 4181   5.440  12.291   9.818 -0.0255 -0.2221  0.1794
  262loPI   GL2 4182   5.647  12.287   9.575 -0.1684 -0.2470 -0.0989
  262loPI   C1A 4183   5.199  12.348   9.370  0.2452 -0.0216  0.2455
  262loPI   C2A 4184   5.172  12.469   8.992 -0.0345 -0.2103 -0.1347
  262loPI   C3A 4185   5.006  12.400   8.563 -0.0525  0.1982  0.2475
  262loPI   C4A 4186   4.765  12.225   8.244 -0.2211 -0.2287 -0.1740
  262loPI   C5A 4187   4.638  11.946   7.838 -0.1042  0.1769 -0.1286
  262loPI   C6A 4188   4.492  11.990   7.446  0.0228 -0.2104 -0.1415
  262loPI   C1B 4189   5.636  12.303   9.083  0.1118 -0.1281  0.3489
  262loPI   C2B 4190   5.471  12.243   8.672 -0.1403  0.0399  0.0709
  262loPI   C3B 4191   5.361  12.035   8.366  0.0689 -0.1140  0.0275
  262loPI   C4B 4192   5.116  11.855   8.159 -0.0290 -0.0445  0.0834
  263loPI    C1 4193  15.210  14.677  10.347 -0.0658 -0.0179 -0.1857
  263loPI    C2 4194  14.883  14.454  10.292  0.0997 -0.2632 -0.1896
  263loPI    C3 4195  15.096  14.417  10.628  0.0774 -0.0431 -0.1499
  263loPI   PO4 4196  15.240  14.759  10.122  0.1059 -0.2505 -0.0767
  263loPI   GL1 4197  15.206  15.110   9.930 -0.1189  0.1271 -0.2248
  263loPI   GL2 4198  15.358  15.266   9.684 -0.0306  0.3262 -0.0988
  263loPI   C1A 4199  15.101  14.860   9.550 -0.1372  0.0127 -0.0191
  263loPI   C2A 4200  14.917  14.478   9.288 -0.1305 -0.1817 -0.0740
  263loPI   C3A 4201  15.051  14.475   8.893  0.0623  0.0901  0.1984
  263loPI   C4A 4202  15.294  14.372   8.526  0.4259 -0.0239 -0.2345
  263loPI   C5A 4203  15.604  14.320   8.244  0.1665  0.0459 -0.0952
  263loPI   C6A 4204  16.050  14.359   8.116 -0.1575  0.1697 -0.0421
  263loPI   C1B 4205  15.459  15.542   9.357  0.3104  0.1446 -0.1662
  263loPI   C2B 4206  15.404  15.436   8.998 -0.0539 -0.3031 -0.0872
  263loPI   C3B 4207  15.317  15.557   8.573  0.1097 -0.0842 -0.1651
  263loPI   C4B 4208  15.066  15.618   8.225 -0.2926 -0.2388  0.1525
  264loPI    C1 4209   3.974   9.684  10.135  0.0453  0.0242 -0.0210
  264loPI    C2 4210   3.872   9.937  10.428  0.3440 -0.0298  0.1340
  264loPI    C3 4211   3.962   9.557  10.514  0.3062 -0.0805 -0.0462
  264loPI   PO4 4212   4.184   9.863   9.995  0.0766  0.2503 -0.1139
  264loPI   GL1 4213   4.277   9.955   9.652  0.0409  0.2103 -0.0022
  264loPI   GL2 4214   4.090  10.185   9.596  0.1461  0.0729  0.1340
  264loPI   C1A 4215   4.546   9.945   9.277 -0.0149  0.2555  0.0113
  264loPI   C2A 4216   4.680  10.054   8.879  0.1144  0.1982 -0.0948
  264loPI   C3A 4217   4.796  10.230   8.547 -0.1535  0.1181  0.0737
  264loPI   C4A 4218   5.004  10.430   8.162  0.1019 -0.0355 -0.0895
  264loPI   C5A 4219   5.218  10.522   7.915  0.0304 -0.0199  0.4224
  264loPI   C6A 4220   5.187  10.862   7.705 -0.0903  0.2608 -0.1837
  264loPI   C1B 4221   4.097  10.298   9.151 -0.3923 -0.2412 -0.0612
  264loPI   C2B 4222   4.289  10.306   8.720  0.1366 -0.0838 -0.2480
  264loPI   C3B 4223   4.175  10.304   8.335 -0.1461 -0.1579 -0.0241
  264loPI   C4B 4224   4.090  10.289   7.864 -0.0004  0.1979  0.1318
  265loPI    C1 4225  12.888   8.872  11.186  0.3047 -0.0750 -0.0643
  265loPI    C2 4226  13.015   8.495  11.223  0.0631 -0.1505  0.0163
  265loPI    C3 4227  12.771   8.651  11.499 -0.2371 -0.0982 -0.2720
  265loPI   PO4 4228  12.761   8.927  10.932 -0.1622 -0.1066  0.0770
  265loPI   GL1 4229  12.842   8.977  10.510  0.0802 -0.2155 -0.2524
  265loPI   GL2 4230  12.659   9.223  10.479 -0.0910  0.0545 -0.0074
  265loPI   C1A 4231  13.090   9.370  10.271 -0.1389 -0.1918 -0.0184
  265loPI   C2A 4232  13.061   9.333   9.809  0.2617  0.0313 -0.1565
  265loPI   C3A 4233  12.919   9.098   9.456 -0.3094  0.0006  0.2561
  265loPI   C4A 4234  12.892   9.073   9.011 -0.1487  0.2997  0.3032
  265loPI   C5A 4235  13.160   8.954   8.657 -0.1463  0.0275 -0.0057
  265loPI   C6A 4236  13.525   8.934   8.316 -0.1201 -0.1182  0.1040
  265loPI   C1B 4237  12.487   9.402  10.106 -0.2174 -0.1418 -0.2712
  265loPI   C2B 4238  12.143   9.508   9.656  0.1291 -0.2017  0.0096
  265loPI   C3B 4239  12.047   9.547   9.159 -0.1616 -0.0105  0.0558
  265loPI   C4B 4240  12.091   9.501   8.701  0.2393 -0.1436 -0.1369
  266loPI    C1 4241   9.602  11.971  10.349  0.0916 -0.0189  0.1348
  266loPI    C2 4242   9.403  12.056  10.685  0.2346 -0.1806  0.2622
  266loPI    C3 4243   9.462  11.675  10.579  0.1742 -0.1301  0.0431
  266loPI   PO4 4244   9.849  12.046  10.293 -0.4852 -0.1556 -0.4817
  266loPI   GL1 4245  10.103  12.135   9.991  0.0878 -0.1934  0.0188
  266loPI   GL2 4246  10.048  12.490  10.071 -0.0183  0.0344 -0.0538
  266loPI   C1A 4247  10.062  12.197   9.497  0.1525 -0.0375  0.3091
  266loPI   C2A 4248  10.048  12.280   9.060 -0.0606 -0.0271 -0.0024
  266loPI   C3A 4249  10.207  12.220   8.670  0.2485  0.1482 -0.2129
  266loPI   C4A 4250   9.975  12.120   8.334 -0.3155  0.1009 -0.1607
  266loPI   C5A 4251   9.807  12.107   7.981  0.0498 -0.0300 -0.1985
  266loPI   C6A 4252   9.467  12.304   7.871  0.0404 -0.2321  0.2945
  266loPI   C1B 4253   9.824  12.614   9.629 -0.0484 -0.2670  0.2711
  266loPI   C2B 4254   9.635  12.419   9.240  0.0998 -0.0748 -0.2014
  266loPI   C3B 4255   9.590  12.291   8.727 -0.0451  0.0243 -0.0722
  266loPI   C4B 4256   9.405  12.145   8.361  0.1094 -0.0301 -0.3685
  267loPI    C1 4257   4.313   5.361  10.332  0.0009  0.0377 -0.1745
  267loPI    C2 4258   4.110   5.687  10.220 -0.1041  0.0895  0.1569
  267loPI    C3 4259   4.230   5.646  10.600  0.2124 -0.0987  0.0406
  267loPI   PO4 4260   4.479   5.348  10.148  0.2922 -0.1021 -0.0828
  267loPI   GL1 4261   4.516   5.433   9.776 -0.2972  0.0734  0.0194
  267loPI   GL2 4262   4.517   5.679   9.772 -0.0477 -0.2422 -0.3819
  267loPI   C1A 4263   4.693   5.163   9.455 -0.1440 -0.1865 -0.0877
  267loPI   C2A 4264   4.908   5.256   9.056 -0.1658 -0.3100  0.1175
  267loPI   C3A 4265   4.892   5.299   8.594 -0.3275  0.0239  0.2003
  267loPI   C4A 4266   4.826   5.509   8.145  0.0593 -0.1549 -0.0693
  267loPI   C5A 4267   4.963   5.675   7.684  0.1644 -0.2095 -0.1142
  267loPI   C6A 4268   4.902   6.109   7.695  0.0772 -0.4083  0.2676
  267loPI   C1B 4269   4.603   5.664   9.319  0.0619 -0.2273  0.1481
  267loPI   C2B 4270   4.448   5.388   9.036 -0.1688 -0.0794  0.0814
  267loPI   C3B 4271   4.276   5.299   8.685 -0.1713  0.0647  0.1863
  267loPI   C4B 4272   4.367   5.441   8.239  0.0390  0.0703 -0.0349
  268loPI    C1 4273   0.138  14.805  10.553 -0.1669 -0.0690 -0.0239
  268loPI    C2 4274   0.236  15.106  10.797 -0.0900 -0.1001 -0.0163
  268loPI    C3 4275   0.521  14.913  10.593 -0.1256 -0.2449  0.0690
  268loPI   PO4 4276  -0.103  14.953  10.429  0.2587  0.0795  0.0369
  268loPI   GL1 4277  -0.220  14.744  10.118  0.1871 -0.0579  0.0669
  268loPI   GL2 4278   0.090  14.634  10.094  0.0266 -0.0382  0.2044
  268loPI   C1A 4279  -0.648  14.635  10.038  0.1391 -0.0981 -0.0172
  268loPI   C2A 4280  -1.000  14.624   9.799  0.2363  0.1604 -0.0983
  268loPI   C3A 4281  -0.873  14.463   9.395  0.2842 -0.3924  0.0932
  268loPI   C4A 4282  -0.763  14.577   8.935  0.1308  0.1260 -0.0035
  268loPI   C5A 4283  -0.986  14.516   8.589  0.3399  0.0383 -0.1323
  268loPI   C6A 4284  -1.239  14.411   8.237  0.3352 -0.0833 -0.0544
  268loPI   C1B 4285   0.121  14.519   9.595 -0.1023  0.1204  0.1432
  268loPI   C2B 4286   0.071  14.447   9.188 -0.0827 -0.0742 -0.0515
  268loPI   C3B 4287   0.122  14.529   8.731 -0.0066 -0.1417 -0.1674
  268loPI   C4B 4288  -0.038  14.744   8.371 -0.3010  0.1827 -0.4684
  269loPI    C1 4289   0.394  15.851  10.741  0.1234 -0.1303  0.1707
  269loPI    C2 4290   0.043  16.021  10.832  0.1422 -0.0671  0.1256
  269loPI    C3 4291   0.339  16.016  11.101  0.2617  0.2859  0.0067
  269loPI   PO4 4292   0.515  16.004  10.585  0.2164 -0.1867 -0.0650
  269loPI   GL1 4293   0.562  16.152  10.140  0.0315 -0.0558  0.1059
  269loPI   GL2 4294   0.703  15.968   9.887 -0.2295  0.1357 -0.1196
  269loPI   C1A 4295   0.454  16.627  10.028  0.1602 -0.2633 -0.1421
  269loPI   C2A 4296   0.301  17.068  10.042  0.1999  0.0040 -0.2538
  269loPI   C3A 4297   0.244  17.561   9.927 -0.1076 -0.1554  0.0867
  269loPI   C4A 4298   0.358  18.044   9.559 -0.0621 -0.1440 -0.2605
  269loPI   C5A 4299   0.195  18.066   9.140  0.0241  0.0016 -0.3398
  269loPI   C6A 4300   0.078  17.989   8.730 -0.2025 -0.0461 -0.0747
  269loPI   C1B 4301   0.524  15.839   9.489  0.0140  0.0093  0.3131
  269loPI   C2B 4302   0.574  15.789   9.145  0.1133 -0.0670  0.1302
  269loPI   C3B 4303   0.425  15.644   8.689  0.2698 -0.0063 -0.3437
  269loPI   C4B 4304   0.172  15.955   8.486 -0.0936 -0.1198 -0.2324
  270loPI    C1 4305   1.534  14.880  10.466 -0.0207 -0.2487 -0.0198
  270loPI    C2 4306   1.805  15.093  10.668 -0.1682  0.0176 -0.0975
  270loPI    C3 4307   1.583  14.820  10.858 -0.1204  0.0772  0.0455
  270loPI   PO4 4308   1.610  14.833  10.277  0.0411  0.2065 -0.5025
  270loPI   GL1 4309   1.377  14.811   9.947 -0.0493  0.1234  0.4927
  270loPI   GL2 4310   1.073  14.847  10.020 -0.1209 -0.0989  0.0879
  270loPI   C1A 4311   1.497  14.798   9.546  0.2279 -0.0094  0.2100
  270loPI   C2A 4312   1.256  14.775   9.197  0.2859  0.1086  0.1528
  270loPI   C3A 4313   1.277  14.805   8.819  0.0833 -0.1058 -0.1210
  270loPI   C4A 4314   1.231  14.738   8.408  0.2922 -0.1306 -0.1532
  270loPI   C5A 4315   0.978  14.390   8.313 -0.0677 -0.0773 -0.0074
  270loPI   C6A 4316   1.065  14.064   8.064  0.1547 -0.1251  0.1236
  270loPI   C1B 4317   1.060  15.132   9.652  0.0481  0.1098 -0.3749
  270loPI   C2B 4318   1.119  15.242   9.233 -0.0494 -0.2623 -0.1187
  270loPI   C3B 4319   0.961  15.266   8.831  0.1916 -0.2266  0.1102
  270loPI   C4B 4320   0.914  15.209   8.404  0.0867 -0.0757 -0.0715
  271loPI    C1 4321   2.043   8.718  10.509  0.0659  0.1049  0.0421
  271loPI    C2 4322   1.776   8.655  10.801  0.1666 -0.1928  0.0736
  271loPI    C3 4323   2.125   8.459  10.803  0.3629  0.1471 -0.0005
  271loPI   PO4 4324   1.892   8.645  10.280 -0.3397 -0.1943  0.0591
  271loPI   GL1 4325   1.977   8.809   9.877  0.2364 -0.1915  0.0186
  271loPI   GL2 4326   1.695   9.001   9.819  0.0144  0.4003  0.1446
  271loPI   C1A 4327   2.055   8.617   9.454 -0.2839 -0.2882 -0.2717
  271loPI   C2A 4328   2.323   8.668   8.986  0.0075 -0.0551 -0.4249
  271loPI   C3A 4329   2.548   8.665   8.613 -0.1649 -0.0428 -0.1108
  271loPI   C4A 4330   2.488   8.506   8.245 -0.0058 -0.0874 -0.1073
  271loPI   C5A 4331   2.666   8.189   7.920 -0.1839  0.0081  0.0336
  271loPI   C6A 4332   2.915   7.843   7.954  0.1120 -0.2850 -0.0524
  271loPI   C1B 4333   1.791   9.084   9.411 -0.0085 -0.1614 -0.0581
  271loPI   C2B 4334   1.943   9.091   8.957 -0.2621 -0.1507 -0.0834
  271loPI   C3B 4335   2.270   9.096   8.722  0.0050  0.1373 -0.1122
  271loPI   C4B 4336   2.328   8.983   8.247  0.0404  0.0618  0.0764
  272loPI    C1 4337   5.031  14.069  10.339  0.1128  0.2539  0.1621
  272loPI    C2 4338   5.278  13.821  10.532 -0.0497  0.2350  0.3490
  272loPI    C3 4339   5.264  14.207  10.634  0.0474  0.2780  0.2026
  272loPI   PO4 4340   4.823  13.900  10.310 -0.0600 -0.5236  0.1054
  272loPI   GL1 4341   4.385  13.919   9.915  0.0755 -0.1500  0.0118
  272loPI   GL2 4342   4.327  13.536   9.919  0.1476  0.1162 -0.1455
  272loPI   C1A 4343   4.246  13.964   9.524  0.2848  0.0797 -0.3647
  272loPI   C2A 4344   4.079  14.018   9.134  0.3057 -0.1293  0.2498
  272loPI   C3A 4345   4.029  14.158   8.700  0.1028 -0.1804 -0.1682
  272loPI   C4A 4346   4.017  14.013   8.332 -0.3123  0.0099 -0.2219
  272loPI   C5A 4347   4.295  13.789   8.029  0.0994  0.2697 -0.3590
  272loPI   C6A 4348   4.456  13.532   7.926 -0.0320  0.4725 -0.0237
  272loPI   C1B 4349   4.168  13.449   9.559 -0.0832 -0.0500  0.2732
  272loPI   C2B 4350   4.058  13.515   9.187 -0.0213 -0.1979 -0.0043
  272loPI   C3B 4351   4.231  13.629   8.799  0.0191 -0.0894 -0.0522
  272loPI   C4B 4352   4.162  13.530   8.425  0.2333  0.1083  0.0937
  273loPI    C1 4353  17.652   0.877  10.507 -0.2404 -0.0134 -0.1075
  273loPI    C2 4354  17.636   0.653  10.839  0.0590  0.0740 -0.0307
  273loPI    C3 4355  17.479   1.021  10.838  0.2403  0.1529  0.0806
  273loPI   PO4 4356  17.576   0.765  10.314  0.0551 -0.0959  0.1693
  273loPI   GL1 4357  17.144   0.690  10.091  0.0230  0.0520 -0.2001
  273loPI   GL2 4358  17.387   0.706   9.886 -0.1436  0.2029 -0.2905
  273loPI   C1A 4359  17.099   1.055   9.770 -0.0728 -0.0580 -0.2978
  273loPI   C2A 4360  17.170   1.195   9.388  0.2142  0.3770 -0.0580
  273loPI   C3A 4361  17.187   1.043   8.984  0.1271 -0.0447 -0.0802
  273loPI   C4A 4362  17.489   0.851   8.758 -0.0606  0.2719 -0.0895
  273loPI   C5A 4363  17.919   0.804   8.600  0.1084 -0.2913  0.2433
  273loPI   C6A 4364  18.286   0.949   8.561 -0.3082 -0.0708  0.1875
  273loPI   C1B 4365  17.305   0.565   9.508 -0.0796 -0.0797 -0.2199
  273loPI   C2B 4366  17.247   0.613   9.120 -0.0334  0.1211  0.0616
  273loPI   C3B 4367  17.177   0.431   8.737  0.2572 -0.1951 -0.1647
  273loPI   C4B 4368  17.196   0.084   8.391 -0.3907  0.1689 -0.0359
  274loPI    C1 4369  15.663  11.436  10.255  0.1397  0.2361  0.1861
  274loPI    C2 4370  15.621  11.564  10.631  0.0303 -0.0554  0.2756
  274loPI    C3 4371  15.649  11.172  10.555 -0.0414 -0.0036 -0.0282
  274loPI   PO4 4372  15.788  11.523  10.121  0.1601  0.0210 -0.1592
  274loPI   GL1 4373  15.881  11.635   9.761  0.3056 -0.0606 -0.0969
  274loPI   GL2 4374  16.156  11.570   9.747  0.3231 -0.1097  0.0432
  274loPI   C1A 4375  15.874  11.688   9.331  0.1838 -0.2179  0.1529
  274loPI   C2A 4376  15.944  11.479   8.984  0.3133 -0.2137  0.1960
  274loPI   C3A 4377  15.784  11.496   8.605 -0.1872  0.3129  0.0631
  274loPI   C4A 4378  15.824  11.440   8.176 -0.4089 -0.1819 -0.1458
  274loPI   C5A 4379  15.633  11.396   7.876  0.1668 -0.1052 -0.0323
  274loPI   C6A 4380  15.593  11.662   7.456  0.2030 -0.0154 -0.1260
  274loPI   C1B 4381  16.401  11.433   9.406  0.2898  0.1125 -0.1046
  274loPI   C2B 4382  16.417  11.383   8.909 -0.1832  0.2399  0.1665
  274loPI   C3B 4383  16.339  11.439   8.499 -0.1106 -0.1221  0.0892
  274loPI   C4B 4384  16.519  11.283   8.129  0.3490 -0.1565 -0.0934
  275loPI    C1 4385   1.657   6.366  10.267 -0.0038  0.2558  0.0281
  275loPI    C2 4386   1.730   6.219  10.631 -0.0279  0.0947 -0.0315
  275loPI    C3 4387   1.450   6.499  10.582 -0.1769 -0.0396  0.0427
  275loPI   PO4 4388   1.943   6.432  10.182  0.0168  0.3814  0.2009
  275loPI   GL1 4389   2.151   6.042   9.939 -0.0734  0.0441 -0.0305
  275loPI   GL2 4390   1.943   5.748   9.787  0.2897  0.1949  0.0900
  275loPI   C1A 4391   2.070   6.182   9.530 -0.2662 -0.0162 -0.1381
  275loPI   C2A 4392   2.034   6.133   9.149 -0.3774 -0.2451  0.2562
  275loPI   C3A 4393   1.969   6.101   8.630  0.0013  0.2485 -0.2630
  275loPI   C4A 4394   1.945   6.024   8.204  0.0876  0.0011  0.1866
  275loPI   C5A 4395   1.672   6.256   7.907 -0.0150  0.1926  0.1580
  275loPI   C6A 4396   1.389   6.475   7.723 -0.0297 -0.1368 -0.1016
  275loPI   C1B 4397   2.107   5.715   9.352  0.2769 -0.2486  0.1775
  275loPI   C2B 4398   2.114   5.600   8.891 -0.0275 -0.0282 -0.2208
  275loPI   C3B 4399   2.157   5.577   8.449 -0.1519  0.1901  0.0916
  275loPI   C4B 4400   2.284   5.343   8.079 -0.0332 -0.2141 -0.2242
  276loPI    C1 4401   4.557  16.434  10.605 -0.2327  0.0031 -0.0510
  276loPI    C2 4402   4.787  16.645  10.356 -0.0536 -0.1936 -0.0552
  276loPI    C3 4403   4.935  16.322  10.539 -0.2465 -0.1683  0.1494
  276loPI   PO4 4404   4.272  16.460  10.472 -0.1511  0.0186  0.3189
  276loPI   GL1 4405   3.945  16.726  10.246 -0.0249  0.2630  0.0584
  276loPI   GL2 4406   3.794  16.976  10.162  0.3301 -0.2434 -0.0639
  276loPI   C1A 4407   4.021  16.812   9.796 -0.2555  0.0951 -0.2521
  276loPI   C2A 4408   3.927  16.575   9.438  0.0697  0.2122  0.0225
  276loPI   C3A 4409   4.035  16.351   9.038  0.1880  0.1099  0.2059
  276loPI   C4A 4410   4.144  16.216   8.605 -0.0764 -0.0617 -0.0432
  276loPI   C5A 4411   4.169  15.909   8.318  0.0462 -0.0129  0.2173
  276loPI   C6A 4412   4.315  15.647   7.968  0.0463 -0.0280  0.3005
  276loPI   C1B 4413   3.545  16.964   9.801 -0.0298 -0.3027 -0.0362
  276loPI   C2B 4414   3.400  16.892   9.454  0.2848  0.0226  0.1546
  276loPI   C3B 4415   3.338  16.931   8.988  0.0562 -0.0645 -0.0119
  276loPI   C4B 4416   3.248  17.032   8.603 -0.1861  0.0371 -0.0432
  277loPI    C1 4417  15.818   0.859  11.074  0.1523 -0.2439  0.1225
  277loPI    C2 4418  16.039   1.189  11.121 -0.0588 -0.0637 -0.1244
  277loPI    C3 4419  16.053   0.898  11.396  0.1730  0.1234  0.0663
  277loPI   PO4 4420  15.733   0.861  10.795  0.1334 -0.3243  0.0758
  277loPI   GL1 4421  15.928   0.726  10.392 -0.1052 -0.2692  0.0133
  277loPI   GL2 4422  16.279   0.909  10.252 -0.0405  0.0590  0.0183
  277loPI   C1A 4423  15.877   0.907  10.028  0.0388  0.4522 -0.1055
  277loPI   C2A 4424  15.622   0.953   9.590 -0.0306 -0.0979 -0.0927
  277loPI   C3A 4425  15.659   0.968   9.155 -0.3905 -0.0054 -0.0366
  277loPI   C4A 4426  15.451   1.048   8.703  0.1575  0.1655 -0.1091
  277loPI   C5A 4427  15.782   1.083   8.315  0.0232 -0.0416  0.0790
  277loPI   C6A 4428  16.038   0.991   8.002 -0.0971 -0.1858  0.0184
  277loPI   C1B 4429  16.345   0.750   9.805  0.5175 -0.2188  0.0065
  277loPI   C2B 4430  16.195   0.729   9.477 -0.1268  0.1696 -0.3875
  277loPI   C3B 4431  16.236   0.771   9.025 -0.2002 -0.0148 -0.2003
  277loPI   C4B 4432  16.342   0.678   8.605 -0.0845  0.2633  0.2191
  278loPI    C1 4433   5.178   7.906  10.165 -0.1474 -0.1386 -0.0311
  278loPI    C2 4434   5.516   7.693  10.151 -0.0691 -0.0227  0.0661
  278loPI    C3 4435   5.285   7.680  10.477 -0.1611 -0.1044 -0.0015
  278loPI   PO4 4436   5.076   7.878   9.884  0.0034  0.1521  0.1336
  278loPI   GL1 4437   4.969   7.590   9.530  0.1043 -0.0324 -0.3223
  278loPI   GL2 4438   4.705   7.497   9.403  0.1205 -0.0204  0.1072
  278loPI   C1A 4439   5.200   7.447   9.188 -0.0914 -0.0103  0.0550
  278loPI   C2A 4440   5.401   7.624   8.769 -0.1190 -0.2117 -0.1748
  278loPI   C3A 4441   5.582   7.685   8.391  0.1397 -0.0872 -0.2921
  278loPI   C4A 4442   5.692   7.543   7.975  0.1901 -0.0077  0.0186
  278loPI   C5A 4443   5.478   7.174   7.773  0.1281 -0.0491  0.2156
  278loPI   C6A 4444   5.542   6.845   7.470  0.0364 -0.1409  0.0697
  278loPI   C1B 4445   4.627   7.783   9.004  0.0512 -0.2163  0.1720
  278loPI   C2B 4446   4.392   7.756   8.617 -0.2371  0.0329  0.3841
  278loPI   C3B 4447   4.166   7.659   8.259  0.2443  0.0863  0.1731
  278loPI   C4B 4448   4.069   7.831   7.782  0.1277 -0.0057  0.0620
  279loPI    C1 4449   7.207  17.084  10.292  0.0232 -0.0210 -0.0014
  279loPI    C2 4450   7.478  16.790  10.298 -0.0596 -0.0973  0.0375
  279loPI    C3 4451   7.293  16.898  10.636  0.0790  0.1023  0.0520
  279loPI   PO4 4452   7.077  17.026  10.065 -0.0644 -0.3408  0.2797
  279loPI   GL1 4453   7.005  16.810   9.739  0.0744  0.3413  0.2249
  279loPI   GL2 4454   7.315  16.624   9.805 -0.0627  0.2353 -0.1863
  279loPI   C1A 4455   6.707  16.676   9.410  0.1720  0.1920 -0.0247
  279loPI   C2A 4456   6.704  16.676   8.912  0.2278 -0.3203 -0.0795
  279loPI   C3A 4457   6.782  16.603   8.493  0.0385 -0.3118 -0.0525
  279loPI   C4A 4458   6.666  16.750   8.094  0.0562 -0.1455 -0.0077
  279loPI   C5A 4459   6.568  16.557   7.686  0.1758 -0.1704 -0.2419
  279loPI   C6A 4460   6.742  16.474   7.333  0.3226  0.0751 -0.0759
  279loPI   C1B 4461   7.393  16.823   9.431  0.1752 -0.4155  0.2307
  279loPI   C2B 4462   7.289  16.782   8.965 -0.0527 -0.1181  0.0451
  279loPI   C3B 4463   7.259  16.728   8.510 -0.1943  0.0484  0.2262
  279loPI   C4B 4464   7.175  16.822   8.028  0.0394 -0.2586  0.2437
  280loPI    C1 4465  16.444  14.619  10.470  0.0057 -0.0271  0.2451
  280loPI    C2 4466  16.730  14.606  10.191 -0.0972 -0.2866  0.1490
  280loPI    C3 4467  16.828  14.595  10.579  0.0338 -0.1553  0.1206
  280loPI   PO4 4468  16.225  14.739  10.277  0.2141  0.1618 -0.0924
  280loPI   GL1 4469  15.910  14.731   9.968  0.0655 -0.1344  0.1840
  280loPI   GL2 4470  15.615  14.849   9.886 -0.0096  0.2782  0.2475
  280loPI   C1A 4471  15.976  14.488   9.603 -0.0008 -0.0721 -0.2493
  280loPI   C2A 4472  15.959  14.464   9.305 -0.0176 -0.1491 -0.2810
  280loPI   C3A 4473  16.095  14.460   8.941  0.1492 -0.1467  0.0535
  280loPI   C4A 4474  16.303  14.486   8.602 -0.0694 -0.0404  0.1276
  280loPI   C5A 4475  16.500  14.546   8.342 -0.1359 -0.3984  0.1626
  280loPI   C6A 4476  16.410  14.526   7.839 -0.2248 -0.0151  0.0375
  280loPI   C1B 4477  15.653  14.964   9.476 -0.0135 -0.0685 -0.1635
  280loPI   C2B 4478  15.588  14.805   9.138 -0.0025 -0.0298  0.0828
  280loPI   C3B 4479  15.667  14.701   8.705  0.3614 -0.1626  0.0412
  280loPI   C4B 4480  15.915  14.780   8.366  0.0319 -0.2641 -0.0075
  281loPI    C1 4481  12.869   5.882  10.524 -0.0632 -0.0160  0.1359
  281loPI    C2 4482  12.572   6.096  10.363  0.0758  0.2408  0.2163
  281loPI    C3 4483  12.547   5.973  10.743 -0.1181 -0.1097  0.0948
  281loPI   PO4 4484  12.995   5.729  10.305 -0.1011 -0.0133 -0.2247
  281loPI   GL1 4485  12.938   5.758   9.888 -0.1117 -0.0388  0.1719
  281loPI   GL2 4486  13.261   5.564   9.856  0.7306  0.0546 -0.2684
  281loPI   C1A 4487  12.661   5.805   9.611  0.0496  0.2648 -0.1578
  281loPI   C2A 4488  12.730   5.817   9.136 -0.2672  0.0165  0.0848
  281loPI   C3A 4489  12.841   5.743   8.762 -0.0061  0.1533 -0.3114
  281loPI   C4A 4490  12.716   5.599   8.348 -0.1901  0.0522 -0.1145
  281loPI   C5A 4491  12.620   5.206   8.217  0.0730  0.0917 -0.2772
  281loPI   C6A 4492  12.751   4.869   8.088  0.1838  0.1198 -0.5036
  281loPI   C1B 4493  13.176   5.694   9.407  0.4905 -0.1166 -0.0140
  281loPI   C2B 4494  13.296   5.640   8.981 -0.1254  0.0976 -0.3494
  281loPI   C3B 4495  13.365   5.787   8.581  0.1438 -0.0164 -0.0590
  281loPI   C4B 4496  13.342   5.832   8.190 -0.2398 -0.0252 -0.0427
  282loPI    C1 4497  11.493  11.298  10.579 -0.3089  0.0609  0.2707
  282loPI    C2 4498  11.654  11.410  10.928  0.0088  0.1524  0.0996
  282loPI    C3 4499  11.600  11.022  10.848  0.2550  0.1133  0.1147
  282loPI   PO4 4500  11.657  11.511  10.372 -0.2719 -0.2068  0.1105
  282loPI   GL1 4501  11.636  11.587   9.965  0.0295 -0.0804 -0.1070
  282loPI   GL2 4502  11.882  11.934   9.871  0.0537 -0.2461  0.3738
  282loPI   C1A 4503  11.476  11.733   9.644 -0.3247 -0.1893  0.0999
  282loPI   C2A 4504  11.541  11.730   9.118 -0.1178 -0.1429  0.2270
  282loPI   C3A 4505  11.763  11.740   8.689  0.1268 -0.0714  0.0430
  282loPI   C4A 4506  11.655  11.701   8.266  0.1029 -0.2197  0.0137
  282loPI   C5A 4507  11.475  11.590   7.824 -0.1749  0.0660  0.0639
  282loPI   C6A 4508  11.166  11.734   7.678  0.1014 -0.0118 -0.2078
  282loPI   C1B 4509  12.012  11.890   9.470 -0.0594 -0.2056 -0.2218
  282loPI   C2B 4510  12.011  11.932   9.073 -0.1505 -0.3935  0.0579
  282loPI   C3B 4511  12.213  11.904   8.666 -0.0524  0.2341 -0.0241
  282loPI   C4B 4512  12.296  11.805   8.192  0.0483 -0.3249  0.0323
  283loPI    C1 4513   7.360   0.168  10.106 -0.1079 -0.1456 -0.2133
  283loPI    C2 4514   7.505   0.525  10.212  0.1244 -0.2298 -0.2421
  283loPI    C3 4515   7.125   0.432  10.293  0.0869 -0.0095 -0.1573
  283loPI   PO4 4516   7.367   0.103   9.762 -0.1753 -0.0688 -0.2941
  283loPI   GL1 4517   7.570  -0.114   9.498 -0.0756  0.2972 -0.0444
  283loPI   GL2 4518   7.643  -0.400   9.399 -0.1227  0.3184  0.2927
  283loPI   C1A 4519   7.420  -0.106   9.074 -0.1473 -0.0096  0.3101
  283loPI   C2A 4520   7.493   0.000   8.725 -0.1486  0.1058  0.3707
  283loPI   C3A 4521   7.503  -0.080   8.422 -0.1679  0.3475 -0.3194
  283loPI   C4A 4522   7.218  -0.079   8.125 -0.1704 -0.1887  0.1987
  283loPI   C5A 4523   6.924  -0.036   7.874 -0.0116 -0.4797 -0.0392
  283loPI   C6A 4524   6.661   0.212   7.755  0.0557 -0.1489  0.3084
  283loPI   C1B 4525   7.865  -0.316   9.007  0.0516  0.0386  0.1500
  283loPI   C2B 4526   7.918  -0.271   8.592 -0.2674  0.1746  0.2269
  283loPI   C3B 4527   8.062  -0.529   8.249 -0.0004 -0.1699 -0.0169
  283loPI   C4B 4528   8.211  -0.436   7.849  0.0291 -0.5323 -0.0768
  284loPI    C1 4529  12.165  13.265  10.447  0.1510  0.1127 -0.1724
  284loPI    C2 4530  12.548  13.155  10.413  0.1639  0.1498 -0.1466
  284loPI    C3 4531  12.407  13.281  10.766  0.1257  0.1274 -0.1540
  284loPI   PO4 4532  12.135  13.366  10.224 -0.3841  0.2930 -0.1780
  284loPI   GL1 4533  11.887  13.225   9.805 -0.1076  0.2013 -0.0594
  284loPI   GL2 4534  12.125  13.355   9.663 -0.1665  0.1133  0.0713
  284loPI   C1A 4535  11.645  13.432   9.506  0.2400  0.2443 -0.1343
  284loPI   C2A 4536  11.591  13.593   9.071  0.0643 -0.1353  0.0930
  284loPI   C3A 4537  11.782  13.666   8.567  0.3916 -0.2389  0.4304
  284loPI   C4A 4538  11.889  13.718   8.156  0.4536 -0.2461 -0.1763
  284loPI   C5A 4539  11.763  13.483   7.719  0.0252  0.0068  0.0974
  284loPI   C6A 4540  11.415  13.185   7.694  0.0815 -0.2814  0.0875
  284loPI   C1B 4541  12.069  13.409   9.172  0.0344  0.1328  0.2259
  284loPI   C2B 4542  12.183  13.458   8.763  0.3816 -0.0008 -0.1563
  284loPI   C3B 4543  12.165  13.326   8.333 -0.0699  0.1310 -0.1334
  284loPI   C4B 4544  12.245  13.436   7.944  0.2461 -0.1398 -0.1138
  285loPI    C1 4545  15.886   1.706  10.784  0.1502  0.1687  0.0184
  285loPI    C2 4546  16.203   1.651  11.022  0.0532  0.1205  0.1377
  285loPI    C3 4547  15.844   1.727  11.181 -0.0382 -0.0396  0.0118
  285loPI   PO4 4548  15.962   1.811  10.552  0.1819 -0.5433  0.3943
  285loPI   GL1 4549  16.169   1.919  10.264 -0.4526 -0.3018  0.0030
  285loPI   GL2 4550  16.564   2.024  10.183  0.2763 -0.1096  0.0509
  285loPI   C1A 4551  16.025   1.793   9.896  0.1038 -0.4213 -0.1385
  285loPI   C2A 4552  16.078   1.690   9.437  0.0631  0.3339  0.1128
  285loPI   C3A 4553  16.038   1.569   9.054 -0.3921 -0.0828 -0.1083
  285loPI   C4A 4554  16.123   1.608   8.611 -0.1022 -0.0597  0.1166
  285loPI   C5A 4555  16.089   1.464   8.218 -0.0973  0.0132  0.1715
  285loPI   C6A 4556  16.488   1.436   8.076  0.1145 -0.1517 -0.0253
  285loPI   C1B 4557  16.762   2.127   9.844 -0.0714  0.1439 -0.0469
  285loPI   C2B 4558  16.738   2.187   9.405  0.1171 -0.1127  0.0036
  285loPI   C3B 4559  16.893   2.204   8.993 -0.3215 -0.0705  0.0204
  285loPI   C4B 4560  16.866   2.209   8.571  0.1093 -0.1206 -0.0281
  286loPI    C1 4561   2.889   8.494  10.130  0.2816 -0.2836  0.1231
  286loPI    C2 4562   2.800   8.394   9.753 -0.0281  0.1284  0.0797
  286loPI    C3 4563   2.673   8.166  10.055  0.0626 -0.1029 -0.0541
  286loPI   PO4 4564   3.137   8.547  10.159 -0.1635  0.0078  0.0030
  286loPI   GL1 4565   3.255   8.698   9.848 -0.0406 -0.1366  0.0940
  286loPI   GL2 4566   3.306   9.085   9.810  0.0401 -0.1105 -0.1558
  286loPI   C1A 4567   3.566   8.585   9.519 -0.1231  0.0946 -0.2498
  286loPI   C2A 4568   3.563   8.567   9.042  0.0538  0.1473 -0.2608
  286loPI   C3A 4569   3.693   8.740   8.700  0.2270  0.0507 -0.1491
  286loPI   C4A 4570   3.834   8.777   8.251  0.1461  0.0008 -0.0372
  286loPI   C5A 4571   3.819   8.693   7.775 -0.0175 -0.1869  0.0643
  286loPI   C6A 4572   3.961   8.343   7.585 -0.1238 -0.0991 -0.2684
  286loPI   C1B 4573   3.324   8.987   9.298  0.0862 -0.1615  0.4123
  286loPI   C2B 4574   3.352   9.132   8.885  0.0926  0.1152 -0.2596
  286loPI   C3B 4575   3.273   9.048   8.508 -0.0287 -0.0397  0.0078
  286loPI   C4B 4576   3.324   8.987   8.084  0.1651  0.1722 -0.1210
  287loPI    C1 4577   4.373  18.151  10.503  0.2969  0.0341 -0.0378
  287loPI    C2 4578   4.540  18.410  10.758 -0.1192  0.2819 -0.0078
  287loPI    C3 4579   4.470  18.033  10.873  0.1075  0.2680  0.0891
  287loPI   PO4 4580   4.488  18.204  10.258 -0.2098  0.2254 -0.3817
  287loPI   GL1 4581   4.212  18.357   9.959  0.2136 -0.0102  0.1052
  287loPI   GL2 4582   4.245  18.622   9.677  0.0924  0.0075 -0.2024
  287loPI   C1A 4583   4.124  18.180   9.576 -0.0664  0.1502  0.3813
  287loPI   C2A 4584   3.961  18.102   9.261 -0.2597  0.0682 -0.1187
  287loPI   C3A 4585   3.804  17.971   8.923 -0.0720 -0.0971  0.1234
  287loPI   C4A 4586   3.619  17.884   8.622 -0.1495 -0.0396  0.0387
  287loPI   C5A 4587   3.116  18.036   8.386 -0.0030 -0.0313  0.3274
  287loPI   C6A 4588   2.856  18.125   8.176 -0.0822 -0.0883 -0.0795
  287loPI   C1B 4589   3.996  18.930   9.404 -0.1548 -0.3584  0.0047
  287loPI   C2B 4590   4.158  18.964   8.985  0.0230 -0.2951  0.3262
  287loPI   C3B 4591   4.265  19.248   8.540 -0.0128  0.1912  0.0967
  287loPI   C4B 4592   4.526  19.125   8.275  0.0160  0.4286  0.0166
  288loPI    C1 4593   0.927   1.415  10.184 -0.0416  0.2340  0.0154
  288loPI    C2 4594   1.015   1.215  10.519 -0.0148  0.2717  0.0310
  288loPI    C3 4595   0.634   1.256  10.404 -0.0115  0.0923 -0.0463
  288loPI   PO4 4596   1.091   1.448  10.057 -0.0090  0.0838  0.0486
  288loPI   GL1 4597   1.137   1.345   9.591  0.0390  0.2462 -0.1016
  288loPI   GL2 4598   0.946   1.032   9.814 -0.3570 -0.3450  0.1157
  288loPI   C1A 4599   1.294   1.389   9.210 -0.0454 -0.0976  0.4001
  288loPI   C2A 4600   1.342   1.244   8.799  0.0951 -0.1977  0.3133
  288loPI   C3A 4601   1.366   1.558   8.410  0.1292 -0.1035 -0.1546
  288loPI   C4A 4602   1.231   1.961   8.404  0.1762 -0.0353 -0.0899
  288loPI   C5A 4603   1.003   2.229   8.534  0.0315  0.0525 -0.1203
  288loPI   C6A 4604   0.983   2.327   8.978  0.1151 -0.3091 -0.3298
  288loPI   C1B 4605   1.088   0.930   9.367  0.0833  0.0453  0.1188
  288loPI   C2B 4606   1.213   0.639   9.172 -0.0589 -0.0324  0.2293
  288loPI   C3B 4607   1.092   0.276   9.175 -0.2045  0.1936 -0.0015
  288loPI   C4B 4608   0.796  -0.014   9.343 -0.0301 -0.1600  0.2587
  289loPI    C1 4609  10.601   5.455  10.291 -0.2703 -0.2136 -0.1254
  289loPI    C2 4610  10.434   5.435  10.654  0.0026 -0.0080  0.0165
  289loPI    C3 4611  10.592   5.779  10.526  0.2057 -0.1652 -0.1634
  289loPI   PO4 4612  10.437   5.434  10.108 -0.0298  0.2118 -0.1229
  289loPI   GL1 4613  10.283   5.289   9.735  0.0524  0.1259 -0.1076
  289loPI   GL2 4614  10.269   4.994   9.836 -0.2509 -0.1414 -0.1059
  289loPI   C1A 4615  10.258   5.110   9.346  0.0657 -0.4322  0.0544
  289loPI   C2A 4616  10.374   5.102   8.966 -0.1184 -0.0011  0.0848
  289loPI   C3A 4617  10.364   5.003   8.495 -0.0420 -0.1643 -0.1493
  289loPI   C4A 4618  10.372   4.998   8.073  0.0457 -0.0270 -0.0784
  289loPI   C5A 4619  10.104   4.701   7.879  0.1443 -0.0139 -0.1215
  289loPI   C6A 4620  10.075   4.596   7.458 -0.0407  0.2695 -0.3230
  289loPI   C1B 4621  10.094   4.670   9.579 -0.1151  0.2311  0.1180
  289loPI   C2B 4622  10.188   4.541   9.153 -0.1762 -0.1576 -0.0902
  289loPI   C3B 4623  10.020   4.676   8.766  0.2295  0.1365 -0.0841
  289loPI   C4B 4624  10.277   4.487   8.483 -0.0534 -0.1176  0.1931
  290loPI    C1 4625  10.079   8.755  10.114  0.0619  0.0769  0.0699
  290loPI    C2 4626  10.010   9.133  10.225  0.2697  0.1035  0.1132
  290loPI    C3 4627  10.275   8.911  10.426  0.2657 -0.0148 -0.0106
  290loPI   PO4 4628  10.196   8.759   9.910 -0.2819 -0.1245 -0.2703
  290loPI   GL1 4629  10.197   8.813   9.498  0.1608  0.1513  0.1087
  290loPI   GL2 4630  10.188   9.045   9.218  0.2646 -0.0554  0.1245
  290loPI   C1A 4631  10.095   8.502   9.254 -0.2415  0.1419  0.2530
  290loPI   C2A 4632  10.204   8.332   8.834 -0.3145 -0.2090  0.1908
  290loPI   C3A 4633  10.067   8.197   8.437  0.3065 -0.1913 -0.0770
  290loPI   C4A 4634   9.950   8.282   7.969  0.0964  0.4754  0.2818
  290loPI   C5A 4635  10.269   8.461   7.808  0.0127 -0.0876  0.2755
  290loPI   C6A 4636  10.637   8.687   7.635  0.2089  0.1923 -0.0341
  290loPI   C1B 4637  10.103   8.868   8.933  0.2099 -0.2196 -0.0325
  290loPI   C2B 4638  10.214   8.766   8.583  0.1358 -0.0820  0.2240
  290loPI   C3B 4639  10.288   8.878   8.199 -0.0098  0.0025  0.2494
  290loPI   C4B 4640  10.317   9.060   7.881 -0.5127  0.0888 -0.1638
  291loPI    C1 4641   5.712   2.437   9.851  0.0002 -0.0063  0.0274
  291loPI    C2 4642   5.926   2.573  10.160  0.0762 -0.1934  0.0584
  291loPI    C3 4643   5.682   2.820   9.962  0.3286  0.0258  0.0154
  291loPI   PO4 4644   5.478   2.170   9.891 -0.1722  0.1982  0.1350
  291loPI   GL1 4645   5.388   1.820   9.635 -0.2038 -0.0036 -0.3277
  291loPI   GL2 4646   5.524   1.590   9.678  0.1404 -0.1349  0.0270
  291loPI   C1A 4647   5.392   1.822   9.200 -0.0077 -0.0320 -0.0696
  291loPI   C2A 4648   5.275   1.696   8.780  0.2040 -0.0482  0.0939
  291loPI   C3A 4649   5.359   1.569   8.277 -0.1375 -0.1879 -0.0143
  291loPI   C4A 4650   5.518   1.614   7.919  0.2409  0.4690 -0.0950
  291loPI   C5A 4651   5.662   1.573   7.581  0.4359 -0.0465  0.0798
  291loPI   C6A 4652   6.122   1.544   7.404 -0.2817  0.3960  0.1831
  291loPI   C1B 4653   5.684   1.412   9.293 -0.0019 -0.1316  0.1809
  291loPI   C2B 4654   5.750   1.393   8.897  0.2728  0.1630  0.0514
  291loPI   C3B 4655   5.927   1.491   8.390  0.1921  0.1975  0.1498
  291loPI   C4B 4656   6.009   1.549   7.927  0.1286  0.1883 -0.1953
  292loPI    C1 4657   2.436   8.785  10.134  0.0055 -0.0608  0.2119
  292loPI    C2 4658   2.399   8.458  10.362  0.1704 -0.1500  0.1121
  292loPI    C3 4659   2.641   8.755  10.477  0.1375 -0.1292  0.1277
  292loPI   PO4 4660   2.488   8.764   9.915  0.1138  0.0688 -0.3652
  292loPI   GL1 4661   2.530   8.782   9.514 -0.0092  0.3875  0.2453
  292loPI   GL2 4662   2.903   8.903   9.521 -0.2282 -0.0577  0.1143
  292loPI   C1A 4663   2.358   9.106   9.220  0.4431 -0.0902  0.1105
  292loPI   C2A 4664   2.467   9.445   8.945  0.1424  0.3862  0.1439
  292loPI   C3A 4665   2.254   9.824   8.734 -0.0349  0.4999  0.0722
  292loPI   C4A 4666   2.263  10.108   8.305 -0.1100  0.0937  0.0383
  292loPI   C5A 4667   2.221  10.450   8.147  0.5043 -0.0440 -0.2214
  292loPI   C6A 4668   1.976  10.708   8.087  0.0162  0.4609  0.3160
  292loPI   C1B 4669   2.778   8.867   9.036  0.0731 -0.0997  0.2554
  292loPI   C2B 4670   2.815   9.101   8.716 -0.1680  0.0584  0.0613
  292loPI   C3B 4671   2.830   8.875   8.265 -0.3373 -0.2645 -0.3368
  292loPI   C4B 4672   2.830   8.753   7.856 -0.0595 -0.0343 -0.5267
  293loPI    C1 4673  12.082  11.074  10.699 -0.3020 -0.1282 -0.0234
  293loPI    C2 4674  12.430  11.128  10.888 -0.2176  0.1137 -0.2427
  293loPI    C3 4675  12.306  10.758  10.799  0.1110  0.0360 -0.3963
  293loPI   PO4 4676  12.051  11.359  10.617 -0.0700  0.0057  0.0794
  293loPI   GL1 4677  12.097  11.396  10.162  0.3967  0.0511 -0.3214
  293loPI   GL2 4678  11.898  11.084  10.163 -0.1100 -0.0815 -0.1202
  293loPI   C1A 4679  12.062  11.431   9.744  0.2416 -0.0441  0.0238
  293loPI   C2A 4680  12.095  11.410   9.302 -0.0625  0.0540 -0.1167
  293loPI   C3A 4681  12.186  11.446   8.829 -0.1214 -0.0230 -0.2135
  293loPI   C4A 4682  12.178  11.341   8.375 -0.2711  0.0508 -0.0168
  293loPI   C5A 4683  12.014  11.467   7.946 -0.0111 -0.0813  0.1407
  293loPI   C6A 4684  11.924  11.532   7.511  0.2356 -0.0530 -0.0828
  293loPI   C1B 4685  12.017  10.937   9.790  0.0257 -0.0226  0.0008
  293loPI   C2B 4686  12.160  10.855   9.442 -0.0637 -0.2400 -0.1858
  293loPI   C3B 4687  12.184  10.887   9.008 -0.2224 -0.0299 -0.0828
  293loPI   C4B 4688  12.115  10.934   8.644  0.1715  0.0386  0.1038
  294loPI    C1 4689  10.405  13.682  10.719  0.1317  0.0707 -0.1737
  294loPI    C2 4690  10.612  13.912  10.973  0.0542  0.0009 -0.0462
  294loPI    C3 4691  10.215  13.950  10.948  0.0518 -0.0534 -0.0936
  294loPI   PO4 4692  10.599  13.716  10.445  0.0562  0.1721 -0.1737
  294loPI   GL1 4693  10.649  13.908  10.153 -0.1566  0.1433 -0.0689
  294loPI   GL2 4694  10.482  13.629   9.897  0.0230  0.3626  0.0659
  294loPI   C1A 4695  10.903  13.835   9.854 -0.2735  0.0030 -0.0963
  294loPI   C2A 4696  11.080  13.708   9.394 -0.1288  0.0784 -0.0026
  294loPI   C3A 4697  11.133  13.742   8.998 -0.0565 -0.3634 -0.0962
  294loPI   C4A 4698  11.229  13.878   8.569 -0.0096 -0.2485  0.2064
  294loPI   C5A 4699  11.495  13.999   8.294  0.0943  0.1827 -0.0886
  294loPI   C6A 4700  11.549  13.889   7.821  0.1622 -0.4040 -0.1931
  294loPI   C1B 4701  10.500  13.791   9.523 -0.2595 -0.0458  0.1165
  294loPI   C2B 4702  10.613  13.855   9.139 -0.0837 -0.1164 -0.1279
  294loPI   C3B 4703  10.706  13.952   8.709  0.2942 -0.0385  0.1842
  294loPI   C4B 4704  10.475  13.902   8.203  0.2843 -0.0712 -0.3152
  295loPI    C1 4705  14.388  10.852  10.781  0.1563  0.1339  0.0628
  295loPI    C2 4706  14.322  10.566  11.053  0.1872  0.0379 -0.0299
  295loPI    C3 4707  14.693  10.704  10.995  0.2665 -0.3013 -0.3757
  295loPI   PO4 4708  14.098  10.875  10.631  0.1497  0.0935  0.3694
  295loPI   GL1 4709  14.234  10.817  10.231 -0.0105  0.4890  0.1223
  295loPI   GL2 4710  14.154  11.083  10.171 -0.1366 -0.1226  0.0536
  295loPI   C1A 4711  14.224  10.573   9.853  0.1596  0.3533 -0.2273
  295loPI   C2A 4712  14.358  10.706   9.493 -0.0456 -0.1669  0.1554
  295loPI   C3A 4713  14.467  10.919   9.017 -0.2885  0.0297  0.0930
  295loPI   C4A 4714  14.528  11.058   8.628 -0.1251 -0.0025 -0.2345
  295loPI   C5A 4715  14.279  10.929   8.327  0.1631  0.2457  0.1127
  295loPI   C6A 4716  13.826  11.040   8.140  0.3057  0.2309 -0.0012
  295loPI   C1B 4717  14.014  11.063   9.696 -0.0124  0.5352  0.1884
  295loPI   C2B 4718  14.142  11.149   9.320  0.1163 -0.3503  0.0263
  295loPI   C3B 4719  14.080  11.251   8.855 -0.3168  0.0429  0.0387
  295loPI   C4B 4720  14.150  11.410   8.394 -0.0246 -0.0185  0.1101
  296loPI    C1 4721   7.456   2.580  10.150 -0.0506  0.2636  0.1663
  296loPI    C2 4722   7.444   2.906  10.380  0.0681  0.2911  0.1345
  296loPI    C3 4723   7.769   2.829  10.161  0.0165  0.1832  0.0955
  296loPI   PO4 4724   7.196   2.589  10.016 -0.2219 -0.1573 -0.2716
  296loPI   GL1 4725   6.960   2.782   9.541  0.3468 -0.1163 -0.1317
  296loPI   GL2 4726   7.232   2.852   9.590  0.1391 -0.2944  0.0515
  296loPI   C1A 4727   7.026   2.564   9.132 -0.1693  0.0986 -0.1967
  296loPI   C2A 4728   6.977   2.251   8.934 -0.1175  0.0833 -0.1418
  296loPI   C3A 4729   7.135   1.980   8.687  0.0005  0.0029 -0.1351
  296loPI   C4A 4730   7.065   1.694   8.349  0.0772  0.0176 -0.3361
  296loPI   C5A 4731   6.720   1.612   8.134  0.0844  0.3451  0.1262
  296loPI   C6A 4732   6.431   1.662   7.806 -0.0690 -0.1711  0.1556
  296loPI   C1B 4733   7.157   3.066   9.159 -0.0228 -0.1022 -0.2134
  296loPI   C2B 4734   7.075   3.209   8.765  0.1232 -0.0150  0.0885
  296loPI   C3B 4735   7.113   3.191   8.410 -0.0520 -0.0024 -0.3844
  296loPI   C4B 4736   7.049   3.496   8.097  0.0670 -0.1099 -0.0641
  297loPI    C1 4737   8.548  14.359  10.231  0.1602  0.2707 -0.1245
  297loPI    C2 4738   8.733  14.523  10.546 -0.1132 -0.1891  0.2902
  297loPI    C3 4739   8.945  14.333  10.265  0.1389  0.2791  0.1533
  297loPI   PO4 4740   8.259  14.623  10.127 -0.0610  0.3508  0.0047
  297loPI   GL1 4741   8.201  14.615   9.659 -0.1354  0.1555 -0.0993
  297loPI   GL2 4742   8.598  14.718   9.617  0.0771  0.0099  0.2858
  297loPI   C1A 4743   8.282  14.497   9.277 -0.0341 -0.0773  0.0412
  297loPI   C2A 4744   8.339  14.536   8.739 -0.1667 -0.2515 -0.2665
  297loPI   C3A 4745   8.331  14.432   8.319 -0.0438 -0.2881 -0.0046
  297loPI   C4A 4746   8.393  14.496   7.967 -0.3549  0.3186  0.0047
  297loPI   C5A 4747   8.760  14.277   7.778 -0.1215 -0.2547  0.0970
  297loPI   C6A 4748   9.131  14.200   7.906  0.3391 -0.0231  0.0266
  297loPI   C1B 4749   8.615  14.774   9.138 -0.0242 -0.0686  0.0837
  297loPI   C2B 4750   8.737  14.887   8.731  0.3066  0.0021 -0.2542
  297loPI   C3B 4751   8.428  15.096   8.580 -0.1236  0.0265 -0.0816
  297loPI   C4B 4752   7.962  15.162   8.537  0.0089 -0.0895  0.2862
  298loPI    C1 4753  14.918  17.405  10.734 -0.1428 -0.2363  0.3368
  298loPI    C2 4754  14.617  17.151  10.661 -0.2965 -0.0148  0.1866
  298loPI    C3 4755  14.551  17.483  10.873 -0.1991  0.1241  0.0034
  298loPI   PO4 4756  15.031  17.489  10.483 -0.0753  0.0317  0.1275
  298loPI   GL1 4757  15.056  17.688  10.110  0.1352 -0.1550  0.2182
  298loPI   GL2 4758  15.226  17.956  10.083 -0.2701 -0.1844 -0.0330
  298loPI   C1A 4759  14.870  17.483   9.796  0.0057  0.0502  0.1461
  298loPI   C2A 4760  14.881  17.570   9.360 -0.1018 -0.0586  0.1096
  298loPI   C3A 4761  14.846  17.576   8.980  0.0959 -0.1032  0.1933
  298loPI   C4A 4762  14.862  17.439   8.659  0.2633 -0.0922  0.0516
  298loPI   C5A 4763  15.140  17.444   8.247  0.1296 -0.2403 -0.0009
  298loPI   C6A 4764  15.283  17.567   7.860 -0.0181 -0.0246  0.1392
  298loPI   C1B 4765  15.274  17.800   9.684  0.1262 -0.5407  0.0534
  298loPI   C2B 4766  15.254  17.869   9.198  0.2216  0.1446 -0.1575
  298loPI   C3B 4767  15.244  17.762   8.767  0.0382 -0.2259  0.0569
  298loPI   C4B 4768  15.136  17.996   8.273  0.0872 -0.2161 -0.4039
  299loPI    C1 4769  11.502   1.158  10.578  0.0375  0.1498  0.0658
  299loPI    C2 4770  11.817   1.007  10.773 -0.0725  0.1502  0.2458
  299loPI    C3 4771  11.446   0.908  10.885 -0.1374  0.1514  0.0364
  299loPI   PO4 4772  11.452   1.334  10.500  0.0660  0.0401 -0.2151
  299loPI   GL1 4773  11.755   1.452  10.235  0.3290  0.0102 -0.0328
  299loPI   GL2 4774  11.793   1.073  10.191 -0.0426 -0.0148  0.0217
  299loPI   C1A 4775  12.088   1.459   9.906 -0.3439 -0.0517 -0.0574
  299loPI   C2A 4776  12.027   1.210   9.441 -0.0545 -0.0641  0.0633
  299loPI   C3A 4777  11.923   1.079   8.941 -0.0984  0.5302 -0.0052
  299loPI   C4A 4778  12.169   1.159   8.629  0.0311  0.0353 -0.0458
  299loPI   C5A 4779  12.396   1.374   8.336  0.0645  0.1783  0.0722
  299loPI   C6A 4780  12.347   1.845   8.344 -0.0938  0.0627  0.0212
  299loPI   C1B 4781  11.979   0.885   9.860  0.0981 -0.3509  0.3551
  299loPI   C2B 4782  12.357   0.650   9.644  0.1111  0.1526 -0.0391
  299loPI   C3B 4783  12.528   0.471   9.264 -0.0828  0.4961  0.0428
  299loPI   C4B 4784  12.881   0.241   9.194  0.1031 -0.2895 -0.0886
  300loPI    C1 4785   8.269   7.977  10.456 -0.0535  0.0763 -0.0458
  300loPI    C2 4786   8.075   8.321  10.394 -0.1383  0.0201 -0.0927
  300loPI    C3 4787   8.084   8.159  10.759 -0.0796  0.0835 -0.0660
  300loPI   PO4 4788   8.489   7.981  10.290 -0.1757  0.0463 -0.0258
  300loPI   GL1 4789   8.634   8.106   9.945 -0.0349 -0.1955 -0.0669
  300loPI   GL2 4790   8.822   7.818   9.806  0.0863  0.0363  0.0073
  300loPI   C1A 4791   8.558   8.176   9.540 -0.1670  0.0086  0.2241
  300loPI   C2A 4792   8.582   8.157   9.137  0.1580  0.0019 -0.1198
  300loPI   C3A 4793   8.730   8.196   8.694 -0.1185  0.1321  0.1780
  300loPI   C4A 4794   8.799   8.320   8.186 -0.1567 -0.2126  0.1269
  300loPI   C5A 4795   8.837   8.475   7.710 -0.0253  0.3007 -0.4707
  300loPI   C6A 4796   8.596   8.332   7.406  0.0906  0.0869 -0.0177
  300loPI   C1B 4797   8.963   7.770   9.459 -0.1251  0.3578 -0.1466
  300loPI   C2B 4798   9.098   7.908   9.037  0.0667 -0.0432 -0.2863
  300loPI   C3B 4799   9.109   7.962   8.512  0.2408 -0.0241  0.1890
  300loPI   C4B 4800   9.161   7.985   7.996  0.0281  0.0158 -0.2293
  301loPI    C1 4801   0.968   4.972  10.508 -0.0104 -0.1748  0.0402
  301loPI    C2 4802   1.306   4.944  10.720 -0.0085 -0.1563  0.0395
  301loPI    C3 4803   0.957   5.002  10.906  0.0075 -0.0259  0.0300
  301loPI   PO4 4804   1.116   4.944  10.221 -0.2277 -0.0748  0.1632
  301loPI   GL1 4805   1.129   5.003   9.732  0.0665 -0.0968  0.3114
  301loPI   GL2 4806   1.414   5.079   9.804  0.1228 -0.0980 -0.3155
  301loPI   C1A 4807   0.925   5.083   9.402 -0.0493  0.1280 -0.1063
  301loPI   C2A 4808   0.909   5.051   8.974  0.0146  0.0421 -0.1234
  301loPI   C3A 4809   0.874   5.143   8.514  0.0314  0.0416  0.0620
  301loPI   C4A 4810   0.869   5.049   8.235  0.1408  0.2317 -0.1015
  301loPI   C5A 4811   0.959   4.783   7.916  0.4128  0.1213 -0.0505
  301loPI   C6A 4812   1.091   4.395   7.809 -0.1200  0.4795 -0.0398
  301loPI   C1B 4813   1.430   5.095   9.350  0.0778 -0.2100 -0.0950
  301loPI   C2B 4814   1.321   4.800   9.079 -0.0195 -0.0517 -0.0779
  301loPI   C3B 4815   1.126   4.721   8.733  0.2365  0.1881 -0.2300
  301loPI   C4B 4816   1.074   4.602   8.340  0.2352  0.1007  0.4361
  302loPI    C1 4817  17.905   2.706  10.678  0.3963 -0.0584  0.0910
  302loPI    C2 4818  17.553   2.877  10.761  0.2119 -0.3296 -0.1136
  302loPI    C3 4819  17.777   2.727  11.057  0.0730 -0.3136  0.0005
  302loPI   PO4 4820  18.045   2.882  10.477 -0.0491  0.0676  0.0403
  302loPI   GL1 4821  18.169   2.860  10.118 -0.1189  0.0756  0.2745
  302loPI   GL2 4822  18.125   3.246  10.051 -0.1035  0.3151  0.0847
  302loPI   C1A 4823  18.587   2.686   9.962  0.1765  0.0274  0.1024
  302loPI   C2A 4824  18.735   2.678   9.540 -0.0060 -0.2220  0.0046
  302loPI   C3A 4825  18.902   2.594   9.216 -0.3165  0.1029 -0.0277
  302loPI   C4A 4826  19.010   2.601   8.691  0.1190 -0.2102 -0.0584
  302loPI   C5A 4827  19.341   2.757   8.506 -0.0833  0.3591 -0.0085
  302loPI   C6A 4828  19.683   2.522   8.402  0.0456  0.3525  0.1289
  302loPI   C1B 4829  18.304   3.000   9.637 -0.0479 -0.1288 -0.1109
  302loPI   C2B 4830  18.452   2.860   9.164 -0.4237 -0.0703  0.0789
  302loPI   C3B 4831  18.662   2.904   8.793 -0.1617  0.0569 -0.1960
  302loPI   C4B 4832  18.945   3.082   8.460 -0.2504  0.2378 -0.2173
  303loPI    C1 4833  13.714   1.669  10.623  0.0313  0.2468  0.0082
  303loPI    C2 4834  13.396   1.785  10.836  0.0046  0.1554  0.0185
  303loPI    C3 4835  13.760   1.787  11.002 -0.0523 -0.1762  0.1564
  303loPI   PO4 4836  13.779   1.867  10.395  0.1401  0.2528 -0.2564
  303loPI   GL1 4837  13.842   1.761   9.974 -0.0151  0.0945 -0.2765
  303loPI   GL2 4838  14.043   1.508   9.884  0.0684 -0.1672  0.0705
  303loPI   C1A 4839  13.734   2.192   9.893  0.0663 -0.0361  0.1329
  303loPI   C2A 4840  13.609   2.140   9.485  0.0713 -0.0754  0.1143
  303loPI   C3A 4841  13.532   1.820   9.105 -0.1437  0.0692  0.1081
  303loPI   C4A 4842  13.774   1.837   8.718 -0.2197 -0.1706 -0.0128
  303loPI   C5A 4843  13.917   2.155   8.445 -0.2816 -0.1615  0.0032
  303loPI   C6A 4844  14.066   2.477   8.214 -0.2809  0.1403  0.0774
  303loPI   C1B 4845  14.230   1.576   9.498  0.2043 -0.5023  0.2847
  303loPI   C2B 4846  14.211   1.595   9.022 -0.1829  0.0026  0.0671
  303loPI   C3B 4847  14.122   1.398   8.610  0.0421  0.3653  0.1191
  303loPI   C4B 4848  13.996   1.122   8.222 -0.0221  0.0723  0.0347
  304loPI    C1 4849   9.923  10.864  10.359 -0.1898 -0.1316 -0.1007
  304loPI    C2 4850   9.589  11.004  10.528  0.0603 -0.0419  0.3345
  304loPI    C3 4851   9.741  10.654  10.648 -0.1041 -0.2924 -0.1622
  304loPI   PO4 4852   9.973  11.128  10.164 -0.3123  0.0171 -0.3443
  304loPI   GL1 4853  10.034  11.308   9.791 -0.0096 -0.0382  0.1717
  304loPI   GL2 4854  10.374  11.182   9.887 -0.1346  0.1444 -0.1157
  304loPI   C1A 4855  10.181  11.677   9.564  0.1060 -0.3333  0.1519
  304loPI   C2A 4856  10.248  11.748   9.086  0.1393  0.2753 -0.0303
  304loPI   C3A 4857  10.272  11.692   8.640  0.3556 -0.1480 -0.2449
  304loPI   C4A 4858  10.188  11.705   8.258 -0.3131 -0.0683 -0.2640
  304loPI   C5A 4859  10.202  11.754   7.871 -0.0286 -0.5108  0.0140
  304loPI   C6A 4860  10.129  11.379   7.684  0.0160  0.1908 -0.1880
  304loPI   C1B 4861  10.421  11.248   9.525  0.1009 -0.1407  0.0779
  304loPI   C2B 4862  10.359  11.210   9.075  0.4179 -0.2693  0.1116
  304loPI   C3B 4863  10.395  11.248   8.674 -0.2643 -0.3036 -0.0727
  304loPI   C4B 4864  10.408  11.278   8.180  0.0294  0.0944  0.3670
  305loPI    C1 4865  14.201   7.076  10.861 -0.0117 -0.1233 -0.1031
  305loPI    C2 4866  14.042   6.755  10.683  0.0348 -0.1853 -0.0329
  305loPI    C3 4867  14.122   6.748  11.075  0.0496 -0.0934 -0.0342
  305loPI   PO4 4868  14.067   7.237  10.831 -0.0274  0.2701  0.0350
  305loPI   GL1 4869  14.014   7.193  10.371 -0.1640 -0.3558  0.1230
  305loPI   GL2 4870  14.173   7.396  10.266 -0.2099 -0.1926 -0.1558
  305loPI   C1A 4871  13.878   7.095   9.907  0.2823  0.1666 -0.3688
  305loPI   C2A 4872  14.032   6.899   9.472  0.0551  0.1857  0.1181
  305loPI   C3A 4873  14.060   6.730   9.047 -0.0145  0.2320  0.0272
  305loPI   C4A 4874  13.980   6.527   8.642  0.1733 -0.1986 -0.0590
  305loPI   C5A 4875  13.885   6.095   8.306  0.0218  0.2134 -0.1446
  305loPI   C6A 4876  13.856   5.831   7.985 -0.3135 -0.1369  0.2216
  305loPI   C1B 4877  14.200   7.463   9.838  0.1722 -0.1868  0.2388
  305loPI   C2B 4878  14.065   7.479   9.500 -0.2897  0.0373 -0.1716
  305loPI   C3B 4879  13.871   7.454   9.105 -0.0251  0.0129 -0.0910
  305loPI   C4B 4880  13.484   7.353   8.789 -0.3382 -0.1593 -0.0785
  306loPI    C1 4881  12.327   1.073  10.697  0.0492  0.2614  0.0893
  306loPI    C2 4882  12.672   0.976  10.873 -0.0436  0.1456  0.2089
  306loPI    C3 4883  12.507   1.333  10.941  0.0501  0.1997  0.1547
  306loPI   PO4 4884  12.376   1.173  10.408 -0.2125 -0.3745  0.1258
  306loPI   GL1 4885  12.479   1.148   9.981  0.2045  0.1816  0.1629
  306loPI   GL2 4886  12.680   1.448   9.973 -0.1590 -0.2602  0.0210
  306loPI   C1A 4887  12.670   1.059   9.584 -0.1854  0.1863  0.0614
  306loPI   C2A 4888  12.875   0.837   9.177 -0.0950 -0.0085 -0.0409
  306loPI   C3A 4889  12.782   0.642   8.824  0.2899 -0.3037  0.2546
  306loPI   C4A 4890  12.551   0.434   8.419 -0.0182 -0.1232 -0.1686
  306loPI   C5A 4891  12.275   0.726   8.117  0.0934  0.1124 -0.0451
  306loPI   C6A 4892  11.846   0.906   8.051  0.0213 -0.1721  0.1664
  306loPI   C1B 4893  12.420   1.511   9.580 -0.3119  0.0181  0.0934
  306loPI   C2B 4894  12.286   1.479   9.121  0.1361  0.0553  0.0308
  306loPI   C3B 4895  12.237   1.632   8.766  0.2242  0.1385  0.1617
  306loPI   C4B 4896  11.870   1.803   8.511 -0.3698 -0.0507  0.3104
  307loPI    C1 4897  18.150   5.605  10.299 -0.1817  0.1514 -0.0423
  307loPI    C2 4898  18.227   5.830  10.621  0.0999  0.0879 -0.0627
  307loPI    C3 4899  17.917   5.577  10.623 -0.0359  0.2531  0.0727
  307loPI   PO4 4900  18.096   5.732  10.011  0.0969 -0.1760  0.1234
  307loPI   GL1 4901  17.942   5.714   9.609 -0.2046 -0.1218  0.0557
  307loPI   GL2 4902  17.629   5.556   9.666 -0.0390 -0.0225 -0.1071
  307loPI   C1A 4903  18.056   5.780   9.179  0.0929 -0.1492 -0.0648
  307loPI   C2A 4904  18.132   5.807   8.790 -0.0074  0.0388  0.3946
  307loPI   C3A 4905  18.058   5.783   8.322  0.0481  0.0518 -0.0013
  307loPI   C4A 4906  17.909   5.937   7.872  0.3721  0.0566 -0.1214
  307loPI   C5A 4907  18.015   6.292   7.675  0.0279 -0.0192 -0.0861
  307loPI   C6A 4908  17.889   6.473   7.252 -0.1198  0.1091  0.3151
  307loPI   C1B 4909  17.563   5.630   9.311  0.0224  0.0962 -0.1573
  307loPI   C2B 4910  17.643   5.593   8.864  0.2090  0.2150 -0.0218
  307loPI   C3B 4911  17.728   5.422   8.441  0.0053  0.0950 -0.4275
  307loPI   C4B 4912  17.640   5.059   8.081 -0.1696 -0.3396 -0.0001
  308loPI    C1 4913   4.175   7.265  10.316 -0.1035 -0.2940 -0.4141
  308loPI    C2 4914   4.330   6.900  10.371  0.1597 -0.1524 -0.1916
  308loPI    C3 4915   4.542   7.225  10.469 -0.1708  0.0556 -0.1486
  308loPI   PO4 4916   4.104   7.127   9.933  0.0623 -0.0361  0.0158
  308loPI   GL1 4917   4.245   7.314   9.476 -0.1395  0.0685  0.0193
  308loPI   GL2 4918   4.243   6.977   9.471  0.1183  0.2812 -0.2545
  308loPI   C1A 4919   4.172   7.564   9.079 -0.0540 -0.1336  0.0162
  308loPI   C2A 4920   3.883   7.694   8.749 -0.0039  0.3881 -0.0003
  308loPI   C3A 4921   3.705   7.762   8.398  0.1320  0.3900 -0.4155
  308loPI   C4A 4922   3.659   7.529   8.083 -0.1447  0.1582  0.0492
  308loPI   C5A 4923   3.473   7.558   7.741 -0.2516  0.0343  0.1391
  308loPI   C6A 4924   3.407   7.697   7.262 -0.1289 -0.1548  0.3029
  308loPI   C1B 4925   4.169   6.876   9.000 -0.0893  0.0004  0.0194
  308loPI   C2B 4926   4.092   6.789   8.561 -0.2957 -0.4818  0.0934
  308loPI   C3B 4927   4.153   6.693   8.071 -0.1484  0.4915 -0.1397
  308loPI   C4B 4928   4.110   6.806   7.601 -0.3539 -0.2915 -0.1339
  309loPI    C1 4929  10.033   2.417  10.757 -0.0315  0.1574  0.1278
  309loPI    C2 4930  10.388   2.233  10.738 -0.0622  0.1142 -0.0493
  309loPI    C3 4931  10.306   2.481  11.041  0.1475  0.1829 -0.0475
  309loPI   PO4 4932   9.917   2.308  10.540 -0.0026  0.1989  0.2575
  309loPI   GL1 4933  10.117   2.338  10.072  0.1647  0.1761 -0.1808
  309loPI   GL2 4934   9.876   2.112  10.081 -0.2288  0.1081  0.1082
  309loPI   C1A 4935  10.296   2.427   9.710 -0.0366 -0.1339  0.1029
  309loPI   C2A 4936  10.474   2.406   9.329 -0.4386 -0.0348  0.2341
  309loPI   C3A 4937  10.643   2.339   9.006 -0.5389  0.1567 -0.3251
  309loPI   C4A 4938  10.760   2.380   8.569  0.1607 -0.1872  0.1208
  309loPI   C5A 4939  10.911   2.141   8.234 -0.0117 -0.0874 -0.0058
  309loPI   C6A 4940  10.785   1.783   7.946 -0.1040  0.2496  0.0793
  309loPI   C1B 4941   9.877   2.119   9.632 -0.4533 -0.2801 -0.0820
  309loPI   C2B 4942   9.792   2.098   9.160  0.1743 -0.1006  0.2008
  309loPI   C3B 4943   9.630   2.286   8.736  0.0204 -0.0343 -0.3411
  309loPI   C4B 4944   9.635   2.393   8.270 -0.1027 -0.2091 -0.0320
  310loPI    C1 4945   7.683   3.639   9.972  0.0587  0.0613 -0.3167
  310loPI    C2 4946   7.368   3.473   9.791 -0.0204 -0.2204  0.0660
  310loPI    C3 4947   7.565   3.271  10.074  0.2836  0.0943  0.0854
  310loPI   PO4 4948   7.582   3.922  10.068 -0.1736 -0.4467  0.1614
  310loPI   GL1 4949   7.321   4.054   9.712  0.0167 -0.0431  0.0571
  310loPI   GL2 4950   7.374   4.395   9.692 -0.2875  0.2463 -0.0273
  310loPI   C1A 4951   7.391   4.056   9.330 -0.0834  0.0502  0.0044
  310loPI   C2A 4952   7.207   4.163   9.064 -0.1282  0.5012 -0.2402
  310loPI   C3A 4953   7.208   4.231   8.616 -0.5012 -0.0194  0.0228
  310loPI   C4A 4954   7.162   4.473   8.209  0.2041 -0.0679 -0.1288
  310loPI   C5A 4955   7.210   4.543   7.770  0.3389 -0.6091 -0.0070
  310loPI   C6A 4956   7.377   4.339   7.440  0.1080  0.0718  0.1293
  310loPI   C1B 4957   7.223   4.604   9.318 -0.1547 -0.2972  0.0168
  310loPI   C2B 4958   7.039   4.632   8.903 -0.1158  0.0470  0.0140
  310loPI   C3B 4959   6.958   4.810   8.532  0.1050 -0.1014  0.1760
  310loPI   C4B 4960   6.877   4.896   8.071 -0.0745  0.1244 -0.0674
  311loPI    C1 4961  17.733   7.446  10.195  0.0239 -0.2167  0.2002
  311loPI    C2 4962  17.333   7.448  10.216  0.0146 -0.2775  0.0419
  311loPI    C3 4963  17.538   7.785  10.280 -0.0736 -0.1999 -0.0805
  311loPI   PO4 4964  17.785   7.387  10.055 -0.1543 -0.4272  0.2226
  311loPI   GL1 4965  17.479   7.337   9.741 -0.0314  0.0844  0.0507
  311loPI   GL2 4966  17.807   7.231   9.573  0.1469 -0.0425 -0.2377
  311loPI   C1A 4967  17.288   7.428   9.409  0.2128  0.1034 -0.1661
  311loPI   C2A 4968  17.158   7.427   8.919  0.2541 -0.0580  0.0414
  311loPI   C3A 4969  16.950   7.552   8.665  0.0849  0.0769 -0.3585
  311loPI   C4A 4970  16.802   7.726   8.299  0.1490  0.0622  0.2589
  311loPI   C5A 4971  17.105   7.996   8.023  0.1166 -0.0875  0.3140
  311loPI   C6A 4972  17.451   8.239   7.962  0.0857 -0.1635  0.1347
  311loPI   C1B 4973  17.635   7.171   9.108  0.0828  0.0443  0.0592
  311loPI   C2B 4974  17.606   7.220   8.726  0.0884  0.2403  0.5563
  311loPI   C3B 4975  17.601   7.049   8.252  0.0932 -0.3800  0.1558
  311loPI   C4B 4976  17.952   7.119   7.919  0.0692  0.0646 -0.2232
  312loPI    C1 4977   7.284  12.700  10.371  0.1899  0.0772  0.0684
  312loPI    C2 4978   7.044  13.015  10.317  0.0477 -0.0757 -0.2151
  312loPI    C3 4979   7.413  13.067  10.464 -0.1228  0.1717  0.1409
  312loPI   PO4 4980   7.282  12.565  10.143 -0.2281 -0.1865 -0.2477
  312loPI   GL1 4981   7.140  12.294   9.931  0.0772 -0.1498  0.0896
  312loPI   GL2 4982   7.327  12.011   9.945 -0.1138 -0.1224  0.1217
  312loPI   C1A 4983   7.294  12.394   9.486  0.1518 -0.1633  0.0654
  312loPI   C2A 4984   7.447  12.600   9.017  0.2608 -0.0552  0.2158
  312loPI   C3A 4985   7.380  12.779   8.564  0.1584 -0.0957  0.2409
  312loPI   C4A 4986   7.203  13.134   8.322  0.1074  0.0514  0.0605
  312loPI   C5A 4987   6.681  13.259   8.241 -0.1105 -0.1086 -0.0921
  312loPI   C6A 4988   6.338  13.063   7.973 -0.1566 -0.0376  0.1273
  312loPI   C1B 4989   7.051  11.978   9.555  0.0586  0.3040 -0.0180
  312loPI   C2B 4990   6.994  12.130   9.047  0.1164  0.0623 -0.1573
  312loPI   C3B 4991   7.142  12.256   8.508  0.1464  0.0557 -0.0070
  312loPI   C4B 4992   7.102  12.296   8.030  0.2291  0.2021 -0.0541
  313loPI    C1 4993   3.484   9.393  10.501  0.0725  0.0345  0.0609
  313loPI    C2 4994   3.093   9.305  10.510  0.0868 -0.0412 -0.0341
  313loPI    C3 4995   3.344   9.132  10.770  0.0364  0.1143  0.1201
  313loPI   PO4 4996   3.473   9.537  10.290  0.1434 -0.1117  0.1720
  313loPI   GL1 4997   3.525   9.616   9.844  0.0707  0.1798 -0.1059
  313loPI   GL2 4998   3.248   9.689   9.814 -0.1780 -0.2206 -0.1982
  313loPI   C1A 4999   3.500   9.438   9.418  0.1763 -0.2538 -0.2990
  313loPI   C2A 5000   3.524   9.590   9.040  0.1282  0.2396  0.3452
  313loPI   C3A 5001   3.397   9.622   8.652 -0.0193  0.0593 -0.2448
  313loPI   C4A 5002   3.147   9.506   8.258 -0.3360  0.2908 -0.0697
  313loPI   C5A 5003   2.660   9.433   8.177 -0.0673 -0.0930 -0.1665
  313loPI   C6A 5004   2.308   9.463   8.327  0.3342 -0.1682  0.0260
  313loPI   C1B 5005   3.181   9.820   9.366 -0.1177  0.0599  0.0577
  313loPI   C2B 5006   3.182   9.945   8.945  0.1717 -0.1285 -0.1436
  313loPI   C3B 5007   3.125  10.054   8.510  0.0221 -0.0809 -0.1688
  313loPI   C4B 5008   3.061  10.573   8.373 -0.0451  0.0991  0.1697
  314loPI    C1 5009  17.822  16.150  10.727  0.1618 -0.2206 -0.2591
  314loPI    C2 5010  18.044  16.479  10.677  0.0621 -0.0904  0.1220
  314loPI    C3 5011  17.694  16.444  10.488  0.0801  0.0154  0.0687
  314loPI   PO4 5012  17.928  15.937  10.539  0.0913 -0.2631  0.1297
  314loPI   GL1 5013  17.999  15.819  10.096  0.0682 -0.2581 -0.1191
  314loPI   GL2 5014  17.850  16.165  10.080 -0.3274  0.0039  0.0727
  314loPI   C1A 5015  17.952  15.810   9.736 -0.0889  0.1298  0.0794
  314loPI   C2A 5016  17.631  15.550   9.440 -0.0215  0.0456  0.1689
  314loPI   C3A 5017  17.329  15.484   9.048 -0.1081 -0.0451 -0.3185
  314loPI   C4A 5018  17.085  15.714   8.780 -0.0095  0.0635  0.1221
  314loPI   C5A 5019  17.174  16.092   8.512  0.3218  0.0096  0.3571
  314loPI   C6A 5020  16.846  16.269   8.222  0.0820 -0.2057  0.0040
  314loPI   C1B 5021  17.959  16.277   9.656  0.0503 -0.1343  0.1321
  314loPI   C2B 5022  17.829  16.339   9.226  0.0674 -0.0319 -0.1712
  314loPI   C3B 5023  17.689  16.427   8.774 -0.0472  0.2751  0.1280
  314loPI   C4B 5024  17.648  16.252   8.375  0.0458 -0.1721 -0.0982
  315loPI    C1 5025   6.198   4.017  10.203 -0.0068 -0.2117 -0.1211
  315loPI    C2 5026   6.576   4.103  10.102  0.0095 -0.1591 -0.0167
  315loPI    C3 5027   6.471   3.726  10.181  0.0630 -0.1604  0.0492
  315loPI   PO4 5028   6.153   4.190   9.820  0.0645 -0.0606  0.0014
  315loPI   GL1 5029   5.763   4.396   9.706  0.0381 -0.4982  0.0853
  315loPI   GL2 5030   5.541   4.168   9.679  0.2717  0.0825  0.0521
  315loPI   C1A 5031   5.847   4.315   9.228 -0.1446 -0.3129  0.1209
  315loPI   C2A 5032   5.883   4.662   8.837  0.0828  0.1973 -0.2132
  315loPI   C3A 5033   5.902   4.884   8.462  0.0927  0.0626  0.1879
  315loPI   C4A 5034   5.787   4.975   8.071 -0.3588  0.1106 -0.0508
  315loPI   C5A 5035   5.611   4.772   7.787 -0.1743 -0.1521  0.0917
  315loPI   C6A 5036   5.235   4.913   7.703  0.2036  0.2984 -0.2748
  315loPI   C1B 5037   5.407   4.379   9.322 -0.4435 -0.0942 -0.1960
  315loPI   C2B 5038   5.403   4.384   8.921 -0.0007 -0.1297 -0.0473
  315loPI   C3B 5039   5.463   4.596   8.551 -0.2049 -0.2169 -0.1979
  315loPI   C4B 5040   5.326   4.813   8.217 -0.1749 -0.0679 -0.2279
  316loPI    C1 5041   1.727  12.415  10.411 -0.0632  0.0531  0.0633
  316loPI    C2 5042   1.746  12.459  10.808 -0.1553 -0.0256  0.0769
  316loPI    C3 5043   1.648  12.105  10.651  0.0955 -0.0534 -0.0207
  316loPI   PO4 5044   1.954  12.610  10.325  0.0216 -0.2457  0.1192
  316loPI   GL1 5045   2.103  12.649   9.926 -0.3672 -0.0092  0.3766
  316loPI   GL2 5046   2.240  12.930   9.853  0.0999  0.3759 -0.1167
  316loPI   C1A 5047   2.234  12.409   9.456 -0.1202 -0.3302  0.0669
  316loPI   C2A 5048   2.180  12.173   9.050 -0.0363  0.2591  0.1324
  316loPI   C3A 5049   2.055  12.039   8.549 -0.0939 -0.0944 -0.1258
  316loPI   C4A 5050   1.724  11.937   8.243  0.4467 -0.2394  0.1203
  316loPI   C5A 5051   1.492  12.010   7.871  0.2177 -0.0063 -0.0501
  316loPI   C6A 5052   1.297  12.314   7.756  0.0454 -0.0362  0.1451
  316loPI   C1B 5053   2.531  12.831   9.457  0.2968 -0.1816  0.1749
  316loPI   C2B 5054   2.575  12.924   9.068 -0.0080  0.0836 -0.1365
  316loPI   C3B 5055   2.263  12.991   8.757 -0.2502 -0.1985 -0.1017
  316loPI   C4B 5056   2.154  13.116   8.281 -0.1818  0.1260 -0.1450
  317loPI    C1 5057  14.787   5.342  10.518 -0.3232 -0.1165 -0.2366
  317loPI    C2 5058  14.667   5.542  10.843 -0.1855 -0.0963 -0.1974
  317loPI    C3 5059  14.813   5.171  10.879  0.3846  0.1211 -0.1584
  317loPI   PO4 5060  14.641   5.434  10.306 -0.1190  0.0206 -0.2881
  317loPI   GL1 5061  14.683   5.756  10.077 -0.1906  0.2652  0.2444
  317loPI   GL2 5062  14.621   6.027  10.161  0.0143 -0.1473 -0.1179
  317loPI   C1A 5063  14.659   5.525   9.699 -0.5354  0.0805  0.4776
  317loPI   C2A 5064  14.601   5.353   9.256  0.1328 -0.1151  0.0101
  317loPI   C3A 5065  14.670   5.258   8.857 -0.1546  0.0211 -0.0077
  317loPI   C4A 5066  14.844   5.153   8.352 -0.1710 -0.0477  0.2562
  317loPI   C5A 5067  14.957   5.002   7.875  0.1749  0.0246 -0.0418
  317loPI   C6A 5068  15.021   4.658   7.651 -0.0007 -0.0446 -0.0697
  317loPI   C1B 5069  14.467   6.374   9.867  0.2245 -0.1324 -0.2117
  317loPI   C2B 5070  14.634   6.544   9.520  0.1926 -0.1881 -0.1157
  317loPI   C3B 5071  14.524   6.585   9.164 -0.1650  0.4729  0.1206
  317loPI   C4B 5072  14.455   6.754   8.766  0.4173 -0.3522  0.0640
  318loPI    C1 5073   0.483   3.238  10.761 -0.1085  0.0055 -0.1324
  318loPI    C2 5074   0.283   3.033  11.041 -0.0763 -0.0375 -0.1408
  318loPI    C3 5075   0.240   3.430  11.015 -0.2536 -0.0609 -0.2201
  318loPI   PO4 5076   0.668   3.054  10.722 -0.3394 -0.1483 -0.1754
  318loPI   GL1 5077   0.827   2.923  10.295  0.0025  0.1031 -0.1603
  318loPI   GL2 5078   0.819   2.825   9.915 -0.0617  0.0227  0.1747
  318loPI   C1A 5079   1.096   3.215   9.997 -0.2048  0.1399  0.0195
  318loPI   C2A 5080   1.310   3.270   9.635  0.0240 -0.0501 -0.0959
  318loPI   C3A 5081   1.324   3.185   9.213 -0.1625 -0.0853  0.1437
  318loPI   C4A 5082   1.352   3.237   8.794  0.0293 -0.3206  0.0842
  318loPI   C5A 5083   1.204   3.295   8.327 -0.3824  0.4325 -0.0813
  318loPI   C6A 5084   1.152   3.172   7.946 -0.0664  0.0808 -0.2308
  318loPI   C1B 5085   0.917   2.817   9.558  0.2020  0.1779 -0.0087
  318loPI   C2B 5086   1.089   2.722   9.233  0.2242 -0.4369 -0.1699
  318loPI   C3B 5087   1.378   2.732   8.876 -0.2135  0.1327 -0.1677
  318loPI   C4B 5088   1.593   2.944   8.511 -0.1349  0.1153 -0.0728
  319loPI    C1 5089  14.962  10.387  10.745  0.1400  0.0304  0.1025
  319loPI    C2 5090  14.688  10.566  10.514  0.2136 -0.2495 -0.2094
  319loPI    C3 5091  14.588  10.246  10.732  0.1653 -0.0358  0.0884
  319loPI   PO4 5092  15.191  10.369  10.648  0.1867 -0.0496  0.1196
  319loPI   GL1 5093  15.274  10.495  10.244  0.1825 -0.3147 -0.1415
  319loPI   GL2 5094  15.042  10.395  10.045 -0.1069 -0.1440  0.0174
  319loPI   C1A 5095  15.476  10.333   9.818 -0.1416  0.4173 -0.4396
  319loPI   C2A 5096  15.500  10.259   9.336 -0.0171 -0.1517 -0.1386
  319loPI   C3A 5097  15.570  10.136   8.928  0.0092  0.2556  0.0407
  319loPI   C4A 5098  15.733  10.264   8.537  0.1313 -0.0422 -0.1336
  319loPI   C5A 5099  15.782  10.462   8.238  0.0588 -0.2203 -0.2410
  319loPI   C6A 5100  15.806  10.638   7.773 -0.0435  0.1152 -0.1234
  319loPI   C1B 5101  15.071  10.653   9.700 -0.3612 -0.2040  0.1364
  319loPI   C2B 5102  14.859  10.745   9.296  0.3053 -0.1184 -0.0898
  319loPI   C3B 5103  14.912  10.736   8.872 -0.0866  0.2077  0.2315
  319loPI   C4B 5104  14.999  10.809   8.495  0.2935 -0.0909  0.0719
  320loPI    C1 5105   5.156   2.952  10.217 -0.2118 -0.2367  0.1802
  320loPI    C2 5106   5.469   2.763  10.379 -0.0001 -0.0297  0.0202
  320loPI    C3 5107   5.369   3.128  10.506 -0.1239 -0.0596  0.0098
  320loPI   PO4 5108   5.167   2.791   9.981  0.1322  0.2745  0.5967
  320loPI   GL1 5109   5.303   2.694   9.582 -0.5645 -0.1681  0.0909
  320loPI   GL2 5110   5.018   2.865   9.477 -0.0216 -0.1373  0.1465
  320loPI   C1A 5111   5.270   2.340   9.251  0.2796  0.1591 -0.1494
  320loPI   C2A 5112   5.044   2.104   8.878  0.1422 -0.0693  0.0536
  320loPI   C3A 5113   5.193   2.153   8.449 -0.0994 -0.1533  0.0672
  320loPI   C4A 5114   5.354   2.016   8.048  0.1883 -0.2375 -0.0838
  320loPI   C5A 5115   5.200   1.906   7.569 -0.1195  0.0042  0.0840
  320loPI   C6A 5116   5.023   2.128   7.235  0.0432  0.3288  0.0348
  320loPI   C1B 5117   5.206   3.019   9.140  0.0914 -0.0605 -0.0633
  320loPI   C2B 5118   5.606   3.106   8.849  0.0387  0.0273  0.0151
  320loPI   C3B 5119   5.857   3.311   8.583  0.0641 -0.2600 -0.1684
  320loPI   C4B 5120   6.088   3.458   8.263  0.2435  0.2601  0.1168
  321loPI    C1 5121  15.014   1.299  10.850  0.0994  0.0928 -0.1914
  321loPI    C2 5122  14.697   1.064  10.917  0.0332  0.1261 -0.3803
  321loPI    C3 5123  14.893   1.229  11.225  0.0649 -0.1540 -0.2468
  321loPI   PO4 5124  15.079   1.140  10.561  0.0514  0.3117 -0.1427
  321loPI   GL1 5125  15.233   1.339  10.146  0.0390 -0.0578 -0.1912
  321loPI   GL2 5126  15.172   1.550  10.086  0.2410 -0.1691 -0.1671
  321loPI   C1A 5127  15.244   1.096   9.843  0.0153 -0.0839 -0.1249
  321loPI   C2A 5128  15.176   1.132   9.387 -0.0204  0.0079  0.1372
  321loPI   C3A 5129  15.094   1.349   8.953 -0.0236  0.3161  0.2984
  321loPI   C4A 5130  15.114   1.487   8.518  0.1468  0.0850  0.1681
  321loPI   C5A 5131  15.327   1.348   8.125 -0.1054  0.1126  0.0363
  321loPI   C6A 5132  15.624   1.394   7.959 -0.2037 -0.2527 -0.1424
  321loPI   C1B 5133  15.107   1.539   9.665 -0.3041  0.1423  0.3073
  321loPI   C2B 5134  15.089   1.719   9.261 -0.5492  0.0402 -0.1363
  321loPI   C3B 5135  15.265   2.015   8.924 -0.0772  0.1855  0.1730
  321loPI   C4B 5136  15.215   2.077   8.529  0.1432  0.1775 -0.0071
  322loPI    C1 5137   2.494  15.313  10.824 -0.2031  0.0841  0.2006
  322loPI    C2 5138   2.782  15.057  10.715 -0.5382 -0.1331 -0.2059
  322loPI    C3 5139   2.653  15.065  11.094  0.2012  0.1800  0.0567
  322loPI   PO4 5140   2.284  15.261  10.634  0.0935  0.0999 -0.0447
  322loPI   GL1 5141   2.280  15.286  10.202  0.1370 -0.3945  0.1803
  322loPI   GL2 5142   1.970  15.240  10.248  0.0315  0.1416  0.1695
  322loPI   C1A 5143   2.546  15.475   9.896  0.0767  0.2453 -0.2223
  322loPI   C2A 5144   2.449  15.538   9.476 -0.0328  0.0670  0.1202
  322loPI   C3A 5145   2.407  15.397   9.077 -0.1676 -0.1813  0.1360
  322loPI   C4A 5146   2.018  15.325   8.819  0.0387 -0.0181  0.0706
  322loPI   C5A 5147   1.668  15.518   8.482  0.0388 -0.0126 -0.1158
  322loPI   C6A 5148   1.285  15.462   8.274  0.0825  0.0062 -0.0248
  322loPI   C1B 5149   2.070  15.259   9.755 -0.0572  0.0019  0.1328
  322loPI   C2B 5150   1.987  15.107   9.304 -0.1715 -0.1217  0.0165
  322loPI   C3B 5151   1.782  14.856   8.993  0.2821  0.0496 -0.2800
  322loPI   C4B 5152   1.802  14.581   8.569  0.3712  0.0388  0.1121
  323loPI    C1 5153  13.382   8.678  10.897 -0.0784  0.0762 -0.0894
  323loPI    C2 5154  13.748   8.530  10.833  0.0367  0.2754  0.0943
  323loPI    C3 5155  13.428   8.292  10.804  0.1726  0.1186 -0.1468
  323loPI   PO4 5156  13.305   8.827  10.660  0.0832  0.0085 -0.1012
  323loPI   GL1 5157  13.482   9.124  10.366 -0.0086  0.1769  0.2662
  323loPI   GL2 5158  13.566   9.456  10.447 -0.1320 -0.3044  0.0144
  323loPI   C1A 5159  13.417   9.073   9.931 -0.1684 -0.3333 -0.1011
  323loPI   C2A 5160  13.404   9.068   9.559  0.0977  0.1343 -0.0404
  323loPI   C3A 5161  13.438   9.113   9.084  0.3814 -0.0612  0.0347
  323loPI   C4A 5162  13.200   9.432   8.705 -0.0976  0.1699  0.0098
  323loPI   C5A 5163  13.048   9.368   8.284 -0.3598  0.1006 -0.0189
  323loPI   C6A 5164  12.729   9.499   7.995  0.1618 -0.1630 -0.0684
  323loPI   C1B 5165  13.468   9.582   9.896  0.1810  0.2480 -0.0218
  323loPI   C2B 5166  13.333   9.575   9.465 -0.1336  0.1060 -0.0022
  323loPI   C3B 5167  13.559   9.594   9.070  0.0456  0.0518 -0.2204
  323loPI   C4B 5168  13.676   9.234   8.702  0.1038 -0.3144  0.1832
  324loPI    C1 5169  14.935  16.341  10.372 -0.0520  0.1493 -0.1670
  324loPI    C2 5170  15.053  16.682  10.199 -0.0707  0.1418 -0.1945
  324loPI    C3 5171  14.729  16.678  10.434  0.0004  0.1683 -0.0953
  324loPI   PO4 5172  15.062  16.115  10.243 -0.0680 -0.1100 -0.0790
  324loPI   GL1 5173  15.330  16.235   9.930  0.1860 -0.2230  0.0721
  324loPI   GL2 5174  15.454  15.916   9.726 -0.0241  0.0020 -0.1166
  324loPI   C1A 5175  15.014  16.407   9.597  0.2252 -0.1124  0.0232
  324loPI   C2A 5176  15.035  16.443   9.252 -0.0334  0.1020  0.2271
  324loPI   C3A 5177  14.995  16.346   8.913  0.0170  0.0903 -0.0137
  324loPI   C4A 5178  15.116  16.579   8.477 -0.1639 -0.0248  0.0637
  324loPI   C5A 5179  15.124  16.435   8.012 -0.2536 -0.1538  0.1469
  324loPI   C6A 5180  15.137  15.956   7.808 -0.0769 -0.1769 -0.2855
  324loPI   C1B 5181  15.520  16.144   9.322  0.0548 -0.1472 -0.2511
  324loPI   C2B 5182  15.518  16.275   8.946  0.3152 -0.0891  0.2896
  324loPI   C3B 5183  15.451  16.009   8.603 -0.0787 -0.1422 -0.0830
  324loPI   C4B 5184  15.376  16.028   8.238 -0.0626 -0.0965 -0.0868
  325loPI    C1 5185  12.192  17.810  10.871 -0.0614 -0.0368 -0.2459
  325loPI    C2 5186  12.031  17.506  11.076  0.0738  0.0007 -0.0822
  325loPI    C3 5187  12.303  17.743  11.249 -0.0680  0.2480 -0.1915
  325loPI   PO4 5188  12.171  18.048  10.745 -0.0264  0.2122  0.0503
  325loPI   GL1 5189  12.465  18.189  10.382 -0.0751  0.2517 -0.1307
  325loPI   GL2 5190  12.108  18.162  10.145 -0.1986 -0.0688  0.0087
  325loPI   C1A 5191  12.574  17.903  10.090 -0.1115 -0.0333  0.0670
  325loPI   C2A 5192  12.747  17.830   9.758 -0.0556  0.1710 -0.0485
  325loPI   C3A 5193  13.043  17.944   9.400 -0.1149  0.0771 -0.0572
  325loPI   C4A 5194  13.106  17.980   8.982 -0.1359 -0.1997 -0.1048
  325loPI   C5A 5195  13.137  17.917   8.605  0.0255 -0.0022  0.0610
  325loPI   C6A 5196  13.413  17.782   8.284 -0.2831  0.0622  0.0059
  325loPI   C1B 5197  11.854  18.156   9.766 -0.3480  0.0247 -0.0796
  325loPI   C2B 5198  11.941  17.955   9.378 -0.2288 -0.0916  0.2693
  325loPI   C3B 5199  11.892  18.010   8.957 -0.0179 -0.2265  0.2900
  325loPI   C4B 5200  11.806  18.279   8.696 -0.1525  0.1523 -0.1687
  326loPI    C1 5201   6.338  12.265  10.207  0.1173 -0.0938  0.0525
  326loPI    C2 5202   6.174  12.056  10.505  0.2442  0.0626  0.2344
  326loPI    C3 5203   6.383  12.388  10.585  0.1955  0.1610 -0.0369
  326loPI   PO4 5204   6.567  12.136  10.119  0.0907  0.2053  0.1638
  326loPI   GL1 5205   6.678  12.266   9.724 -0.0803 -0.1766 -0.0915
  326loPI   GL2 5206   6.804  12.562   9.704 -0.1273  0.0947  0.0116
  326loPI   C1A 5207   6.497  12.269   9.405 -0.0295  0.1500  0.1770
  326loPI   C2A 5208   6.450  12.327   8.974 -0.1401 -0.0921  0.2219
  326loPI   C3A 5209   6.351  12.515   8.615  0.0837 -0.0280 -0.0806
  326loPI   C4A 5210   6.333  12.579   8.229  0.1675  0.0780 -0.0532
  326loPI   C5A 5211   5.944  12.785   8.104  0.2211 -0.3034  0.0684
  326loPI   C6A 5212   5.761  13.199   8.096  0.1268  0.3867  0.2432
  326loPI   C1B 5213   6.921  12.562   9.244 -0.2124 -0.1126  0.0288
  326loPI   C2B 5214   6.884  12.610   8.809 -0.2102  0.1318 -0.0264
  326loPI   C3B 5215   6.767  12.829   8.454 -0.0523  0.0453 -0.0741
  326loPI   C4B 5216   6.778  12.654   8.077 -0.0513  0.2492 -0.0500
  327loPI    C1 5217   0.768   6.368  10.439 -0.1666  0.2411  0.0358
  327loPI    C2 5218   0.914   6.624  10.709  0.1914  0.0188  0.0587
  327loPI    C3 5219   0.717   6.762  10.389 -0.1539  0.2891  0.3788
  327loPI   PO4 5220   1.058   6.262  10.360 -0.0524  0.1056 -0.0122
  327loPI   GL1 5221   1.324   6.035   9.999 -0.0464  0.4389  0.1743
  327loPI   GL2 5222   1.563   6.136   9.841 -0.0840 -0.1029  0.1858
  327loPI   C1A 5223   1.030   6.009   9.667 -0.2403 -0.0130  0.0977
  327loPI   C2A 5224   0.733   5.942   9.310 -0.2670  0.1105 -0.0393
  327loPI   C3A 5225   0.865   5.947   8.869  0.0161 -0.1443 -0.4383
  327loPI   C4A 5226   0.935   5.832   8.352  0.0653  0.0106  0.2336
  327loPI   C5A 5227   1.216   5.683   7.978  0.0474 -0.2100  0.1336
  327loPI   C6A 5228   1.496   5.536   7.654 -0.1083  0.1882  0.3181
  327loPI   C1B 5229   1.602   6.206   9.435  0.2478 -0.2566  0.2094
  327loPI   C2B 5230   1.282   6.143   9.157 -0.2173  0.0552  0.0048
  327loPI   C3B 5231   1.196   6.308   8.712  0.0785  0.1362  0.0951
  327loPI   C4B 5232   1.015   6.647   8.435 -0.2061 -0.0919  0.1300
  328loPI    C1 5233  13.489   3.192  10.616  0.1783 -0.0167 -0.0225
  328loPI    C2 5234  13.594   3.434  10.917  0.0228  0.0718 -0.0378
  328loPI    C3 5235  13.678   3.043  10.936  0.0124  0.0766  0.1212
  328loPI   PO4 5236  13.542   3.256  10.421  0.1904 -0.0917  0.2291
  328loPI   GL1 5237  13.824   3.134  10.084 -0.4244 -0.0386 -0.2429
  328loPI   GL2 5238  14.124   3.253   9.971  0.2245 -0.0634 -0.0760
  328loPI   C1A 5239  13.770   3.032   9.679  0.0200  0.0180  0.0231
  328loPI   C2A 5240  13.587   2.924   9.257  0.1652  0.0360  0.3710
  328loPI   C3A 5241  13.515   2.728   8.929 -0.0419 -0.1309  0.0140
  328loPI   C4A 5242  13.597   2.684   8.524 -0.0716  0.0944 -0.0933
  328loPI   C5A 5243  13.632   2.852   8.014 -0.0981  0.2028  0.2670
  328loPI   C6A 5244  13.636   3.109   7.659 -0.3535  0.1688 -0.1378
  328loPI   C1B 5245  14.115   3.317   9.518  0.2336  0.0238 -0.0572
  328loPI   C2B 5246  14.030   3.340   9.118  0.1319 -0.1225  0.0265
  328loPI   C3B 5247  14.047   3.451   8.659 -0.1494  0.0618 -0.3607
  328loPI   C4B 5248  13.804   3.688   8.413 -0.2800 -0.2915  0.1463
  329loPI    C1 5249  13.652  10.689  10.663  0.1200  0.1169 -0.0622
  329loPI    C2 5250  13.643  10.291  10.703 -0.1268  0.1350  0.0866
  329loPI    C3 5251  13.798  10.518  10.994 -0.2418  0.1631  0.1262
  329loPI   PO4 5252  13.705  10.727  10.346 -0.2911 -0.1845 -0.0299
  329loPI   GL1 5253  13.726  10.613   9.910  0.1402  0.0004 -0.1597
  329loPI   GL2 5254  13.837  10.658   9.559 -0.1540 -0.0575  0.0035
  329loPI   C1A 5255  13.829  10.221   9.773 -0.1452 -0.0482  0.3005
  329loPI   C2A 5256  13.718   9.816   9.545  0.0111 -0.0219  0.1143
  329loPI   C3A 5257  13.812   9.447   9.601 -0.0261 -0.4048  0.0100
  329loPI   C4A 5258  13.889   9.201   9.301 -0.0152 -0.0889  0.0714
  329loPI   C5A 5259  14.113   9.282   8.967 -0.0449  0.0810 -0.2698
  329loPI   C6A 5260  14.364   9.593   8.778 -0.1153  0.0524  0.2365
  329loPI   C1B 5261  13.893  10.790   9.096  0.1670 -0.1783  0.0523
  329loPI   C2B 5262  14.094  10.701   8.774  0.0298  0.0389  0.1539
  329loPI   C3B 5263  14.065  10.501   8.360  0.1384 -0.2002 -0.0317
  329loPI   C4B 5264  14.232  10.147   8.148  0.0954  0.1284 -0.0433
  330loPI    C1 5265  16.276   2.117  10.758  0.0539 -0.0052  0.0833
  330loPI    C2 5266  16.660   2.210  10.695  0.0825 -0.2786 -0.1703
  330loPI    C3 5267  16.532   2.128  11.065  0.1355  0.3783  0.0069
  330loPI   PO4 5268  16.180   2.329  10.626 -0.1095  0.0296 -0.1189
  330loPI   GL1 5269  16.154   2.409  10.162 -0.2752  0.1751 -0.1103
  330loPI   GL2 5270  16.198   2.725  10.207  0.0956  0.0766 -0.2263
  330loPI   C1A 5271  16.260   2.200   9.789  0.0684  0.0008 -0.1082
  330loPI   C2A 5272  16.245   2.174   9.416  0.0896 -0.0563  0.2228
  330loPI   C3A 5273  16.332   2.137   8.923  0.0465 -0.1534 -0.0877
  330loPI   C4A 5274  16.364   2.227   8.462  0.1173  0.3664 -0.0120
  330loPI   C5A 5275  16.174   1.971   8.252 -0.3546  0.1483 -0.3831
  330loPI   C6A 5276  15.937   1.798   7.924 -0.4351 -0.2338  0.1911
  330loPI   C1B 5277  16.465   2.630   9.782 -0.0616  0.0589  0.3936
  330loPI   C2B 5278  16.430   2.824   9.417 -0.1009 -0.1612 -0.1734
  330loPI   C3B 5279  16.375   3.016   9.063 -0.1427  0.3673  0.1370
  330loPI   C4B 5280  16.388   3.102   8.704  0.1118  0.0447  0.0270
  331loPI    C1 5281  16.893  10.677   9.936 -0.1620 -0.0340 -0.0267
  331loPI    C2 5282  16.938  10.823  10.305 -0.1188  0.1554 -0.1058
  331loPI    C3 5283  16.591  10.871  10.112 -0.2683 -0.2628  0.0475
  331loPI   PO4 5284  16.965  10.413   9.974  0.0915 -0.4047 -0.1786
  331loPI   GL1 5285  17.054  10.253   9.556  0.3116 -0.1642 -0.0874
  331loPI   GL2 5286  16.813  10.074   9.620  0.2096 -0.1936  0.3501
  331loPI   C1A 5287  16.953  10.452   9.184 -0.1288  0.0242 -0.0243
  331loPI   C2A 5288  17.030  10.773   8.729 -0.1007  0.0278 -0.2831
  331loPI   C3A 5289  17.095  10.481   8.359 -0.0070 -0.2826 -0.1515
  331loPI   C4A 5290  17.077  10.269   7.944 -0.1549 -0.2644  0.2117
  331loPI   C5A 5291  17.449  10.300   7.662 -0.0944  0.1349  0.1425
  331loPI   C6A 5292  17.813  10.520   7.377 -0.0792  0.1128 -0.0925
  331loPI   C1B 5293  16.635  10.057   9.191 -0.1389  0.2768  0.0959
  331loPI   C2B 5294  16.569   9.935   8.752  0.4041  0.1434 -0.1450
  331loPI   C3B 5295  16.544   9.673   8.349  0.0826 -0.1754  0.1839
  331loPI   C4B 5296  16.540   9.340   8.071 -0.0757 -0.0223 -0.1460
  332loPI    C1 5297  15.255  12.933  10.443  0.2397 -0.3400 -0.1795
  332loPI    C2 5298  15.446  13.123  10.739 -0.1642 -0.3255  0.0803
  332loPI    C3 5299  15.477  13.256  10.363 -0.1430  0.0339  0.2050
  332loPI   PO4 5300  15.349  12.665  10.452 -0.1243 -0.2901 -0.0890
  332loPI   GL1 5301  15.569  12.364  10.190  0.0020 -0.5790  0.2680
  332loPI   GL2 5302  15.715  12.104   9.920  0.0696 -0.2170  0.0410
  332loPI   C1A 5303  15.287  12.344   9.817 -0.1055 -0.1557  0.0398
  332loPI   C2A 5304  15.218  12.357   9.342  0.1379  0.0426  0.0092
  332loPI   C3A 5305  15.242  12.400   8.901  0.2008  0.0763  0.2599
  332loPI   C4A 5306  15.315  12.406   8.469  0.0060 -0.0681  0.0468
  332loPI   C5A 5307  15.285  12.722   8.064  0.0633  0.3946 -0.1887
  332loPI   C6A 5308  15.422  13.088   7.823  0.0685  0.0903  0.1538
  332loPI   C1B 5309  15.876  12.141   9.537  0.1044 -0.1161  0.0147
  332loPI   C2B 5310  15.909  12.147   9.030 -0.3093  0.1356 -0.0741
  332loPI   C3B 5311  16.126  11.909   8.681  0.0241  0.3856 -0.1966
  332loPI   C4B 5312  16.139  11.807   8.236  0.0738  0.4128  0.0061
  333loPI    C1 5313  18.189   9.706  10.194 -0.0790 -0.0003 -0.1471
  333loPI    C2 5314  18.466   9.504  10.401 -0.0458 -0.0872 -0.2752
  333loPI    C3 5315  18.077   9.449  10.480 -0.0319 -0.0841 -0.2036
  333loPI   PO4 5316  18.233   9.657   9.963 -0.0046 -0.1745  0.2235
  333loPI   GL1 5317  18.404   9.730   9.578 -0.0286 -0.2044  0.1474
  333loPI   GL2 5318  18.664   9.716   9.383  0.0774 -0.0854 -0.2006
  333loPI   C1A 5319  18.195   9.639   9.247  0.1782 -0.0760  0.1452
  333loPI   C2A 5320  18.209   9.579   8.819  0.0295 -0.2345 -0.1081
  333loPI   C3A 5321  18.448   9.663   8.449 -0.0560 -0.0566 -0.1544
  333loPI   C4A 5322  18.554   9.816   8.088 -0.0700  0.0070 -0.1072
  333loPI   C5A 5323  18.647  10.004   7.742  0.2706  0.1241  0.2099
  333loPI   C6A 5324  18.732   9.839   7.231  0.1567  0.0683 -0.2771
  333loPI   C1B 5325  18.709   9.660   8.980 -0.2075 -0.2268 -0.2610
  333loPI   C2B 5326  18.932   9.820   8.545  0.3769  0.0132 -0.0685
  333loPI   C3B 5327  18.960  10.157   8.246  0.0425 -0.0059 -0.0387
  333loPI   C4B 5328  19.001  10.274   7.827 -0.0336  0.0225  0.6220
  334loPI    C1 5329  14.527   8.120  10.810 -0.1103 -0.0966  0.0775
  334loPI    C2 5330  14.705   7.774  10.904 -0.1382 -0.1421 -0.0358
  334loPI    C3 5331  14.424   7.926  11.144 -0.0082 -0.1133  0.0998
  334loPI   PO4 5332  14.460   8.143  10.567  0.1030  0.0576  0.1938
  334loPI   GL1 5333  14.402   8.321  10.192 -0.1357  0.3628 -0.2353
  334loPI   GL2 5334  14.075   8.412  10.311  0.1608  0.2280 -0.2280
  334loPI   C1A 5335  14.541   8.510   9.792 -0.1187 -0.4041  0.1287
  334loPI   C2A 5336  14.639   8.444   9.374  0.2563  0.0002  0.0575
  334loPI   C3A 5337  14.680   8.206   8.950 -0.2871 -0.1799 -0.3688
  334loPI   C4A 5338  14.855   8.117   8.604 -0.0267  0.0024 -0.0983
  334loPI   C5A 5339  14.902   7.862   8.231 -0.0671 -0.1333 -0.0928
  334loPI   C6A 5340  14.933   8.048   7.757 -0.2179  0.0096 -0.1530
  334loPI   C1B 5341  13.952   8.355   9.940  0.1636 -0.3169  0.1565
  334loPI   C2B 5342  14.075   8.407   9.498 -0.0046  0.0244  0.1216
  334loPI   C3B 5343  14.194   8.467   9.110 -0.2613 -0.0142 -0.0130
  334loPI   C4B 5344  14.260   8.356   8.737 -0.1712 -0.0331 -0.2908
  335loPI    C1 5345   9.280  14.639  10.603  0.0452 -0.3196  0.2201
  335loPI    C2 5346   9.008  14.754  10.873 -0.0160 -0.0492  0.0473
  335loPI    C3 5347   9.120  14.371  10.853 -0.1118 -0.0965  0.3635
  335loPI   PO4 5348   9.187  14.745  10.353 -0.1158 -0.5201 -0.0970
  335loPI   GL1 5349   9.329  14.879   9.992  0.0922  0.1518  0.1375
  335loPI   GL2 5350   9.025  14.659   9.867  0.1897 -0.0823  0.1769
  335loPI   C1A 5351   9.392  14.945   9.562 -0.0445 -0.1378  0.1116
  335loPI   C2A 5352   9.246  15.070   9.182  0.3420 -0.1953  0.3772
  335loPI   C3A 5353   9.203  15.064   8.803  0.0098 -0.1622 -0.0260
  335loPI   C4A 5354   9.111  14.898   8.408  0.1486 -0.3028  0.0911
  335loPI   C5A 5355   8.921  14.521   8.209 -0.1001  0.0967 -0.0663
  335loPI   C6A 5356   8.770  14.131   8.270  0.2606  0.3843  0.0557
  335loPI   C1B 5357   9.076  14.619   9.473 -0.0265 -0.1365 -0.3228
  335loPI   C2B 5358   9.109  14.598   9.051  0.1812 -0.3997  0.0568
  335loPI   C3B 5359   9.326  14.572   8.720 -0.1417  0.2161  0.0744
  335loPI   C4B 5360   9.647  14.777   8.689 -0.0029  0.2871 -0.0108
  336loPI    C1 5361  12.661   4.385  10.465  0.1242  0.0929  0.1655
  336loPI    C2 5362  12.683   4.740  10.282 -0.0447  0.1211  0.1980
  336loPI    C3 5363  12.583   4.720  10.669 -0.2957  0.0226  0.1301
  336loPI   PO4 5364  12.560   4.277  10.361  0.0635 -0.0194 -0.3244
  336loPI   GL1 5365  12.482   4.381   9.940  0.1334  0.1395 -0.2043
  336loPI   GL2 5366  12.236   4.637   9.968  0.0840 -0.2515  0.4622
  336loPI   C1A 5367  12.557   4.308   9.500  0.1582  0.0260  0.0565
  336loPI   C2A 5368  12.545   4.352   9.054  0.2959  0.4553 -0.0406
  336loPI   C3A 5369  12.602   4.483   8.571 -0.0248 -0.1035 -0.2109
  336loPI   C4A 5370  12.557   4.297   8.148 -0.0154 -0.0571  0.1075
  336loPI   C5A 5371  12.573   3.831   8.038  0.4299 -0.1595  0.0948
  336loPI   C6A 5372  12.464   3.306   8.038  0.2189 -0.0784  0.0917
  336loPI   C1B 5373  12.414   4.793   9.561 -0.0195  0.1196  0.1753
  336loPI   C2B 5374  12.396   4.902   9.108  0.1174 -0.0883  0.1323
  336loPI   C3B 5375  12.470   4.939   8.651  0.1097 -0.2078 -0.2957
  336loPI   C4B 5376  12.206   4.948   8.383 -0.1632 -0.0791 -0.1060
  337loPI    C1 5377   2.360  11.824  10.362  0.1004  0.0986  0.2043
  337loPI    C2 5378   2.135  12.108  10.533 -0.0247  0.0531  0.1173
  337loPI    C3 5379   1.971  11.758  10.428  0.0652  0.0557 -0.0359
  337loPI   PO4 5380   2.459  11.853  10.115  0.1182  0.2509 -0.0988
  337loPI   GL1 5381   2.857  11.807   9.845  0.1056 -0.0123  0.1806
  337loPI   GL2 5382   3.146  11.757   9.971 -0.2505 -0.0954 -0.1601
  337loPI   C1A 5383   2.897  12.192   9.455 -0.1688 -0.1198  0.2123
  337loPI   C2A 5384   2.633  12.299   9.087 -0.2692  0.1095  0.2510
  337loPI   C3A 5385   2.531  12.561   8.754  0.1511 -0.0378  0.0117
  337loPI   C4A 5386   2.212  12.639   8.403  0.1874 -0.4097 -0.0875
  337loPI   C5A 5387   2.105  12.702   7.910 -0.0801  0.4338 -0.1792
  337loPI   C6A 5388   2.272  12.674   7.561 -0.1713 -0.1421  0.0606
  337loPI   C1B 5389   3.326  11.924   9.621  0.1498  0.1225  0.1899
  337loPI   C2B 5390   3.395  11.974   9.211 -0.0678  0.0538 -0.0174
  337loPI   C3B 5391   3.557  11.916   8.808 -0.2586 -0.0590  0.1087
  337loPI   C4B 5392   3.770  11.598   8.764 -0.2535  0.1878 -0.1229
  338loPI    C1 5393  16.932   7.996  10.462  0.0991  0.0990 -0.0161
  338loPI    C2 5394  16.818   7.711  10.204 -0.2117  0.1941  0.0114
  338loPI    C3 5395  16.984   7.610  10.554 -0.1590  0.0532 -0.0535
  338loPI   PO4 5396  17.042   8.199  10.309  0.0769 -0.0094 -0.1113
  338loPI   GL1 5397  16.899   8.309   9.868  0.2748 -0.0663 -0.0906
  338loPI   GL2 5398  17.166   8.398   9.796 -0.3276  0.2137  0.1620
  338loPI   C1A 5399  16.524   8.276   9.632  0.0469  0.2268  0.0285
  338loPI   C2A 5400  16.206   8.121   9.598 -0.0672 -0.1593  0.1008
  338loPI   C3A 5401  16.102   8.087   9.278 -0.4579 -0.2395 -0.0665
  338loPI   C4A 5402  16.255   8.129   8.857  0.4586 -0.0856 -0.3042
  338loPI   C5A 5403  16.221   8.145   8.459 -0.0172 -0.1866 -0.2295
  338loPI   C6A 5404  16.184   8.478   8.249  0.0090 -0.0548  0.0249
  338loPI   C1B 5405  17.464   8.300   9.493 -0.0598  0.3753 -0.0469
  338loPI   C2B 5406  17.540   8.218   9.050 -0.1137 -0.2873  0.2527
  338loPI   C3B 5407  17.575   8.344   8.682 -0.1383 -0.2044 -0.0053
  338loPI   C4B 5408  17.452   8.519   8.390  0.0819 -0.3327  0.0759
  339loPI    C1 5409   8.405  16.140  10.110 -0.0830 -0.2432 -0.0856
  339loPI    C2 5410   8.698  16.090  10.379 -0.0266  0.1188 -0.0755
  339loPI    C3 5411   8.748  15.965  10.002  0.2118  0.3298 -0.1168
  339loPI   PO4 5412   8.296  16.413  10.213  0.0193 -0.1519 -0.0338
  339loPI   GL1 5413   8.270  16.634   9.777 -0.2528 -0.0461 -0.0830
  339loPI   GL2 5414   8.303  16.907   9.717 -0.1424  0.0345  0.1518
  339loPI   C1A 5415   8.444  16.552   9.370 -0.2755 -0.3237  0.2189
  339loPI   C2A 5416   8.515  16.758   8.878 -0.0416 -0.1467  0.0175
  339loPI   C3A 5417   8.316  16.873   8.444 -0.1492  0.3047 -0.1063
  339loPI   C4A 5418   8.189  17.297   8.326 -0.0728  0.1731  0.1024
  339loPI   C5A 5419   8.468  17.470   7.956 -0.1464  0.0583  0.0672
  339loPI   C6A 5420   8.812  17.498   7.725  0.2038  0.1130  0.1300
  339loPI   C1B 5421   8.274  17.055   9.234 -0.0439 -0.3324 -0.1735
  339loPI   C2B 5422   8.492  17.214   8.815  0.0265 -0.1344 -0.0704
  339loPI   C3B 5423   8.712  17.284   8.445 -0.0537  0.0176 -0.0909
  339loPI   C4B 5424   8.855  17.075   8.178 -0.2767  0.1612  0.2677
  340loPI    C1 5425   9.888   1.498  10.519 -0.0694 -0.0721 -0.0292
  340loPI    C2 5426   9.656   1.175  10.564  0.0527 -0.1418  0.1083
  340loPI    C3 5427  10.046   1.155  10.652  0.0570  0.0488  0.1363
  340loPI   PO4 5428   9.787   1.521  10.211 -0.1044  0.0543 -0.0463
  340loPI   GL1 5429   9.908   1.583   9.832  0.1717 -0.1310  0.2292
  340loPI   GL2 5430   9.705   1.285   9.776  0.5977 -0.3255 -0.3294
  340loPI   C1A 5431   9.958   1.556   9.414 -0.2725 -0.4018  0.3653
  340loPI   C2A 5432   9.945   1.620   8.939 -0.0535  0.0118 -0.0804
  340loPI   C3A 5433  10.024   1.951   8.705  0.0321 -0.0508  0.0378
  340loPI   C4A 5434   9.878   1.879   8.255 -0.2044  0.1717  0.1722
  340loPI   C5A 5435   9.750   2.030   7.898  0.0982 -0.1165  0.2843
  340loPI   C6A 5436  10.022   2.031   7.534 -0.0280 -0.2651 -0.2196
  340loPI   C1B 5437   9.917   0.977   9.420 -0.0610  0.0298  0.2003
  340loPI   C2B 5438  10.059   1.027   9.064 -0.1754  0.1824 -0.0686
  340loPI   C3B 5439  10.004   1.108   8.665 -0.0485 -0.2911 -0.4131
  340loPI   C4B 5440   9.778   0.961   8.367  0.2592  0.1099 -0.1381
  341loPI    C1 5441   5.904   9.602  10.120  0.2030  0.0733 -0.0812
  341loPI    C2 5442   5.965   9.337  10.413  0.0808  0.0745 -0.0542
  341loPI    C3 5443   5.735   9.658  10.478 -0.0676 -0.0020 -0.1946
  341loPI   PO4 5444   5.890   9.522   9.930  0.0444 -0.0414 -0.1547
  341loPI   GL1 5445   5.847   9.638   9.425  0.2591 -0.0623 -0.0180
  341loPI   GL2 5446   6.256   9.837   9.458 -0.1574 -0.1656 -0.1275
  341loPI   C1A 5447   6.024   9.639   8.966  0.0517 -0.1450  0.3178
  341loPI   C2A 5448   6.118   9.415   8.575  0.0357 -0.2501  0.0073
  341loPI   C3A 5449   6.214   8.999   8.442 -0.0959  0.3032 -0.2312
  341loPI   C4A 5450   6.186   8.861   8.047  0.1106 -0.0425 -0.1426
  341loPI   C5A 5451   6.214   8.892   7.580 -0.2159 -0.3438  0.1809
  341loPI   C6A 5452   6.399   9.173   7.250  0.3614  0.0264  0.0335
  341loPI   C1B 5453   6.447   9.851   8.926 -0.2558 -0.1145 -0.2248
  341loPI   C2B 5454   6.418   9.775   8.607  0.3227  0.3437 -0.0182
  341loPI   C3B 5455   6.492   9.851   8.277 -0.1734  0.0148 -0.2771
  341loPI   C4B 5456   6.568   9.949   7.913 -0.1661 -0.0908 -0.1187
  342loPI    C1 5457   5.873   3.591  10.192  0.0988  0.3212  0.1662
  342loPI    C2 5458   5.618   3.318  10.050  0.4327  0.1103 -0.0434
  342loPI    C3 5459   5.495   3.584  10.322  0.0705 -0.1710  0.0771
  342loPI   PO4 5460   6.033   3.633   9.925 -0.0625  0.2941  0.0084
  342loPI   GL1 5461   5.842   3.270   9.586  0.0521  0.1789  0.1202
  342loPI   GL2 5462   6.108   3.337   9.521 -0.0950 -0.0261  0.1148
  342loPI   C1A 5463   5.567   3.409   9.215  0.0855  0.0884  0.0379
  342loPI   C2A 5464   5.258   3.479   8.864  0.1415  0.2778 -0.1916
  342loPI   C3A 5465   5.310   3.757   8.428 -0.3045  0.0372  0.1097
  342loPI   C4A 5466   5.100   3.579   8.040 -0.5219  0.3242 -0.2700
  342loPI   C5A 5467   4.736   3.460   7.788 -0.0728  0.2381  0.1127
  342loPI   C6A 5468   4.495   3.272   7.493 -0.0002  0.0642  0.3210
  342loPI   C1B 5469   6.197   3.238   9.072  0.0051  0.1267 -0.2860
  342loPI   C2B 5470   6.387   3.030   8.660  0.2137 -0.0570 -0.0555
  342loPI   C3B 5471   6.736   2.923   8.287  0.0932 -0.0794 -0.0759
  342loPI   C4B 5472   6.895   2.998   7.859  0.0612  0.0874 -0.0958
  343loPI    C1 5473  11.065   5.696  10.338  0.0370  0.0480 -0.0918
  343loPI    C2 5474  11.141   5.766  10.725 -0.4374  0.1107 -0.0040
  343loPI    C3 5475  11.339   5.476  10.531 -0.2917 -0.0118  0.3205
  343loPI   PO4 5476  11.104   5.963  10.190 -0.0029  0.1498  0.0149
  343loPI   GL1 5477  11.234   6.024   9.829 -0.1775  0.0961  0.0053
  343loPI   GL2 5478  11.013   6.236   9.744  0.0437 -0.0835  0.0427
  343loPI   C1A 5479  11.637   5.881   9.707  0.1248 -0.1147  0.0211
  343loPI   C2A 5480  11.731   5.820   9.285 -0.1096  0.0764  0.0346
  343loPI   C3A 5481  11.521   5.971   9.044 -0.0321  0.1886 -0.1090
  343loPI   C4A 5482  11.360   6.023   8.642 -0.0562  0.0188  0.0970
  343loPI   C5A 5483  11.395   6.167   8.155  0.0227 -0.0025  0.0626
  343loPI   C6A 5484  11.492   6.374   7.746 -0.0738  0.0193 -0.3174
  343loPI   C1B 5485  10.991   6.078   9.385  0.0535  0.0135 -0.0966
  343loPI   C2B 5486  10.853   5.874   9.048 -0.2373 -0.0687 -0.1370
  343loPI   C3B 5487  10.922   5.743   8.660  0.0284  0.1673  0.0574
  343loPI   C4B 5488  11.080   5.739   8.245  0.0713 -0.1192 -0.0587
  344loPI    C1 5489  17.678   9.590  10.254  0.1719 -0.0413  0.0261
  344loPI    C2 5490  17.610   9.240  10.436 -0.2922  0.0905  0.1198
  344loPI    C3 5491  17.669   9.570  10.654  0.4088  0.0362  0.0371
  344loPI   PO4 5492  17.493   9.573  10.032 -0.0815  0.2769 -0.1832
  344loPI   GL1 5493  17.354   9.362   9.700 -0.1999  0.0819 -0.1081
  344loPI   GL2 5494  17.054   9.567   9.746 -0.2359 -0.3228  0.1469
  344loPI   C1A 5495  17.440   9.325   9.220 -0.0359 -0.2700  0.2258
  344loPI   C2A 5496  17.236   9.313   8.872 -0.2323  0.1209  0.0378
  344loPI   C3A 5497  17.007   9.007   8.609 -0.0262  0.0015  0.0189
  344loPI   C4A 5498  17.049   8.888   8.127  0.3241 -0.1607  0.1163
  344loPI   C5A 5499  17.384   8.753   7.836  0.0893  0.1862 -0.1369
  344loPI   C6A 5500  17.358   8.754   7.373  0.2607  0.1757  0.1876
  344loPI   C1B 5501  16.969   9.255   9.380  0.1178  0.0635  0.1855
  344loPI   C2B 5502  16.925   8.981   9.090 -0.2054  0.0730  0.2626
  344loPI   C3B 5503  16.657   8.680   8.867 -0.2327  0.2091 -0.0287
  344loPI   C4B 5504  16.226   8.634   8.743 -0.0284  0.0275  0.2624
  345loPI    C1 5505   3.957   7.784  10.378 -0.0381 -0.0638  0.2219
  345loPI    C2 5506   3.624   7.989  10.293 -0.0127 -0.0253  0.2146
  345loPI    C3 5507   3.863   8.110  10.590 -0.0163 -0.0652  0.2339
  345loPI   PO4 5508   4.117   7.702  10.075  0.1132 -0.0269  0.4069
  345loPI   GL1 5509   3.891   7.566   9.690 -0.0002 -0.0527 -0.0402
  345loPI   GL2 5510   3.722   7.904   9.815 -0.1555 -0.1707 -0.2801
  345loPI   C1A 5511   3.767   7.619   9.323  0.2889  0.3046 -0.0652
  345loPI   C2A 5512   3.501   7.620   9.075 -0.1036  0.2654  0.0977
  345loPI   C3A 5513   3.400   7.581   8.745 -0.3063  0.0900 -0.4444
  345loPI   C4A 5514   3.228   7.462   8.375  0.0552 -0.0481  0.1459
  345loPI   C5A 5515   3.176   7.360   8.030  0.1685  0.0495  0.1458
  345loPI   C6A 5516   3.302   7.109   7.715 -0.0517  0.0578  0.0144
  345loPI   C1B 5517   3.635   8.070   9.315  0.0546 -0.2551 -0.0944
  345loPI   C2B 5518   3.571   8.088   8.882  0.0267  0.0205  0.0958
  345loPI   C3B 5519   3.446   8.369   8.471  0.1334 -0.0307  0.0054
  345loPI   C4B 5520   3.411   8.467   8.055  0.3211 -0.0432 -0.0271
  346loPI    C1 5521   8.634   0.481  10.334  0.1396  0.0677 -0.0134
  346loPI    C2 5522   8.740   0.113  10.219  0.0379  0.0958 -0.2011
  346loPI    C3 5523   8.961   0.310  10.487  0.1144 -0.0866 -0.1288
  346loPI   PO4 5524   8.508   0.573  10.120  0.0627 -0.4478  0.0180
  346loPI   GL1 5525   8.443   0.693   9.840 -0.0634 -0.5668 -0.1202
  346loPI   GL2 5526   8.204   0.552   9.683 -0.0845 -0.3402 -0.2372
  346loPI   C1A 5527   8.588   0.523   9.413  0.0309  0.1837 -0.3858
  346loPI   C2A 5528   8.567   0.488   8.909 -0.1068  0.1874 -0.2502
  346loPI   C3A 5529   8.315   0.457   8.554 -0.1249 -0.0005 -0.1165
  346loPI   C4A 5530   8.458   0.694   8.196 -0.0041 -0.0953  0.0641
  346loPI   C5A 5531   8.364   0.784   7.758 -0.0085 -0.0166 -0.0267
  346loPI   C6A 5532   8.345   0.693   7.392  0.0167  0.0519  0.1786
  346loPI   C1B 5533   8.134   0.636   9.308  0.0371  0.0823  0.2256
  346loPI   C2B 5534   8.154   0.849   8.885  0.5426  0.2338 -0.2574
  346loPI   C3B 5535   8.055   0.991   8.497 -0.1024  0.1068  0.0028
  346loPI   C4B 5536   8.228   1.140   8.146  0.3312 -0.1578  0.0856
  347loPI    C1 5537   7.145  10.681  10.231 -0.0622 -0.0355  0.2358
  347loPI    C2 5538   7.408  10.518  10.484  0.1321  0.0022  0.0613
  347loPI    C3 5539   7.086  10.709  10.626  0.0738 -0.2463  0.2725
  347loPI   PO4 5540   7.270  10.545   9.893 -0.2645  0.0795  0.1373
  347loPI   GL1 5541   7.046  10.497   9.574  0.0025  0.1705  0.0983
  347loPI   GL2 5542   7.229  10.351   9.306 -0.2342 -0.1839 -0.2457
  347loPI   C1A 5543   6.789  10.670   9.219 -0.1594  0.0682 -0.0515
  347loPI   C2A 5544   6.600  10.690   8.814 -0.0212 -0.3022 -0.1090
  347loPI   C3A 5545   6.724  10.762   8.431  0.0880 -0.3088  0.0320
  347loPI   C4A 5546   6.767  10.954   7.965 -0.0009  0.0238 -0.0953
  347loPI   C5A 5547   6.372  11.310   7.788 -0.0606 -0.3108  0.0896
  347loPI   C6A 5548   6.097  11.508   7.773 -0.1253  0.1046  0.3108
  347loPI   C1B 5549   7.195  10.407   8.892  0.1215  0.0703  0.1606
  347loPI   C2B 5550   7.262  10.304   8.396 -0.2432  0.0159  0.0947
  347loPI   C3B 5551   7.501  10.087   8.024 -0.0268  0.1499 -0.0039
  347loPI   C4B 5552   7.822  10.123   7.911 -0.1717  0.0235  0.1819
  348loPI    C1 5553  16.932   5.933  10.588  0.0742 -0.1822  0.3433
  348loPI    C2 5554  17.146   5.697  10.345  0.1635 -0.0306  0.2734
  348loPI    C3 5555  17.299   5.816  10.695  0.1629  0.0137  0.2586
  348loPI   PO4 5556  16.871   6.104  10.333  0.1082  0.0652  0.1771
  348loPI   GL1 5557  16.746   5.996  10.014  0.1795 -0.3552  0.2343
  348loPI   GL2 5558  16.362   6.016   9.987 -0.2142  0.1052 -0.1333
  348loPI   C1A 5559  16.841   5.967   9.585  0.0806 -0.1982  0.2058
  348loPI   C2A 5560  16.804   5.939   9.137 -0.2425  0.0680  0.1999
  348loPI   C3A 5561  16.998   6.120   8.703  0.2372 -0.0493  0.0303
  348loPI   C4A 5562  17.119   6.203   8.343 -0.0813  0.1438  0.3811
  348loPI   C5A 5563  16.965   5.838   8.046  0.2150 -0.0363  0.0317
  348loPI   C6A 5564  16.562   5.864   7.910 -0.0731  0.0497  0.3123
  348loPI   C1B 5565  16.303   5.936   9.522 -0.1065 -0.0657 -0.1090
  348loPI   C2B 5566  16.096   5.807   9.139 -0.0941  0.2143 -0.2672
  348loPI   C3B 5567  16.105   5.754   8.708  0.6074  0.1570  0.2509
  348loPI   C4B 5568  16.241   5.729   8.336  0.0311 -0.2213  0.3401
  349loPI    C1 5569  13.012  14.929  10.145  0.1383  0.0804 -0.0843
  349loPI    C2 5570  12.761  15.079  10.418  0.1415 -0.0531 -0.0070
  349loPI    C3 5571  12.684  14.725  10.249  0.3278 -0.1408  0.0891
  349loPI   PO4 5572  13.346  15.077  10.192  0.0860  0.1681 -0.1839
  349loPI   GL1 5573  13.415  15.317   9.890  0.0112 -0.0740 -0.0585
  349loPI   GL2 5574  13.714  15.450   9.850 -0.0965 -0.1410 -0.2295
  349loPI   C1A 5575  13.488  15.518   9.421  0.1028  0.1004  0.1449
  349loPI   C2A 5576  13.322  15.640   9.051  0.1694 -0.2545 -0.1545
  349loPI   C3A 5577  12.997  15.572   8.692 -0.3065  0.1796  0.1774
  349loPI   C4A 5578  12.786  15.404   8.308  0.1106  0.0652  0.0811
  349loPI   C5A 5579  12.721  15.163   7.938 -0.0786 -0.1668  0.1223
  349loPI   C6A 5580  12.776  14.968   7.525 -0.1583  0.2591  0.0439
  349loPI   C1B 5581  13.903  15.705   9.528 -0.1377 -0.0872 -0.0895
  349loPI   C2B 5582  13.998  15.932   9.067  0.2652 -0.0489 -0.2421
  349loPI   C3B 5583  13.999  15.865   8.592  0.0031  0.1166  0.1275
  349loPI   C4B 5584  13.820  15.832   8.195  0.0051 -0.0964 -0.0677
  350loPI    C1 5585   6.786   8.319   9.979  0.2488  0.0794  0.0608
  350loPI    C2 5586   6.940   8.293  10.348  0.1208 -0.2256  0.0963
  350loPI    C3 5587   6.571   8.439  10.294  0.2180  0.0143  0.0647
  350loPI   PO4 5588   6.902   8.105   9.874 -0.0411  0.1877  0.2022
  350loPI   GL1 5589   7.277   7.813   9.666  0.1840 -0.1304 -0.1376
  350loPI   GL2 5590   7.214   8.045   9.466  0.0514  0.3647 -0.2205
  350loPI   C1A 5591   7.527   7.534   9.380  0.2952 -0.2060  0.2234
  350loPI   C2A 5592   7.917   7.526   9.219 -0.1508 -0.3187  0.2068
  350loPI   C3A 5593   7.946   7.482   8.714  0.0273 -0.0642  0.0460
  350loPI   C4A 5594   8.156   7.580   8.363  0.1820  0.2516 -0.0188
  350loPI   C5A 5595   8.076   7.715   8.040 -0.0370 -0.2893 -0.2627
  350loPI   C6A 5596   7.929   7.575   7.526 -0.3354 -0.0786  0.1363
  350loPI   C1B 5597   7.161   7.771   9.112 -0.1677 -0.0465  0.1295
  350loPI   C2B 5598   6.996   7.713   8.711 -0.0866  0.3570  0.1295
  350loPI   C3B 5599   7.028   7.836   8.356 -0.3196  0.0963 -0.0274
  350loPI   C4B 5600   7.019   7.959   7.922 -0.1964  0.0461 -0.0113
  351loPI    C1 5601  11.472  12.226  10.375  0.0806  0.1379  0.0922
  351loPI    C2 5602  11.776  12.317  10.618 -0.0548  0.2191  0.2332
  351loPI    C3 5603  11.721  12.525  10.280 -0.1132  0.3845  0.3429
  351loPI   PO4 5604  11.494  12.026  10.245 -0.0770  0.1180 -0.0537
  351loPI   GL1 5605  11.458  12.258   9.852 -0.2912  0.0138 -0.1940
  351loPI   GL2 5606  11.166  12.364  10.052 -0.0241  0.0966 -0.0016
  351loPI   C1A 5607  11.510  12.223   9.495 -0.0132  0.2656 -0.2288
  351loPI   C2A 5608  11.493  12.335   9.029  0.0821 -0.2230  0.1346
  351loPI   C3A 5609  11.599  12.227   8.625 -0.0091  0.0734 -0.0657
  351loPI   C4A 5610  11.895  12.141   8.327 -0.1467 -0.0343  0.0816
  351loPI   C5A 5611  11.871  11.974   7.893  0.0167  0.1726 -0.0898
  351loPI   C6A 5612  11.734  11.951   7.466  0.1762  0.0087 -0.0614
  351loPI   C1B 5613  10.905  12.465   9.662  0.0024  0.2877 -0.0099
  351loPI   C2B 5614  10.897  12.501   9.231  0.0539 -0.0071  0.0937
  351loPI   C3B 5615  11.016  12.405   8.813  0.0407 -0.1553 -0.2732
  351loPI   C4B 5616  11.156  12.445   8.391  0.3437  0.1164 -0.1292
  352loPI    C1 5617  17.124   9.094  10.490  0.1828 -0.2127 -0.1040
  352loPI    C2 5618  16.909   9.052  10.825  0.1553  0.2114 -0.0621
  352loPI    C3 5619  17.211   8.801  10.748  0.0071 -0.0397  0.1572
  352loPI   PO4 5620  16.944   9.109  10.287  0.0279 -0.2120 -0.0281
  352loPI   GL1 5621  16.968   9.001   9.847 -0.1681  0.2542  0.1464
  352loPI   GL2 5622  16.721   9.190   9.821  0.0319 -0.1942 -0.2069
  352loPI   C1A 5623  17.319   8.916   9.554  0.0748  0.1575 -0.4061
  352loPI   C2A 5624  17.483   8.699   9.150 -0.0624  0.1214  0.3630
  352loPI   C3A 5625  17.516   8.864   8.739 -0.0784  0.0792  0.1091
  352loPI   C4A 5626  17.530   9.182   8.339 -0.1193  0.0969  0.2441
  352loPI   C5A 5627  17.721   9.172   7.959  0.0358 -0.0314  0.1723
  352loPI   C6A 5628  18.008   8.997   7.624 -0.0195  0.0825 -0.0047
  352loPI   C1B 5629  16.591   9.615   9.570  0.1318  0.0728  0.1017
  352loPI   C2B 5630  16.646   9.559   9.133  0.0292 -0.0250 -0.3053
  352loPI   C3B 5631  16.830   9.508   8.712  0.1037 -0.0971 -0.0164
  352loPI   C4B 5632  17.114   9.401   8.275  0.1100 -0.3322 -0.1012
  353loPI    C1 5633   2.718  11.362  10.087 -0.0552  0.1358  0.1537
  353loPI    C2 5634   2.906  11.020   9.999 -0.2029  0.0912  0.0052
  353loPI    C3 5635   2.866  11.134  10.381  0.1565  0.1209  0.0371
  353loPI   PO4 5636   2.472  11.298   9.993  0.0259  0.1173 -0.2331
  353loPI   GL1 5637   2.177  11.561   9.788  0.1408  0.0266 -0.1612
  353loPI   GL2 5638   2.021  11.576   9.945  0.1809 -0.1008 -0.1119
  353loPI   C1A 5639   2.606  11.628   9.454 -0.2037  0.0878 -0.1025
  353loPI   C2A 5640   2.942  11.797   9.200  0.1778  0.0277  0.1284
  353loPI   C3A 5641   3.079  11.938   8.781  0.0248 -0.1334  0.1032
  353loPI   C4A 5642   3.324  12.000   8.395 -0.2493  0.2754  0.1110
  353loPI   C5A 5643   3.807  12.147   8.279  0.2685 -0.0053  0.1862
  353loPI   C6A 5644   4.264  11.998   8.265 -0.1889 -0.4817 -0.0880
  353loPI   C1B 5645   1.811  11.321   9.613  0.0327  0.0703  0.0392
  353loPI   C2B 5646   1.777  11.140   9.240  0.1411 -0.0951 -0.2613
  353loPI   C3B 5647   1.889  11.218   8.871 -0.0817  0.1688 -0.0485
  353loPI   C4B 5648   1.898  11.611   8.648 -0.1494 -0.0048  0.0471
  354loPI    C1 5649   9.608  17.910  10.380 -0.2473  0.2627 -0.0582
  354loPI    C2 5650   9.955  18.108  10.401 -0.0427 -0.0878 -0.0708
  354loPI    C3 5651   9.662  18.191  10.660  0.0351  0.2350 -0.0820
  354loPI   PO4 5652   9.446  17.915  10.065  0.1388  0.2014 -0.0720
  354loPI   GL1 5653   9.752  17.911   9.718 -0.2861  0.0223  0.0675
  354loPI   GL2 5654   9.950  17.926   9.879 -0.1599 -0.1056  0.1603
  354loPI   C1A 5655   9.697  18.332   9.579  0.0621 -0.3072  0.0531
  354loPI   C2A 5656   9.661  18.377   9.194 -0.3206 -0.2216  0.0526
  354loPI   C3A 5657   9.845  18.441   8.802 -0.1864 -0.3327 -0.1855
  354loPI   C4A 5658   9.724  18.313   8.408  0.2420  0.1802 -0.3687
  354loPI   C5A 5659   9.716  18.099   8.057  0.0636 -0.0422 -0.0649
  354loPI   C6A 5660   9.707  18.003   7.571 -0.5383  0.1481 -0.1961
  354loPI   C1B 5661  10.105  17.624   9.521  0.1865  0.0761 -0.1639
  354loPI   C2B 5662  10.315  17.611   9.164 -0.1695  0.0428 -0.1077
  354loPI   C3B 5663  10.424  17.640   8.739 -0.0624 -0.3637 -0.1365
  354loPI   C4B 5664  10.573  17.590   8.293 -0.3170  0.1559 -0.0768
  355loPI    C1 5665  17.627  17.036  11.002 -0.1146  0.0752  0.1725
  355loPI    C2 5666  17.824  16.791  11.249  0.0373 -0.0739 -0.0922
  355loPI    C3 5667  17.446  16.893  11.329  0.1184 -0.0336  0.2562
  355loPI   PO4 5668  17.661  16.949  10.740  0.0378  0.2619 -0.0105
  355loPI   GL1 5669  17.380  17.028  10.353 -0.0273  0.1987 -0.1814
  355loPI   GL2 5670  17.614  17.130  10.204 -0.1909  0.3081 -0.4282
  355loPI   C1A 5671  16.993  16.952  10.043  0.3113  0.0192  0.0304
  355loPI   C2A 5672  17.031  16.918   9.504  0.1442 -0.0609  0.0018
  355loPI   C3A 5673  16.989  16.994   9.093  0.0230  0.0227 -0.0219
  355loPI   C4A 5674  16.746  17.374   8.920  0.2239 -0.0428  0.0821
  355loPI   C5A 5675  16.697  17.685   9.202  0.1879  0.0547 -0.0237
  355loPI   C6A 5676  16.607  18.104   9.382  0.2881 -0.3735  0.0920
  355loPI   C1B 5677  17.580  17.061   9.752  0.2138 -0.1766  0.1568
  355loPI   C2B 5678  17.487  17.026   9.349 -0.1407  0.1641  0.1940
  355loPI   C3B 5679  17.423  17.026   8.851 -0.2648  0.0323 -0.1629
  355loPI   C4B 5680  17.272  16.855   8.418  0.1051  0.0830 -0.0242
  356loPI    C1 5681   8.982  16.437  10.581 -0.0303  0.0279 -0.1080
  356loPI    C2 5682   9.097  16.273  10.235  0.1688  0.4064 -0.2276
  356loPI    C3 5683   9.205  16.105  10.582 -0.0647  0.0026 -0.3439
  356loPI   PO4 5684   8.732  16.576  10.466 -0.0930 -0.1964 -0.1449
  356loPI   GL1 5685   8.753  16.654  10.032  0.0401  0.1228  0.1490
  356loPI   GL2 5686   8.850  16.775   9.837  0.1460  0.0493  0.0848
  356loPI   C1A 5687   8.758  16.336   9.652 -0.0411 -0.1185  0.1742
  356loPI   C2A 5688   8.527  16.022   9.509 -0.1689 -0.2966 -0.0978
  356loPI   C3A 5689   8.518  15.845   9.158  0.0541  0.1108 -0.4612
  356loPI   C4A 5690   8.739  16.055   8.856 -0.1392  0.0495  0.2592
  356loPI   C5A 5691   8.872  16.412   8.982  0.1618  0.0985 -0.1111
  356loPI   C6A 5692   9.122  16.477   9.317  0.0798 -0.1612 -0.0026
  356loPI   C1B 5693   8.786  16.948   9.428 -0.0463  0.0756  0.0844
  356loPI   C2B 5694   8.940  16.946   9.024 -0.0764 -0.3293 -0.0144
  356loPI   C3B 5695   8.996  16.782   8.627 -0.2094 -0.2083  0.0381
  356loPI   C4B 5696   8.688  16.449   8.499  0.3055  0.2371  0.3081
  357loPI    C1 5697  10.375   6.900  10.574  0.1210  0.0276 -0.0330
  357loPI    C2 5698  10.331   6.711  10.924  0.0367 -0.1821 -0.1546
  357loPI    C3 5699  10.203   7.088  10.882  0.1563 -0.1144  0.0742
  357loPI   PO4 5700  10.597   6.780  10.470  0.3267  0.0176 -0.4201
  357loPI   GL1 5701  10.707   6.805  10.064 -0.0665 -0.0108 -0.1073
  357loPI   GL2 5702  10.699   7.059   9.965 -0.1739  0.3230 -0.1079
  357loPI   C1A 5703  10.654   6.599   9.740 -0.0440 -0.1196  0.1085
  357loPI   C2A 5704  10.730   6.486   9.350 -0.1128 -0.4470 -0.1066
  357loPI   C3A 5705  10.533   6.541   8.971  0.2832  0.1310 -0.1619
  357loPI   C4A 5706  10.715   6.714   8.498  0.0199  0.1346 -0.2537
  357loPI   C5A 5707  10.853   7.041   8.315  0.0228 -0.0325  0.2263
  357loPI   C6A 5708  11.041   7.413   8.066  0.2597  0.1832  0.0515
  357loPI   C1B 5709  10.731   7.064   9.537  0.0134  0.0382 -0.1483
  357loPI   C2B 5710  10.604   7.133   9.111 -0.2082 -0.0049 -0.2041
  357loPI   C3B 5711  10.522   7.326   8.741  0.1498  0.0792 -0.2016
  357loPI   C4B 5712  10.531   7.416   8.273 -0.1804  0.0668 -0.0149
  358loPI    C1 5713  17.166  16.717  10.937  0.0070 -0.0233  0.0981
  358loPI    C2 5714  17.199  16.353  10.775  0.0562  0.0841 -0.1366
  358loPI    C3 5715  17.504  16.508  10.983  0.0005 -0.0456  0.0437
  358loPI   PO4 5716  17.077  16.813  10.689  0.1937 -0.2015 -0.0102
  358loPI   GL1 5717  16.709  16.948  10.455 -0.2083 -0.1537  0.1297
  358loPI   GL2 5718  16.860  17.273  10.516 -0.0852  0.0707  0.2606
  358loPI   C1A 5719  16.517  16.939   9.980  0.0233  0.3384  0.4296
  358loPI   C2A 5720  16.397  16.797   9.645 -0.1806 -0.0568  0.0098
  358loPI   C3A 5721  16.463  16.678   9.244 -0.0840  0.0717 -0.1846
  358loPI   C4A 5722  16.513  16.588   8.822  0.0231  0.0317  0.0656
  358loPI   C5A 5723  16.817  16.816   8.574 -0.1395  0.4054  0.0221
  358loPI   C6A 5724  16.803  17.234   8.247 -0.2365  0.1807  0.2399
  358loPI   C1B 5725  16.751  17.387  10.035 -0.0770  0.1882  0.2242
  358loPI   C2B 5726  16.706  17.330   9.602 -0.1234 -0.3048  0.0788
  358loPI   C3B 5727  16.560  17.154   9.279  0.0642  0.0598  0.0216
  358loPI   C4B 5728  16.418  17.037   8.928  0.1089 -0.1277  0.0117
  359loPI    C1 5729   4.863  15.419  10.538  0.1546  0.0936 -0.2657
  359loPI    C2 5730   4.869  15.790  10.688  0.0342 -0.0852  0.1990
  359loPI    C3 5731   5.097  15.504  10.851 -0.2789 -0.3428  0.1960
  359loPI   PO4 5732   4.931  15.490  10.247 -0.1240 -0.1077 -0.4333
  359loPI   GL1 5733   4.641  15.419   9.860 -0.0195  0.1637  0.1690
  359loPI   GL2 5734   4.763  15.720   9.846  0.2026 -0.2350  0.1036
  359loPI   C1A 5735   4.386  15.116   9.599 -0.1565  0.1251 -0.2477
  359loPI   C2A 5736   4.362  15.032   9.155  0.0071 -0.1208  0.1336
  359loPI   C3A 5737   4.588  14.979   8.757  0.1721  0.1523  0.2244
  359loPI   C4A 5738   4.784  14.731   8.437 -0.0038 -0.0993 -0.2126
  359loPI   C5A 5739   5.014  14.475   8.183  0.1466 -0.2042 -0.2297
  359loPI   C6A 5740   5.262  14.168   8.098 -0.0068 -0.2616  0.1192
  359loPI   C1B 5741   4.949  15.633   9.409 -0.1136 -0.1415 -0.0500
  359loPI   C2B 5742   5.015  15.723   9.058  0.1100  0.1455 -0.1308
  359loPI   C3B 5743   5.288  15.596   8.824 -0.4015 -0.3173 -0.0015
  359loPI   C4B 5744   5.452  15.431   8.429  0.1053 -0.0696  0.1077
  360loPI    C1 5745   0.707   7.507  10.350 -0.0614  0.0421 -0.0021
  360loPI    C2 5746   0.560   7.700  10.032  0.0875  0.0168 -0.0871
  360loPI    C3 5747   0.324   7.623  10.345 -0.0162  0.1907 -0.1208
  360loPI   PO4 5748   0.870   7.228  10.242  0.0391  0.3016  0.0528
  360loPI   GL1 5749   0.787   6.976   9.843 -0.0497  0.1728  0.2189
  360loPI   GL2 5750   0.804   6.632   9.875  0.0956  0.0064  0.2112
  360loPI   C1A 5751   0.699   6.943   9.407 -0.2787  0.0391 -0.1753
  360loPI   C2A 5752   0.627   6.918   9.061  0.2110 -0.2073  0.3192
  360loPI   C3A 5753   0.504   6.774   8.722 -0.1531  0.0393  0.0833
  360loPI   C4A 5754   0.542   6.958   8.322 -0.0421 -0.3222  0.0696
  360loPI   C5A 5755   0.826   6.861   8.003  0.2735 -0.0271  0.2384
  360loPI   C6A 5756   1.176   7.171   7.835 -0.1479  0.2740 -0.3307
  360loPI   C1B 5757   0.740   6.440   9.465  0.2349  0.2419  0.1752
  360loPI   C2B 5758   0.765   6.379   9.088  0.1062  0.2030 -0.1081
  360loPI   C3B 5759   0.672   6.345   8.664 -0.1034  0.0639 -0.1401
  360loPI   C4B 5760   0.504   6.514   8.314  0.4388  0.2306 -0.2476
  361loPI    C1 5761  13.963   2.910  10.532 -0.0057 -0.1033  0.0913
  361loPI    C2 5762  14.028   3.304  10.559 -0.2002 -0.0665  0.0356
  361loPI    C3 5763  14.299   3.068  10.384 -0.1093  0.0504  0.0177
  361loPI   PO4 5764  13.796   2.821  10.450  0.1245 -0.0295  0.1005
  361loPI   GL1 5765  13.391   2.809  10.203 -0.0278 -0.5000  0.1457
  361loPI   GL2 5766  13.550   2.655  10.033 -0.2318  0.3389  0.1235
  361loPI   C1A 5767  13.277   2.995   9.796 -0.0167  0.1803 -0.7063
  361loPI   C2A 5768  13.199   3.147   9.481 -0.0659 -0.3337 -0.1704
  361loPI   C3A 5769  13.029   3.433   9.088 -0.0921 -0.1981 -0.0199
  361loPI   C4A 5770  13.041   3.698   8.708  0.3308 -0.0242 -0.0625
  361loPI   C5A 5771  13.311   3.645   8.327 -0.4987  0.3380 -0.0772
  361loPI   C6A 5772  13.614   3.448   8.011 -0.0314 -0.2837  0.0530
  361loPI   C1B 5773  13.512   2.602   9.616 -0.0074 -0.0591 -0.3551
  361loPI   C2B 5774  13.258   2.387   9.295 -0.1573 -0.1160  0.1016
  361loPI   C3B 5775  13.044   2.011   9.183  0.1846 -0.1628  0.1174
  361loPI   C4B 5776  13.114   1.646   8.970  0.0571 -0.1315 -0.0496
  362loPI    C1 5777   1.314  13.902  10.423  0.0437 -0.0965  0.2580
  362loPI    C2 5778   1.157  13.571  10.263 -0.0262  0.0550  0.0088
  362loPI    C3 5779   0.994  13.731  10.591 -0.0300 -0.1209  0.0938
  362loPI   PO4 5780   1.463  13.927  10.146 -0.0094 -0.2178  0.0685
  362loPI   GL1 5781   1.504  14.081   9.769 -0.1703  0.1640 -0.2487
  362loPI   GL2 5782   1.527  14.391   9.833 -0.0637  0.1528  0.1185
  362loPI   C1A 5783   1.498  13.850   9.411 -0.1511  0.0309 -0.0030
  362loPI   C2A 5784   1.637  13.816   8.961  0.1277 -0.2141  0.1239
  362loPI   C3A 5785   1.751  13.931   8.528  0.1115  0.1739 -0.0837
  362loPI   C4A 5786   1.928  13.932   8.067  0.0721 -0.3116 -0.1090
  362loPI   C5A 5787   2.068  13.787   7.763  0.1205  0.1054  0.0207
  362loPI   C6A 5788   2.482  13.604   7.683 -0.0648  0.0517 -0.0856
  362loPI   C1B 5789   1.598  14.359   9.358 -0.2236  0.2952  0.1752
  362loPI   C2B 5790   1.619  14.308   8.990 -0.0302  0.0017  0.2077
  362loPI   C3B 5791   1.378  14.287   8.689  0.1416 -0.1917  0.2939
  362loPI   C4B 5792   1.525  14.235   8.251  0.0312  0.3330  0.0955
  363loPI    C1 5793   0.030  10.171  10.006 -0.0868 -0.1261 -0.0664
  363loPI    C2 5794   0.410  10.295   9.997 -0.1236 -0.0171 -0.1410
  363loPI    C3 5795   0.287  10.049  10.288 -0.0281  0.0506 -0.0424
  363loPI   PO4 5796  -0.094  10.321  10.097 -0.0078 -0.3796  0.3175
  363loPI   GL1 5797  -0.277  10.520   9.718  0.0893 -0.1272 -0.1692
  363loPI   GL2 5798   0.040  10.740   9.800  0.2671  0.0030 -0.0467
  363loPI   C1A 5799  -0.211  10.600   9.379 -0.0125  0.4235 -0.0272
  363loPI   C2A 5800  -0.355  10.469   8.947  0.0739  0.1324 -0.2558
  363loPI   C3A 5801  -0.337  10.423   8.501 -0.1076 -0.1701 -0.1518
  363loPI   C4A 5802  -0.208  10.643   8.208 -0.2833  0.2034 -0.1241
  363loPI   C5A 5803  -0.125  10.845   7.861 -0.0213 -0.0711 -0.3457
  363loPI   C6A 5804   0.159  11.127   7.802  0.0719  0.0577  0.0607
  363loPI   C1B 5805   0.232  10.928   9.477  0.1583  0.0286 -0.0459
  363loPI   C2B 5806   0.191  10.718   9.151  0.1469  0.0580  0.3049
  363loPI   C3B 5807   0.038  10.703   8.711  0.1435  0.2599 -0.0146
  363loPI   C4B 5808   0.272  10.706   8.406 -0.1406 -0.1867 -0.1309
  364loPI    C1 5809   6.324  14.535  10.229  0.0994  0.1447 -0.0067
  364loPI    C2 5810   6.485  14.175  10.296 -0.0571  0.1092  0.1875
  364loPI    C3 5811   6.184  14.305  10.525 -0.3928  0.1210 -0.2470
  364loPI   PO4 5812   6.483  14.773  10.224  0.1306  0.3883  0.3648
  364loPI   GL1 5813   6.745  15.121  10.004 -0.0519 -0.0644 -0.0963
  364loPI   GL2 5814   6.475  15.123   9.904 -0.0647 -0.0903 -0.1324
  364loPI   C1A 5815   6.893  15.387   9.607 -0.2483  0.1229 -0.3168
  364loPI   C2A 5816   7.095  15.257   9.214  0.0678 -0.0707 -0.2310
  364loPI   C3A 5817   7.016  15.290   8.880 -0.1444 -0.0055  0.1182
  364loPI   C4A 5818   6.987  15.215   8.496 -0.0404 -0.2032  0.3397
  364loPI   C5A 5819   6.994  15.195   8.101 -0.2473  0.1362  0.0775
  364loPI   C6A 5820   7.239  14.924   7.917  0.2937 -0.1305 -0.0251
  364loPI   C1B 5821   6.558  15.068   9.518 -0.2021  0.2665 -0.1331
  364loPI   C2B 5822   6.589  15.068   9.111  0.2270 -0.1814 -0.0372
  364loPI   C3B 5823   6.518  14.997   8.644 -0.3564 -0.0623  0.1923
  364loPI   C4B 5824   6.281  15.065   8.278  0.4105  0.0393  0.1086
  365loPI    C1 5825   9.303  15.351  10.524  0.1800 -0.0503  0.0691
  365loPI    C2 5826   8.969  15.145  10.598  0.0810  0.0304 -0.1472
  365loPI    C3 5827   9.034  15.297  10.234  0.2358  0.2303 -0.0379
  365loPI   PO4 5828   9.532  15.163  10.516  0.2871  0.0005 -0.3265
  365loPI   GL1 5829   9.860  15.255  10.216  0.1224 -0.2313  0.1136
  365loPI   GL2 5830   9.553  15.347  10.043 -0.0429  0.1862  0.1994
  365loPI   C1A 5831   9.880  14.906   9.891 -0.0306  0.2780  0.2393
  365loPI   C2A 5832   9.850  14.789   9.451  0.2483  0.2504  0.2406
  365loPI   C3A 5833  10.074  14.776   9.095  0.0450 -0.0261  0.3482
  365loPI   C4A 5834  10.095  14.536   8.704 -0.1607  0.2942  0.0772
  365loPI   C5A 5835   9.954  14.427   8.301 -0.1426  0.0614  0.1522
  365loPI   C6A 5836  10.159  14.268   8.000 -0.1388  0.0511 -0.0962
  365loPI   C1B 5837   9.309  15.441   9.757  0.0043 -0.1578  0.0448
  365loPI   C2B 5838   9.312  15.525   9.383  0.1058  0.0642  0.3004
  365loPI   C3B 5839   9.548  15.715   9.000  0.1110  0.1423  0.0494
  365loPI   C4B 5840   9.573  15.891   8.630 -0.1160  0.0556  0.1924
  366loPI    C1 5841   8.505   2.526   9.969 -0.1272 -0.0516 -0.0184
  366loPI    C2 5842   8.446   2.456  10.358 -0.1963  0.2528  0.0287
  366loPI    C3 5843   8.632   2.184  10.132 -0.0502  0.1242  0.2989
  366loPI   PO4 5844   8.260   2.608   9.926 -0.0842 -0.1844 -0.1906
  366loPI   GL1 5845   8.214   2.590   9.545 -0.2200  0.0745  0.0929
  366loPI   GL2 5846   8.461   2.756   9.471 -0.0245  0.1397 -0.0422
  366loPI   C1A 5847   8.022   2.742   9.168  0.1604  0.0834 -0.2466
  366loPI   C2A 5848   8.062   2.760   8.689  0.2565 -0.2549  0.0246
  366loPI   C3A 5849   8.212   2.593   8.341  0.0304 -0.0269  0.0932
  366loPI   C4A 5850   8.541   2.449   8.100  0.1361 -0.0121 -0.0152
  366loPI   C5A 5851   8.836   2.278   8.028  0.0383  0.1416  0.2193
  366loPI   C6A 5852   8.924   1.845   8.066  0.1390  0.1112 -0.4045
  366loPI   C1B 5853   8.482   2.917   9.039 -0.0488  0.0347  0.0916
  366loPI   C2B 5854   8.489   3.231   8.772  0.0315 -0.3423  0.0981
  366loPI   C3B 5855   8.518   3.554   8.431 -0.3313  0.1547 -0.0836
  366loPI   C4B 5856   8.425   3.982   8.282  0.0757  0.1008  0.2543
  367loPI    C1 5857   1.690   4.669  10.741  0.0807  0.2021 -0.2681
  367loPI    C2 5858   1.789   5.056  10.714  0.3008  0.1630 -0.0555
  367loPI    C3 5859   1.937   4.832  11.010  0.1112 -0.0660 -0.1309
  367loPI   PO4 5860   1.526   4.588  10.465 -0.1364 -0.1597  0.1372
  367loPI   GL1 5861   1.437   4.557  10.048 -0.0593 -0.1740 -0.0384
  367loPI   GL2 5862   1.098   4.369   9.864  0.2215  0.0083 -0.4489
  367loPI   C1A 5863   1.427   4.621   9.604 -0.2626  0.1138 -0.1371
  367loPI   C2A 5864   1.300   4.361   9.319 -0.0070  0.1867  0.1762
  367loPI   C3A 5865   1.262   4.337   8.971 -0.3005 -0.4527 -0.0398
  367loPI   C4A 5866   1.290   4.194   8.551 -0.1777  0.2200  0.1470
  367loPI   C5A 5867   1.465   4.220   8.119  0.2124  0.1282  0.0128
  367loPI   C6A 5868   1.834   4.099   7.821 -0.3180  0.0338  0.0645
  367loPI   C1B 5869   0.940   4.099   9.513 -0.1290 -0.0310 -0.1866
  367loPI   C2B 5870   0.881   4.041   9.129  0.0410  0.2580 -0.0742
  367loPI   C3B 5871   0.798   4.194   8.796  0.0193  0.1197 -0.0378
  367loPI   C4B 5872   0.848   4.159   8.352  0.2786 -0.4472 -0.1183
  368loPI    C1 5873   0.332   6.451  10.348 -0.0456  0.0525 -0.1110
  368loPI    C2 5874  -0.023   6.620  10.422 -0.0537  0.0456 -0.1335
  368loPI    C3 5875   0.086   6.289  10.619 -0.0290  0.0887 -0.0742
  368loPI   PO4 5876   0.348   6.537  10.082  0.1590  0.1983 -0.0751
  368loPI   GL1 5877   0.305   6.898   9.704  0.2209 -0.0362  0.1454
  368loPI   GL2 5878   0.007   7.091   9.596 -0.0301 -0.0784  0.0760
  368loPI   C1A 5879   0.172   6.569   9.440 -0.1923  0.0588 -0.0808
  368loPI   C2A 5880   0.282   6.487   9.093 -0.4490 -0.1480  0.0181
  368loPI   C3A 5881   0.079   6.441   8.661  0.0429  0.0826  0.1395
  368loPI   C4A 5882  -0.021   6.229   8.209  0.1695  0.1894  0.0221
  368loPI   C5A 5883   0.088   5.876   7.950 -0.1009 -0.0378  0.0801
  368loPI   C6A 5884   0.031   5.574   7.571 -0.0951  0.0533  0.0675
  368loPI   C1B 5885   0.223   7.129   9.165 -0.1360 -0.2729  0.0028
  368loPI   C2B 5886   0.337   7.261   8.811 -0.3871  0.0197  0.2076
  368loPI   C3B 5887   0.422   7.483   8.408  0.4132 -0.0312  0.1090
  368loPI   C4B 5888   0.403   7.377   7.966  0.3373  0.1002  0.3795
  369loPI    C1 5889   5.472  10.005  10.215  0.2518  0.0164  0.0645
  369loPI    C2 5890   5.473  10.327  10.452 -0.0287  0.0213  0.0634
  369loPI    C3 5891   5.317   9.983  10.584  0.0184 -0.0380 -0.0346
  369loPI   PO4 5892   5.389  10.171   9.977 -0.2030 -0.1895 -0.0542
  369loPI   GL1 5893   5.497   9.969   9.530  0.2478  0.0959  0.0008
  369loPI   GL2 5894   5.795  10.158   9.632 -0.0998 -0.0995 -0.1781
  369loPI   C1A 5895   5.423   9.898   9.195 -0.0776 -0.1121  0.0885
  369loPI   C2A 5896   5.514   9.654   8.884 -0.1881 -0.0419  0.1318
  369loPI   C3A 5897   5.555   9.623   8.561  0.0964 -0.1476 -0.0077
  369loPI   C4A 5898   5.825   9.592   8.221  0.2737 -0.3031 -0.0445
  369loPI   C5A 5899   5.708   9.665   7.806 -0.1160 -0.0388  0.0344
  369loPI   C6A 5900   5.670  10.078   7.674 -0.0727  0.2806  0.2135
  369loPI   C1B 5901   5.893  10.105   9.158  0.1831  0.0518  0.0890
  369loPI   C2B 5902   5.705  10.089   8.723 -0.0186 -0.0750 -0.0630
  369loPI   C3B 5903   5.844  10.240   8.351  0.0146 -0.2687  0.1361
  369loPI   C4B 5904   6.041  10.098   8.027 -0.0830 -0.1418 -0.0680
  370loPI    C1 5905   1.071  16.833  10.586 -0.1899 -0.1486  0.0057
  370loPI    C2 5906   1.239  16.823  10.949 -0.0262  0.1641 -0.0579
  370loPI    C3 5907   0.841  16.840  10.913 -0.0569 -0.1441  0.1004
  370loPI   PO4 5908   1.239  16.637  10.471  0.1531  0.2175 -0.1326
  370loPI   GL1 5909   1.277  16.434  10.055  0.2072 -0.0871 -0.1281
  370loPI   GL2 5910   1.495  16.286  10.004  0.2734 -0.1755  0.0148
  370loPI   C1A 5911   1.053  16.585   9.783  0.1059  0.0610  0.1759
  370loPI   C2A 5912   0.755  16.485   9.625  0.0040  0.3233 -0.0505
  370loPI   C3A 5913   0.591  16.271   9.187 -0.0675  0.2034 -0.2807
  370loPI   C4A 5914   0.523  16.163   8.779  0.0595 -0.1241  0.0865
  370loPI   C5A 5915   0.615  16.130   8.262 -0.1228 -0.0618 -0.2384
  370loPI   C6A 5916   0.738  15.783   7.957 -0.1162 -0.2783 -0.0807
  370loPI   C1B 5917   1.529  16.484   9.595 -0.4858 -0.3381  0.0514
  370loPI   C2B 5918   1.494  16.484   9.120 -0.0159 -0.2219  0.0565
  370loPI   C3B 5919   1.563  16.480   8.669 -0.0405  0.0959 -0.2796
  370loPI   C4B 5920   1.667  16.748   8.424 -0.0825  0.2318  0.1098
  371loPI    C1 5921   7.267  11.454  10.116 -0.1610  0.1328 -0.0168
  371loPI    C2 5922   7.090  11.703  10.373  0.0568  0.0597  0.2085
  371loPI    C3 5923   7.461  11.573  10.445  0.1153  0.0265 -0.1379
  371loPI   PO4 5924   7.070  11.222  10.037  0.0045 -0.2206  0.1992
  371loPI   GL1 5925   6.768  11.226   9.816  0.0629 -0.1233  0.1947
  371loPI   GL2 5926   6.424  11.467   9.793  0.4528 -0.0548 -0.2141
  371loPI   C1A 5927   6.638  11.172   9.471  0.0138 -0.0683  0.0319
  371loPI   C2A 5928   6.738  11.150   9.027  0.2402 -0.2231 -0.1440
  371loPI   C3A 5929   6.815  11.248   8.619 -0.0605 -0.0965  0.0840
  371loPI   C4A 5930   6.698  11.417   8.215  0.0397  0.0183 -0.1234
  371loPI   C5A 5931   6.574  11.750   8.079 -0.0379 -0.0712 -0.0498
  371loPI   C6A 5932   6.150  11.937   8.030  0.2876  0.0555 -0.4364
  371loPI   C1B 5933   6.571  11.814   9.469 -0.0945  0.1545 -0.3850
  371loPI   C2B 5934   6.527  11.797   9.111 -0.2119 -0.1038 -0.0478
  371loPI   C3B 5935   6.668  11.902   8.726  0.0435  0.1515  0.0760
  371loPI   C4B 5936   6.655  12.119   8.366 -0.0346 -0.2111  0.1681
  372loPI    C1 5937  14.317   1.315  10.601  0.0725  0.0788  0.0720
  372loPI    C2 5938  14.044   1.399  10.881 -0.1603  0.0081 -0.1311
  372loPI    C3 5939  14.146   1.019  10.809 -0.1993  0.0162 -0.2321
  372loPI   PO4 5940  14.250   1.523  10.360  0.0426 -0.1739 -0.0314
  372loPI   GL1 5941  14.306   1.909  10.221  0.1301  0.0235  0.0525
  372loPI   GL2 5942  14.212   2.221  10.110  0.0230  0.0654  0.2354
  372loPI   C1A 5943  14.676   1.777   9.917  0.1712 -0.0415 -0.0544
  372loPI   C2A 5944  14.684   1.890   9.510  0.0069  0.0901 -0.0609
  372loPI   C3A 5945  14.616   1.980   9.130  0.1150  0.1882  0.1166
  372loPI   C4A 5946  14.823   1.835   8.785  0.1806  0.0032  0.0938
  372loPI   C5A 5947  14.783   1.890   8.285  0.3078  0.0370 -0.0291
  372loPI   C6A 5948  14.709   2.069   7.868 -0.0243  0.0328  0.0196
  372loPI   C1B 5949  14.157   2.070   9.713 -0.0115 -0.2086 -0.1188
  372loPI   C2B 5950  14.064   2.022   9.235 -0.3060  0.2550 -0.0285
  372loPI   C3B 5951  14.155   2.127   8.846 -0.1094  0.1464  0.0047
  372loPI   C4B 5952  14.344   1.987   8.512  0.0252 -0.0589  0.1765
  373loPI    C1 5953   6.375   2.248  10.327 -0.0976 -0.0619 -0.1160
  373loPI    C2 5954   6.440   2.262   9.933 -0.1106 -0.1087 -0.1199
  373loPI    C3 5955   6.708   2.419  10.185 -0.1528  0.0168 -0.1520
  373loPI   PO4 5956   6.077   2.042  10.279 -0.0010  0.1315  0.0903
  373loPI   GL1 5957   5.987   2.035   9.885  0.2277 -0.1099  0.0543
  373loPI   GL2 5958   5.880   1.896   9.812 -0.3329 -0.0190  0.0276
  373loPI   C1A 5959   6.093   2.273   9.542 -0.2733  0.1456 -0.2196
  373loPI   C2A 5960   5.772   2.427   9.293 -0.0578  0.0518 -0.0095
  373loPI   C3A 5961   5.561   2.501   8.927  0.0921  0.0601 -0.1260
  373loPI   C4A 5962   5.352   2.712   8.633 -0.3295  0.3870  0.3828
  373loPI   C5A 5963   5.153   2.720   8.236 -0.0129  0.0919  0.1438
  373loPI   C6A 5964   4.977   2.999   7.858  0.1709 -0.1506  0.2214
  373loPI   C1B 5965   5.863   1.886   9.367 -0.0079  0.0516 -0.0457
  373loPI   C2B 5966   5.696   2.033   8.924 -0.2119 -0.0038  0.1463
  373loPI   C3B 5967   5.670   1.891   8.535  0.2375  0.1825  0.2704
  373loPI   C4B 5968   5.836   1.995   8.091 -0.2730 -0.0977 -0.2581
  374loPI    C1 5969   6.330  10.608  10.227 -0.1324  0.2284 -0.0432
  374loPI    C2 5970   6.349  10.311  10.495 -0.0344  0.1856 -0.0968
  374loPI    C3 5971   6.673  10.533  10.418 -0.0023  0.0586 -0.3366
  374loPI   PO4 5972   6.289  10.579  10.039 -0.0325 -0.0794 -0.2563
  374loPI   GL1 5973   6.249  10.343   9.682  0.0911 -0.1332 -0.4158
  374loPI   GL2 5974   6.523  10.543   9.570 -0.1587 -0.1069  0.0712
  374loPI   C1A 5975   6.324  10.289   9.173 -0.0234 -0.0589 -0.1153
  374loPI   C2A 5976   6.294  10.262   8.721 -0.1758  0.1264  0.0950
  374loPI   C3A 5977   6.357  10.399   8.331  0.1059 -0.0560 -0.0890
  374loPI   C4A 5978   6.384  10.455   7.888  0.2688  0.1420  0.0740
  374loPI   C5A 5979   6.754  10.605   7.625  0.1441 -0.0303 -0.1197
  374loPI   C6A 5980   7.085  10.783   7.319  0.1356 -0.0713 -0.2098
  374loPI   C1B 5981   6.359  10.830   9.229 -0.0374  0.2752  0.1050
  374loPI   C2B 5982   6.254  11.148   8.883  0.0615 -0.0085 -0.1932
  374loPI   C3B 5983   6.341  11.137   8.495  0.1542  0.1509  0.0799
  374loPI   C4B 5984   6.310  10.883   8.120 -0.1839  0.1579  0.1374
  375loPI    C1 5985   3.180   1.705  10.604 -0.0395  0.1229 -0.1165
  375loPI    C2 5986   3.053   1.758  10.980 -0.0867 -0.1430 -0.0935
  375loPI    C3 5987   3.445   1.734  10.903 -0.0722  0.0335 -0.0787
  375loPI   PO4 5988   3.027   1.859  10.417 -0.0926 -0.1997  0.2855
  375loPI   GL1 5989   3.064   2.069  10.096  0.2533  0.2732  0.0702
  375loPI   GL2 5990   3.378   2.022   9.957  0.2298  0.0182 -0.1313
  375loPI   C1A 5991   3.075   1.690   9.738 -0.0750  0.1125 -0.2070
  375loPI   C2A 5992   3.140   1.553   9.385  0.0977 -0.1414  0.3568
  375loPI   C3A 5993   3.117   1.743   8.918  0.1650  0.0938  0.1704
  375loPI   C4A 5994   2.965   1.667   8.435  0.3203  0.0410  0.0447
  375loPI   C5A 5995   2.543   1.533   8.254  0.2263  0.1142  0.1383
  375loPI   C6A 5996   2.082   1.552   8.214 -0.2889  0.0249 -0.1915
  375loPI   C1B 5997   3.341   2.124   9.532  0.0631  0.1830 -0.0739
  375loPI   C2B 5998   3.486   2.078   9.010  0.3426 -0.0232 -0.0102
  375loPI   C3B 5999   3.316   2.039   8.572 -0.3446 -0.2850  0.0181
  375loPI   C4B 6000   3.187   2.037   8.081  0.0333  0.4711  0.1880
  376loPI    C1 6001  17.241  13.314  10.464  0.3448 -0.1381 -0.0754
  376loPI    C2 6002  17.293  13.706  10.529  0.3891 -0.1734  0.1087
  376loPI    C3 6003  17.291  13.451  10.837 -0.3504 -0.2393  0.0687
  376loPI   PO4 6004  17.405  13.251  10.343 -0.0766 -0.1917  0.0538
  376loPI   GL1 6005  17.432  13.128   9.945 -0.2493  0.0414  0.2820
  376loPI   GL2 6006  17.577  13.238   9.644  0.1039  0.0300 -0.0432
  376loPI   C1A 6007  17.105  13.134   9.643 -0.1554 -0.2109 -0.0883
  376loPI   C2A 6008  17.039  13.325   9.262  0.0248  0.0081  0.0020
  376loPI   C3A 6009  16.973  13.163   8.830  0.1087  0.1514  0.0556
  376loPI   C4A 6010  16.939  13.213   8.394  0.0517 -0.0264  0.1353
  376loPI   C5A 6011  16.604  13.299   8.089 -0.1083  0.0166 -0.0170
  376loPI   C6A 6012  16.443  13.616   7.926 -0.3949  0.2865 -0.0341
  376loPI   C1B 6013  17.567  13.341   9.297 -0.3303  0.0801 -0.1506
  376loPI   C2B 6014  17.421  13.466   8.906  0.0972  0.3337 -0.1681
  376loPI   C3B 6015  17.419  13.301   8.471  0.2787  0.1616  0.2265
  376loPI   C4B 6016  17.553  13.517   8.133 -0.0237 -0.2763  0.0649
  377loPI    C1 6017  17.825   6.085  10.525 -0.2619  0.0104  0.1185
  377loPI    C2 6018  17.820   6.459  10.666  0.1885  0.1299 -0.1603
  377loPI    C3 6019  17.981   6.165  10.885  0.0306  0.1369 -0.0326
  377loPI   PO4 6020  17.906   6.113  10.266  0.1684 -0.1123  0.0925
  377loPI   GL1 6021  17.747   6.172   9.847  0.0359  0.0417 -0.2344
  377loPI   GL2 6022  18.097   6.406   9.892  0.0927 -0.3755  0.2169
  377loPI   C1A 6023  17.588   6.394   9.474  0.4436 -0.2982 -0.2068
  377loPI   C2A 6024  17.647   6.643   9.034 -0.3875  0.1982 -0.1854
  377loPI   C3A 6025  17.794   6.751   8.628  0.1206 -0.0623 -0.0925
  377loPI   C4A 6026  18.017   6.693   8.210 -0.1288 -0.1804  0.0877
  377loPI   C5A 6027  18.304   6.624   7.904  0.3466  0.0505  0.0230
  377loPI   C6A 6028  18.629   6.401   7.776  0.1621  0.2796  0.1286
  377loPI   C1B 6029  18.091   6.254   9.436  0.1038  0.0315  0.0203
  377loPI   C2B 6030  18.039   6.300   9.015 -0.2342 -0.1849 -0.1295
  377loPI   C3B 6031  17.860   6.265   8.563  0.1624  0.3131 -0.2394
  377loPI   C4B 6032  17.722   6.303   8.229 -0.1096  0.1501  0.0841
  378loPI    C1 6033  16.103   8.090  10.877 -0.1555  0.4854  0.0522
  378loPI    C2 6034  16.161   8.292  11.217  0.0143  0.2917  0.1407
  378loPI    C3 6035  16.359   7.951  11.151 -0.1491  0.2366 -0.0768
  378loPI   PO4 6036  16.097   8.260  10.696 -0.0106 -0.0472 -0.0272
  378loPI   GL1 6037  16.217   8.342  10.320  0.4757 -0.0174  0.3968
  378loPI   GL2 6038  16.482   8.237  10.120  0.0032  0.2240  0.0109
  378loPI   C1A 6039  15.952   8.361   9.989 -0.1188 -0.2548  0.0294
  378loPI   C2A 6040  15.677   8.524   9.833  0.2514 -0.0345 -0.0225
  378loPI   C3A 6041  15.633   8.467   9.440  0.3193  0.0969 -0.3120
  378loPI   C4A 6042  15.732   8.441   9.021 -0.2058 -0.2275  0.1266
  378loPI   C5A 6043  15.802   8.613   8.552  0.2249  0.4242  0.1756
  378loPI   C6A 6044  16.004   8.935   8.385  0.1627  0.1754  0.0156
  378loPI   C1B 6045  16.082   7.926  10.052  0.1470 -0.0612 -0.1234
  378loPI   C2B 6046  15.786   7.879   9.673  0.0263  0.2252  0.1297
  378loPI   C3B 6047  15.617   7.570   9.332 -0.1410  0.2627  0.1336
  378loPI   C4B 6048  15.522   7.400   8.860  0.1157  0.0542 -0.2842
  379loPI    C1 6049   1.339   1.573  10.506 -0.2239  0.0550  0.0986
  379loPI    C2 6050   1.336   1.851  10.794  0.0481 -0.0266  0.1838
  379loPI    C3 6051   1.269   1.468  10.886 -0.0654 -0.0258  0.1064
  379loPI   PO4 6052   1.525   1.588  10.271  0.1665  0.0445  0.2652
  379loPI   GL1 6053   1.735   1.514   9.948  0.2150 -0.1886  0.2844
  379loPI   GL2 6054   1.936   1.353   9.939  0.1051 -0.1250 -0.2517
  379loPI   C1A 6055   1.638   1.640   9.626  0.0509  0.0318 -0.2602
  379loPI   C2A 6056   1.764   1.793   9.238 -0.1293  0.2394  0.0132
  379loPI   C3A 6057   1.620   1.615   8.940  0.2350 -0.1246  0.2056
  379loPI   C4A 6058   1.794   1.307   8.588  0.2442  0.1952 -0.7331
  379loPI   C5A 6059   1.662   1.064   8.270  0.4628 -0.3841  0.0633
  379loPI   C6A 6060   1.461   0.665   8.167  0.0774 -0.1111 -0.0114
  379loPI   C1B 6061   2.116   1.446   9.583 -0.2606  0.0527  0.4024
  379loPI   C2B 6062   2.093   1.350   9.096  0.0993  0.4370  0.0141
  379loPI   C3B 6063   2.269   1.252   8.744 -0.2333  0.1161  0.1127
  379loPI   C4B 6064   2.170   1.049   8.380  0.2186  0.1977  0.2145
  380loPI    C1 6065   1.854  14.365  10.450 -0.0472 -0.0876 -0.1849
  380loPI    C2 6066   1.895  13.967  10.457  0.0153 -0.0782  0.0528
  380loPI    C3 6067   1.645  14.147  10.712 -0.0375  0.0329 -0.0764
  380loPI   PO4 6068   1.941  14.387  10.186  0.0273 -0.5266  0.2489
  380loPI   GL1 6069   2.023  14.606   9.729  0.0042 -0.0245 -0.0903
  380loPI   GL2 6070   2.194  14.797   9.980 -0.0467 -0.1632  0.1269
  380loPI   C1A 6071   2.113  14.516   9.337  0.2056  0.0108  0.0068
  380loPI   C2A 6072   2.111  14.412   8.941 -0.0963  0.1085 -0.2376
  380loPI   C3A 6073   2.171  14.163   8.595  0.2306 -0.4767 -0.1874
  380loPI   C4A 6074   2.417  14.089   8.188 -0.3109  0.0831  0.1759
  380loPI   C5A 6075   2.809  13.831   8.066  0.1927  0.0517 -0.1122
  380loPI   C6A 6076   3.201  13.702   8.084  0.1131 -0.2859  0.1843
  380loPI   C1B 6077   2.433  14.928   9.611  0.1677  0.0456 -0.0339
  380loPI   C2B 6078   2.476  14.924   9.207 -0.1777  0.2053 -0.2495
  380loPI   C3B 6079   2.250  14.854   8.775  0.1136 -0.1942  0.2864
  380loPI   C4B 6080   2.033  15.002   8.447 -0.2843 -0.0924  0.1431
  381loPI    C1 6081   9.209   4.669  10.317 -0.2424  0.0740  0.0570
  381loPI    C2 6082   9.171   4.776  10.700 -0.2842  0.2153  0.0139
  381loPI    C3 6083   8.903   4.530  10.533 -0.1841  0.0355  0.1151
  381loPI   PO4 6084   9.431   4.796  10.186 -0.0966 -0.2813  0.2761
  381loPI   GL1 6085   9.694   4.732   9.811  0.2887 -0.1121  0.2434
  381loPI   GL2 6086   9.688   5.090   9.773 -0.1796  0.1721  0.0355
  381loPI   C1A 6087   9.567   4.573   9.548  0.0199  0.0367 -0.1870
  381loPI   C2A 6088   9.610   4.562   9.115 -0.0791  0.0358 -0.1128
  381loPI   C3A 6089   9.537   4.490   8.693 -0.0757 -0.2985  0.0858
  381loPI   C4A 6090   9.298   4.491   8.330  0.0255  0.1588  0.1236
  381loPI   C5A 6091   8.974   4.517   7.945 -0.0851 -0.0323  0.1310
  381loPI   C6A 6092   8.716   4.865   7.865 -0.1020 -0.1892 -0.2500
  381loPI   C1B 6093   9.731   5.143   9.409 -0.0709  0.0539 -0.1212
  381loPI   C2B 6094   9.758   5.053   9.001 -0.1942  0.0771 -0.2612
  381loPI   C3B 6095   9.905   5.208   8.731 -0.0064 -0.0334 -0.1086
  381loPI   C4B 6096  10.089   5.346   8.304  0.1691  0.0946  0.0046
  382loPI    C1 6097  15.510   3.051  10.460 -0.1466  0.0006 -0.0108
  382loPI    C2 6098  15.699   2.785  10.228  0.1364  0.1633  0.0286
  382loPI    C3 6099  15.866   3.141  10.301 -0.0862  0.2263  0.2453
  382loPI   PO4 6100  15.263   3.094  10.333  0.3288 -0.0123 -0.3788
  382loPI   GL1 6101  14.981   3.189   9.991 -0.0319 -0.0444  0.0878
  382loPI   GL2 6102  14.664   3.232  10.052  0.2342 -0.0100 -0.4427
  382loPI   C1A 6103  15.074   3.264   9.503  0.0181  0.1733  0.0415
  382loPI   C2A 6104  15.368   3.399   9.146 -0.1861  0.0334 -0.1742
  382loPI   C3A 6105  15.476   3.462   8.721  0.2255 -0.0694  0.1553
  382loPI   C4A 6106  15.466   3.451   8.271 -0.1009  0.1988  0.0417
  382loPI   C5A 6107  15.531   3.294   7.940 -0.0425  0.0878  0.1660
  382loPI   C6A 6108  15.634   3.156   7.606  0.1141  0.0153 -0.0694
  382loPI   C1B 6109  14.617   3.277   9.640 -0.0076  0.0467 -0.2668
  382loPI   C2B 6110  14.560   3.221   9.193 -0.1513  0.2916  0.6433
  382loPI   C3B 6111  14.452   3.038   8.804 -0.3658  0.1486  0.0491
  382loPI   C4B 6112  14.477   2.924   8.428 -0.1382  0.2339 -0.1282
  383loPI    C1 6113   5.704  15.396  10.513  0.2207 -0.1664 -0.0655
  383loPI    C2 6114   5.932  15.277  10.819  0.1646  0.5090  0.2582
  383loPI    C3 6115   5.534  15.283  10.857  0.1014 -0.1828 -0.1291
  383loPI   PO4 6116   5.752  15.300  10.344  0.2012  0.0636 -0.2128
  383loPI   GL1 6117   5.899  15.292   9.972  0.0183 -0.0628  0.1527
  383loPI   GL2 6118   5.869  15.540   9.793  0.0516  0.1094  0.2020
  383loPI   C1A 6119   6.066  15.119   9.576 -0.0275 -0.0611  0.2844
  383loPI   C2A 6120   6.119  15.086   9.195  0.0289  0.1318  0.0574
  383loPI   C3A 6121   6.098  14.800   8.917  0.1077  0.2730  0.1195
  383loPI   C4A 6122   6.133  14.631   8.583  0.1693 -0.0837 -0.0226
  383loPI   C5A 6123   6.322  14.252   8.451  0.1335  0.0933  0.3861
  383loPI   C6A 6124   6.568  13.850   8.328  0.1641  0.1005 -0.0628
  383loPI   C1B 6125   5.905  15.619   9.447 -0.2425  0.1689 -0.1258
  383loPI   C2B 6126   6.180  15.579   9.072  0.2056  0.0042  0.0039
  383loPI   C3B 6127   6.171  15.354   8.666  0.0320  0.1373  0.2088
  383loPI   C4B 6128   5.828  15.063   8.622  0.1167 -0.0019  0.1540
  384loPI    C1 6129   7.854   9.970   9.985  0.1958  0.1532  0.1479
  384loPI    C2 6130   7.632  10.279  10.109 -0.3084 -0.0912 -0.1152
  384loPI    C3 6131   7.505   9.904  10.169  0.1428 -0.2449 -0.0834
  384loPI   PO4 6132   7.916  10.018   9.730 -0.1794  0.1357  0.0150
  384loPI   GL1 6133   8.074  10.100   9.391 -0.2541 -0.1147  0.0281
  384loPI   GL2 6134   8.134  10.343   9.381 -0.1146  0.1425 -0.0443
  384loPI   C1A 6135   8.051  10.036   8.998 -0.2481  0.1318  0.3974
  384loPI   C2A 6136   8.086  10.205   8.582 -0.0700  0.3903  0.3573
  384loPI   C3A 6137   8.242  10.381   8.112 -0.1803 -0.1983 -0.2470
  384loPI   C4A 6138   8.373  10.070   7.745 -0.1632 -0.0305  0.0371
  384loPI   C5A 6139   8.082   9.944   7.419  0.1224 -0.1396 -0.2703
  384loPI   C6A 6140   8.197  10.035   6.933  0.2532  0.1876 -0.1412
  384loPI   C1B 6141   7.794  10.430   9.010  0.3163  0.0284 -0.2799
  384loPI   C2B 6142   7.686  10.503   8.632 -0.1473  0.2073  0.0166
  384loPI   C3B 6143   7.776  10.534   8.234 -0.3578  0.0114  0.1375
  384loPI   C4B 6144   7.733  10.587   7.739 -0.2385 -0.2376  0.1220
  385loPI    C1 6145  13.390  13.170  10.232  0.1643 -0.1177  0.0877
  385loPI    C2 6146  13.024  13.010  10.264 -0.0283  0.2767 -0.0732
  385loPI    C3 6147  13.217  13.136  10.591 -0.0170  0.0312  0.0165
  385loPI   PO4 6148  13.360  13.387  10.129  0.0404 -0.3406 -0.0872
  385loPI   GL1 6149  13.276  13.496   9.763  0.3216  0.0885  0.1153
  385loPI   GL2 6150  13.085  13.128   9.746  0.1498 -0.3098  0.2281
  385loPI   C1A 6151  13.193  13.411   9.288 -0.0017 -0.1214  0.1473
  385loPI   C2A 6152  13.197  13.429   8.795 -0.0076 -0.1065  0.1250
  385loPI   C3A 6153  13.157  13.478   8.441 -0.1761 -0.1038  0.2591
  385loPI   C4A 6154  13.408  13.692   8.247 -0.2939  0.1990  0.3235
  385loPI   C5A 6155  13.556  14.061   8.087  0.0020 -0.0407 -0.1121
  385loPI   C6A 6156  13.890  14.346   7.928  0.0571 -0.0453 -0.1948
  385loPI   C1B 6157  13.299  12.934   9.408  0.1543  0.1040  0.0536
  385loPI   C2B 6158  13.491  13.039   9.153 -0.0968  0.0496  0.2545
  385loPI   C3B 6159  13.579  13.050   8.818  0.2823 -0.1123 -0.2518
  385loPI   C4B 6160  13.565  13.205   8.369  0.2397  0.0949 -0.0783
  386loPI    C1 6161  16.682   1.222  10.413  0.1772 -0.0981  0.1413
  386loPI    C2 6162  16.772   0.868  10.577  0.0722 -0.1146  0.1639
  386loPI    C3 6163  16.755   0.905  10.179  0.1376 -0.1213  0.1603
  386loPI   PO4 6164  16.888   1.445  10.473  0.3483  0.1765  0.2053
  386loPI   GL1 6165  17.107   1.508  10.110  0.1857  0.1536  0.0443
  386loPI   GL2 6166  17.353   1.797  10.163  0.1689  0.2030  0.1086
  386loPI   C1A 6167  16.992   1.594   9.777 -0.1982  0.1884  0.0348
  386loPI   C2A 6168  16.995   1.695   9.388  0.1943 -0.0398 -0.1601
  386loPI   C3A 6169  17.146   1.553   9.025 -0.1940  0.1133  0.2247
  386loPI   C4A 6170  17.053   1.393   8.577  0.0788 -0.1722 -0.4123
  386loPI   C5A 6171  17.313   1.437   8.176  0.0133  0.4565  0.0946
  386loPI   C6A 6172  17.660   1.479   7.988  0.1348  0.1269  0.0956
  386loPI   C1B 6173  17.456   1.611   9.781 -0.1627 -0.0412 -0.0328
  386loPI   C2B 6174  17.511   1.492   9.386 -0.2841  0.0981  0.0518
  386loPI   C3B 6175  17.601   1.390   8.926 -0.0873  0.0297  0.2145
  386loPI   C4B 6176  17.662   1.251   8.459 -0.3293 -0.1537  0.2813
  387loPI    C1 6177  13.237  12.191  10.150 -0.0832 -0.3333  0.0027
  387loPI    C2 6178  13.636  12.210  10.167 -0.0916 -0.1437  0.0051
  387loPI    C3 6179  13.428  12.101  10.490 -0.0417 -0.2494  0.0019
  387loPI   PO4 6180  13.124  12.402  10.048 -0.0632  0.2130  0.0118
  387loPI   GL1 6181  12.934  12.336   9.747 -0.2383  0.1896  0.0345
  387loPI   GL2 6182  12.850  12.014   9.842  0.1368 -0.2168  0.0766
  387loPI   C1A 6183  13.172  12.443   9.397  0.1554  0.1325  0.1721
  387loPI   C2A 6184  13.296  12.399   8.958 -0.0147 -0.1396 -0.1309
  387loPI   C3A 6185  13.476  12.591   8.607  0.1847 -0.4331 -0.0715
  387loPI   C4A 6186  13.653  12.780   8.136 -0.2527  0.0329 -0.1710
  387loPI   C5A 6187  13.507  13.104   7.919  0.0870  0.1299 -0.2554
  387loPI   C6A 6188  13.163  13.304   7.939  0.2016  0.3596  0.0529
  387loPI   C1B 6189  12.924  12.014   9.383 -0.0179 -0.2474 -0.1786
  387loPI   C2B 6190  12.820  12.175   8.976  0.0593  0.0876  0.0307
  387loPI   C3B 6191  12.726  12.440   8.713 -0.0464 -0.1549  0.1454
  387loPI   C4B 6192  13.062  12.442   8.393  0.1580  0.1773 -0.1367
  388loPI    C1 6193  14.944  13.418  10.600 -0.0365 -0.0130  0.0834
  388loPI    C2 6194  14.963  13.617  10.946 -0.0094 -0.0630  0.1107
  388loPI    C3 6195  14.975  13.218  10.944  0.3548 -0.0549  0.0278
  388loPI   PO4 6196  14.661  13.448  10.403  0.4769  0.0460 -0.1102
  388loPI   GL1 6197  14.721  13.213  10.003  0.1183 -0.2570 -0.0002
  388loPI   GL2 6198  15.021  13.216   9.981 -0.0853  0.0706 -0.0750
  388loPI   C1A 6199  14.713  13.056   9.566  0.0910 -0.1991  0.1212
  388loPI   C2A 6200  14.771  13.114   9.019 -0.2307  0.0658  0.1412
  388loPI   C3A 6201  14.648  13.132   8.534 -0.1206 -0.0649 -0.0867
  388loPI   C4A 6202  14.616  13.233   8.037  0.1168  0.0465 -0.1394
  388loPI   C5A 6203  14.930  13.064   7.771  0.1269  0.1571 -0.0762
  388loPI   C6A 6204  14.941  12.880   7.394  0.2739 -0.2490 -0.1289
  388loPI   C1B 6205  15.167  13.278   9.558 -0.1019 -0.0441 -0.1173
  388loPI   C2B 6206  15.197  13.388   9.178 -0.0334  0.1360 -0.0053
  388loPI   C3B 6207  15.221  13.312   8.805 -0.0546 -0.0711 -0.1447
  388loPI   C4B 6208  15.109  13.200   8.353 -0.2348  0.0795  0.3679
  389loPI    C1 6209   1.764   0.256  10.552 -0.4897 -0.1301 -0.0354
  389loPI    C2 6210   1.869  -0.034  10.806  0.0180  0.0965  0.0250
  389loPI    C3 6211   1.958   0.347  10.890  0.0187  0.1945 -0.3995
  389loPI   PO4 6212   1.847   0.124  10.339  0.0348 -0.1554  0.0835
  389loPI   GL1 6213   1.768   0.295   9.879 -0.0321 -0.1963  0.0655
  389loPI   GL2 6214   1.955   0.538   9.731 -0.2470 -0.1539 -0.1307
  389loPI   C1A 6215   1.923   0.067   9.525  0.1339  0.2186  0.1386
  389loPI   C2A 6216   1.879  -0.147   9.161 -0.1436  0.1519 -0.0934
  389loPI   C3A 6217   1.529  -0.294   8.849 -0.0130 -0.2386  0.3290
  389loPI   C4A 6218   1.574  -0.532   8.483 -0.2194 -0.3295  0.1326
  389loPI   C5A 6219   1.947  -0.688   8.268 -0.1224 -0.0430 -0.0001
  389loPI   C6A 6220   2.355  -0.557   8.155  0.5546 -0.0987 -0.1296
  389loPI   C1B 6221   2.118   0.579   9.319  0.2230 -0.1161 -0.0707
  389loPI   C2B 6222   1.959   0.327   8.978  0.2115 -0.0340  0.4822
  389loPI   C3B 6223   1.930  -0.020   8.632 -0.3140  0.0545  0.0401
  389loPI   C4B 6224   1.928  -0.218   8.217  0.0614  0.3654  0.0783
  390loPI    C1 6225   2.379   0.104  10.663 -0.0791 -0.1710 -0.1551
  390loPI    C2 6226   2.711  -0.028  10.844 -0.0996  0.2301  0.1910
  390loPI    C3 6227   2.352  -0.147  10.973 -0.1004 -0.0209 -0.0341
  390loPI   PO4 6228   2.388   0.041  10.434  0.1147 -0.0127 -0.1846
  390loPI   GL1 6229   2.194  -0.097  10.052  0.0335  0.1102  0.2396
  390loPI   GL2 6230   2.505  -0.356  10.034 -0.0626  0.3061 -0.1627
  390loPI   C1A 6231   2.159  -0.342   9.668  0.1199  0.2018  0.2588
  390loPI   C2A 6232   2.164  -0.529   9.333  0.1415  0.3271 -0.2885
  390loPI   C3A 6233   2.112  -0.924   9.137  0.0762  0.3030  0.0861
  390loPI   C4A 6234   2.136  -1.083   8.703  0.0482 -0.1160  0.1852
  390loPI   C5A 6235   2.080  -1.246   8.318 -0.2244  0.0433  0.2036
  390loPI   C6A 6236   1.724  -1.124   7.979 -0.1808 -0.0413 -0.0173
  390loPI   C1B 6237   2.659  -0.695   9.753 -0.2115  0.1251  0.0923
  390loPI   C2B 6238   2.702  -0.676   9.353  0.1263 -0.1597  0.1160
  390loPI   C3B 6239   2.480  -0.733   8.979 -0.0951 -0.3315  0.1184
  390loPI   C4B 6240   2.117  -0.599   8.756 -0.1866 -0.1593 -0.1379
  391loPI    C1 6241  10.655   8.308  10.125  0.1518 -0.0662  0.1188
  391loPI    C2 6242  10.416   8.398  10.434  0.0614  0.0343  0.0201
  391loPI    C3 6243  10.258   8.280  10.086  0.1397  0.3856 -0.1390
  391loPI   PO4 6244  10.845   8.579  10.080  0.2725  0.0672  0.1219
  391loPI   GL1 6245  10.875   8.733   9.661  0.2200  0.1753  0.3099
  391loPI   GL2 6246  11.008   8.985   9.775  0.0336 -0.1050  0.1609
  391loPI   C1A 6247  10.665   8.727   9.316  0.0534  0.2948  0.0344
  391loPI   C2A 6248  10.620   8.735   8.946  0.0626  0.0954 -0.1251
  391loPI   C3A 6249  10.734   8.720   8.563  0.0093 -0.2309 -0.0317
  391loPI   C4A 6250  10.815   8.630   8.282  0.2163 -0.1684  0.0718
  391loPI   C5A 6251  10.928   8.318   8.113 -0.2499  0.0574  0.0355
  391loPI   C6A 6252  11.380   8.211   8.066  0.2754 -0.2115  0.1461
  391loPI   C1B 6253  11.062   9.017   9.311 -0.0433  0.2173  0.0383
  391loPI   C2B 6254  11.099   8.960   8.843  0.0570  0.3375 -0.1777
  391loPI   C3B 6255  11.214   8.859   8.504  0.2031  0.1365  0.2030
  391loPI   C4B 6256  11.268   8.841   8.131 -0.2108 -0.1873  0.0379
  392loPI    C1 6257   3.952   1.733  10.377  0.0478  0.0145 -0.0577
  392loPI    C2 6258   3.697   1.720  10.069 -0.0105  0.0326 -0.0103
  392loPI    C3 6259   3.588   1.895  10.412  0.0829  0.0824 -0.0057
  392loPI   PO4 6260   4.225   1.732  10.163  0.2584 -0.1865  0.0882
  392loPI   GL1 6261   4.208   2.067   9.813 -0.0845  0.2400  0.3907
  392loPI   GL2 6262   3.852   2.094   9.850 -0.2886 -0.1949  0.1036
  392loPI   C1A 6263   4.408   2.097   9.419 -0.1092  0.0802 -0.1187
  392loPI   C2A 6264   4.515   2.146   8.937 -0.1169  0.1868  0.0780
  392loPI   C3A 6265   4.341   2.150   8.521 -0.1461 -0.0189 -0.0813
  392loPI   C4A 6266   4.382   1.844   8.218  0.2467  0.1959 -0.2145
  392loPI   C5A 6267   4.280   1.708   7.877 -0.1100  0.0994  0.1002
  392loPI   C6A 6268   3.944   1.604   7.765  0.3454 -0.0023  0.3396
  392loPI   C1B 6269   3.868   2.141   9.445  0.1185 -0.0689 -0.0463
  392loPI   C2B 6270   3.968   2.194   9.031 -0.0403  0.0416 -0.0252
  392loPI   C3B 6271   3.853   2.036   8.651  0.0041 -0.2641 -0.0402
  392loPI   C4B 6272   3.894   1.876   8.248  0.0408  0.0964  0.2096
  393loPI    C1 6273   5.680   0.568  10.063  0.0653  0.0596 -0.0792
  393loPI    C2 6274   6.058   0.541  10.188 -0.0432 -0.1225  0.2182
  393loPI    C3 6275   5.778   0.691  10.430 -0.1880 -0.1248  0.0534
  393loPI   PO4 6276   5.740   0.629   9.740 -0.1587  0.1371 -0.0759
  393loPI   GL1 6277   5.895   0.464   9.393 -0.2939  0.3360  0.1585
  393loPI   GL2 6278   5.805   0.027   9.349 -0.2253  0.1438 -0.1495
  393loPI   C1A 6279   5.838   0.553   9.094  0.0184  0.4367  0.2587
  393loPI   C2A 6280   5.867   0.534   8.685  0.0136 -0.0729 -0.2558
  393loPI   C3A 6281   5.874   0.630   8.396  0.0215  0.3755 -0.0826
  393loPI   C4A 6282   5.900   0.797   8.028  0.0327  0.0359  0.0711
  393loPI   C5A 6283   5.636   0.578   7.684  0.0302 -0.0570 -0.3466
  393loPI   C6A 6284   5.355   0.589   7.477 -0.1370  0.1704 -0.0600
  393loPI   C1B 6285   5.656   0.119   8.855  0.0423  0.2415  0.0018
  393loPI   C2B 6286   5.401   0.156   8.471  0.0971  0.1806  0.0479
  393loPI   C3B 6287   5.017   0.078   8.399 -0.0107  0.1066 -0.1982
  393loPI   C4B 6288   4.578  -0.144   8.356 -0.2190  0.1061 -0.1777
  394loPI    C1 6289   4.599  12.838  10.591 -0.2640  0.0476 -0.0694
  394loPI    C2 6290   4.416  13.120  10.807  0.0259  0.0900  0.1261
  394loPI    C3 6291   4.466  12.754  10.958  0.0107  0.0492  0.0330
  394loPI   PO4 6292   4.761  13.018  10.390  0.0064 -0.3465 -0.2136
  394loPI   GL1 6293   4.780  13.215   9.963 -0.5254  0.2329  0.0567
  394loPI   GL2 6294   4.836  13.466   9.950  0.0364 -0.0834 -0.1444
  394loPI   C1A 6295   4.558  13.121   9.593  0.0278  0.2630 -0.0221
  394loPI   C2A 6296   4.438  13.140   9.197  0.0864  0.3125 -0.1411
  394loPI   C3A 6297   4.325  13.071   8.748 -0.2054 -0.0122 -0.0772
  394loPI   C4A 6298   4.139  12.977   8.374 -0.2767 -0.2406 -0.1150
  394loPI   C5A 6299   4.130  12.662   7.986  0.0684  0.0812 -0.0156
  394loPI   C6A 6300   4.207  12.246   7.865  0.0492  0.0166  0.2911
  394loPI   C1B 6301   4.735  13.596   9.571 -0.1673  0.0510  0.2343
  394loPI   C2B 6302   4.690  13.570   9.133 -0.1584  0.2646  0.0026
  394loPI   C3B 6303   4.712  13.456   8.721  0.0979 -0.0673 -0.2633
  394loPI   C4B 6304   4.628  13.357   8.344  0.0671 -0.1130  0.3815
  395loPI    C1 6305  10.228   3.295  10.513 -0.0840 -0.0723  0.0691
  395loPI    C2 6306  10.346   3.642  10.673 -0.0183 -0.0896  0.0583
  395loPI    C3 6307  10.223   3.344  10.910 -0.0667 -0.0620  0.0680
  395loPI   PO4 6308  10.358   3.206  10.376 -0.2660  0.0580 -0.2290
  395loPI   GL1 6309  10.343   3.236   9.902  0.0000  0.1706 -0.0788
  395loPI   GL2 6310  10.152   2.936   9.789 -0.0121  0.1506 -0.3376
  395loPI   C1A 6311  10.573   3.341   9.529  0.3939 -0.0470  0.1456
  395loPI   C2A 6312  10.718   3.254   9.106  0.4584  0.2882 -0.2213
  395loPI   C3A 6313  10.632   3.206   8.705 -0.0937 -0.1821 -0.0936
  395loPI   C4A 6314  10.320   3.232   8.373  0.0453 -0.2530  0.0679
  395loPI   C5A 6315  10.277   3.537   8.116 -0.0488 -0.0216 -0.0571
  395loPI   C6A 6316  10.534   3.876   7.886 -0.0469 -0.1851  0.1311
  395loPI   C1B 6317  10.231   2.923   9.326 -0.0873 -0.1987  0.2557
  395loPI   C2B 6318  10.273   2.892   8.884  0.0518 -0.2054 -0.3996
  395loPI   C3B 6319  10.469   2.731   8.506  0.0101  0.0580  0.2333
  395loPI   C4B 6320  10.755   3.076   8.141 -0.0529 -0.1380  0.1685
  396loPI    C1 6321  18.277   8.492  10.183  0.1310  0.3546  0.1595
  396loPI    C2 6322  18.232   8.775   9.904  0.2864  0.1206 -0.1091
  396loPI    C3 6323  18.594   8.700  10.057  0.2184  0.1776  0.0840
  396loPI   PO4 6324  18.148   8.280  10.082  0.3625  0.2923 -0.0728
  396loPI   GL1 6325  17.888   7.987   9.908 -0.1599  0.0975  0.2123
  396loPI   GL2 6326  17.662   7.810   9.761 -0.2232 -0.1535 -0.1727
  396loPI   C1A 6327  18.061   7.993   9.513 -0.2083  0.0525 -0.1185
  396loPI   C2A 6328  18.047   8.009   9.057  0.4718  0.0194 -0.0104
  396loPI   C3A 6329  17.979   8.025   8.694  0.0298 -0.0442 -0.1851
  396loPI   C4A 6330  17.914   8.147   8.290 -0.1592 -0.0022  0.1979
  396loPI   C5A 6331  17.855   8.474   8.004 -0.2876 -0.0553 -0.0607
  396loPI   C6A 6332  17.965   8.399   7.545 -0.0165  0.0211  0.0310
  396loPI   C1B 6333  17.659   7.744   9.378 -0.2755  0.1914 -0.1481
  396loPI   C2B 6334  17.586   7.651   9.011 -0.1675 -0.3180 -0.2298
  396loPI   C3B 6335  17.609   7.740   8.588  0.1874  0.2419  0.0931
  396loPI   C4B 6336  17.315   7.620   8.220 -0.1599 -0.3055  0.2779
  397loPI    C1 6337  15.402  12.012  10.507 -0.1208  0.2008 -0.1143
  397loPI    C2 6338  15.241  11.805  10.809 -0.2736  0.0725 -0.2816
  397loPI    C3 6339  15.314  12.196  10.851  0.2159 -0.0510  0.1122
  397loPI   PO4 6340  15.374  11.848  10.245 -0.0589 -0.1257  0.3578
  397loPI   GL1 6341  15.318  11.739   9.878 -0.0807 -0.0671 -0.1546
  397loPI   GL2 6342  15.407  11.474   9.798 -0.1850 -0.3014  0.4310
  397loPI   C1A 6343  15.431  11.949   9.516  0.0194  0.1427 -0.1420
  397loPI   C2A 6344  15.414  11.973   9.106 -0.1767  0.0588  0.0674
  397loPI   C3A 6345  15.558  11.988   8.670 -0.1535  0.1024  0.1581
  397loPI   C4A 6346  15.545  11.922   8.230  0.0291 -0.1186  0.0974
  397loPI   C5A 6347  15.657  11.953   7.903 -0.0150  0.0417 -0.3429
  397loPI   C6A 6348  15.902  12.098   7.666 -0.2489 -0.2662 -0.0888
  397loPI   C1B 6349  15.406  11.463   9.324  0.1206  0.1189  0.2041
  397loPI   C2B 6350  15.359  11.530   8.869 -0.0321 -0.0524 -0.0744
  397loPI   C3B 6351  15.113  11.623   8.471 -0.2820 -0.1620 -0.0893
  397loPI   C4B 6352  15.171  11.276   8.183  0.0502 -0.0465 -0.0086
  398loPI    C1 6353   1.112   8.150   9.982 -0.2001 -0.0806 -0.1227
  398loPI    C2 6354   1.262   7.980  10.311 -0.0681  0.2419 -0.0125
  398loPI    C3 6355   0.866   8.010  10.264 -0.0898  0.0510  0.0405
  398loPI   PO4 6356   1.191   8.082   9.805  0.1181 -0.1760  0.0569
  398loPI   GL1 6357   1.208   7.982   9.349  0.0894  0.1250 -0.0121
  398loPI   GL2 6358   0.932   7.808   9.496 -0.0331  0.0362  0.1597
  398loPI   C1A 6359   1.183   7.688   9.054  0.0714  0.0048 -0.4309
  398loPI   C2A 6360   1.344   7.485   8.619 -0.1812  0.0945  0.4380
  398loPI   C3A 6361   1.447   7.340   8.284  0.1313  0.0882 -0.3561
  398loPI   C4A 6362   1.549   7.504   7.950  0.3170  0.1940  0.1866
  398loPI   C5A 6363   1.426   7.857   7.712 -0.0402 -0.1874 -0.0169
  398loPI   C6A 6364   1.705   8.209   8.001 -0.0646  0.0583  0.2009
  398loPI   C1B 6365   0.758   7.957   9.148  0.1324 -0.2107 -0.0504
  398loPI   C2B 6366   0.620   8.216   8.736  0.3307 -0.2802 -0.2837
  398loPI   C3B 6367   0.492   8.306   8.387  0.0943 -0.1604  0.4003
  398loPI   C4B 6368   0.469   8.002   8.054  0.0416 -0.0648  0.4645
  399loPI    C1 6369   9.748   7.224  11.119 -0.0925 -0.1779  0.0284
  399loPI    C2 6370   9.824   6.833  11.082  0.2551 -0.1263  0.1609
  399loPI    C3 6371   9.653   6.973  11.416 -0.1633 -0.2025 -0.0149
  399loPI   PO4 6372   9.737   7.263  10.816  0.2505  0.1630  0.1813
  399loPI   GL1 6373   9.878   7.138  10.462 -0.0364  0.2953 -0.1620
  399loPI   GL2 6374   9.950   7.417  10.207 -0.3440 -0.1160  0.0623
  399loPI   C1A 6375   9.673   7.133  10.004 -0.1015 -0.0297  0.3109
  399loPI   C2A 6376   9.678   7.102   9.561  0.1039 -0.1802 -0.2986
  399loPI   C3A 6377   9.753   7.037   9.053  0.0715  0.1370 -0.0630
  399loPI   C4A 6378   9.838   7.123   8.651 -0.0871  0.2591 -0.3399
  399loPI   C5A 6379  10.015   7.210   8.227  0.1779 -0.0297 -0.2339
  399loPI   C6A 6380  10.016   7.101   7.816 -0.1497  0.1038 -0.1232
  399loPI   C1B 6381  10.115   7.360   9.785 -0.4898  0.1521  0.1470
  399loPI   C2B 6382  10.033   7.361   9.347  0.0361  0.1131  0.0114
  399loPI   C3B 6383  10.116   7.427   8.955 -0.2019  0.0361 -0.0592
  399loPI   C4B 6384  10.029   7.896   8.859  0.4000  0.1730 -0.0135
  400loPI    C1 6385  16.237   9.473  10.520 -0.0966  0.2425  0.3231
  400loPI    C2 6386  16.461   9.180  10.365 -0.3137  0.3289 -0.1729
  400loPI    C3 6387  16.619   9.431  10.633  0.0165  0.0582 -0.1057
  400loPI   PO4 6388  16.139   9.563  10.245 -0.0823  0.0460 -0.1754
  400loPI   GL1 6389  15.977   9.495   9.847 -0.1210 -0.1414 -0.0333
  400loPI   GL2 6390  16.245   9.289   9.800  0.1214  0.0373  0.1013
  400loPI   C1A 6391  16.094   9.509   9.369  0.0454 -0.2636  0.4557
  400loPI   C2A 6392  16.202   9.530   8.885  0.0031  0.1575  0.1929
  400loPI   C3A 6393  16.212   9.398   8.574  0.0141  0.1507  0.0998
  400loPI   C4A 6394  16.093   9.508   8.236 -0.0212  0.0006 -0.0934
  400loPI   C5A 6395  15.911   9.614   7.863 -0.0627 -0.0663 -0.2575
  400loPI   C6A 6396  15.533   9.763   7.665 -0.3393  0.2249 -0.2658
  400loPI   C1B 6397  16.389   9.058   9.402 -0.1328 -0.3791 -0.0889
  400loPI   C2B 6398  16.362   9.050   8.969  0.1053 -0.0070  0.0961
  400loPI   C3B 6399  16.518   9.015   8.555 -0.1444 -0.1147  0.0959
  400loPI   C4B 6400  16.600   8.740   8.129  0.2039  0.0233 -0.2812
  401loPI    C1 6401   7.595   9.181  10.094  0.0293 -0.1143  0.0108
  401loPI    C2 6402   7.833   9.262  10.405  0.0395 -0.1127  0.0026
  401loPI    C3 6403   7.475   9.093  10.465  0.0231 -0.0722  0.0189
  401loPI   PO4 6404   7.540   9.434  10.004 -0.3076 -0.2025 -0.2709
  401loPI   GL1 6405   7.562   9.641   9.607 -0.0871  0.2217  0.2477
  401loPI   GL2 6406   7.880   9.622   9.380  0.2146  0.4372 -0.0818
  401loPI   C1A 6407   7.358   9.504   9.263 -0.3029 -0.2043  0.4439
  401loPI   C2A 6408   7.464   9.357   8.814  0.3541  0.0356  0.2470
  401loPI   C3A 6409   7.329   9.330   8.366 -0.1133 -0.1159  0.1244
  401loPI   C4A 6410   7.488   9.602   7.986  0.1763  0.2670  0.5249
  401loPI   C5A 6411   7.608   9.801   7.665 -0.1252  0.0720  0.1780
  401loPI   C6A 6412   7.547   9.961   7.135  0.0536 -0.2024 -0.0880
  401loPI   C1B 6413   7.983   9.483   8.977 -0.0621  0.0220  0.3375
  401loPI   C2B 6414   8.245   9.599   8.554  0.3348 -0.0116  0.2095
  401loPI   C3B 6415   8.450   9.490   8.179  0.0901 -0.2485  0.2489
  401loPI   C4B 6416   8.712   9.681   7.865  0.0166  0.2347  0.2502
  402loPI    C1 6417   0.927  13.106  10.304  0.2046 -0.1531 -0.0828
  402loPI    C2 6418   0.907  13.035  10.697  0.1214 -0.0632 -0.0704
  402loPI    C3 6419   0.845  12.738  10.437 -0.0127 -0.0824 -0.0170
  402loPI   PO4 6420   0.773  13.228  10.231  0.1195  0.3144 -0.4500
  402loPI   GL1 6421   0.686  13.205   9.820 -0.0129  0.1642 -0.4230
  402loPI   GL2 6422   0.917  13.403   9.791  0.0521  0.1464  0.1721
  402loPI   C1A 6423   0.694  12.959   9.561 -0.1201  0.2394 -0.0101
  402loPI   C2A 6424   0.770  12.865   9.165  0.0132 -0.1250  0.0614
  402loPI   C3A 6425   0.809  12.682   8.765 -0.2215  0.2625 -0.0885
  402loPI   C4A 6426   1.089  12.907   8.516  0.2602 -0.0219  0.0424
  402loPI   C5A 6427   1.420  13.123   8.255  0.1810  0.0359 -0.1103
  402loPI   C6A 6428   1.787  13.355   8.521  0.1509  0.1094 -0.0791
  402loPI   C1B 6429   1.013  13.375   9.316 -0.2321 -0.2064 -0.2265
  402loPI   C2B 6430   1.058  13.623   8.943 -0.2174 -0.1109 -0.2033
  402loPI   C3B 6431   1.360  13.603   8.567  0.1632  0.1319  0.3600
  402loPI   C4B 6432   1.443  13.621   8.088  0.0202  0.2561 -0.3277
  403loPI    C1 6433   5.024   3.450  10.100  0.2253 -0.1463  0.1932
  403loPI    C2 6434   4.911   3.680  10.407  0.2359  0.0611  0.0437
  403loPI    C3 6435   4.845   3.286  10.418  0.1643  0.0781  0.2765
  403loPI   PO4 6436   4.933   3.591   9.879  0.1899  0.1793  0.3057
  403loPI   GL1 6437   4.613   3.553   9.556  0.0215  0.2269  0.0535
  403loPI   GL2 6438   4.882   3.343   9.411 -0.0121  0.1964  0.0034
  403loPI   C1A 6439   4.450   3.940   9.212  0.0323  0.5037  0.0110
  403loPI   C2A 6440   4.596   4.181   8.839  0.2779  0.1945  0.2127
  403loPI   C3A 6441   4.452   4.220   8.351 -0.1387 -0.2134 -0.0843
  403loPI   C4A 6442   4.370   4.643   8.011 -0.1022 -0.2439 -0.1580
  403loPI   C5A 6443   4.517   4.973   7.728 -0.4701 -0.1880  0.2262
  403loPI   C6A 6444   4.835   5.156   7.557  0.1872  0.0762 -0.0637
  403loPI   C1B 6445   4.824   3.577   9.110  0.0130 -0.1505 -0.2873
  403loPI   C2B 6446   4.835   3.683   8.682 -0.1934  0.1855  0.0930
  403loPI   C3B 6447   4.781   3.874   8.306  0.2477  0.0626 -0.0031
  403loPI   C4B 6448   5.025   4.030   7.892 -0.1003  0.1020 -0.0820
  404loPI    C1 6449   8.131   1.503  10.211 -0.1238 -0.0671  0.0835
  404loPI    C2 6450   8.123   1.161  10.418 -0.3713 -0.0261  0.1455
  404loPI    C3 6451   7.819   1.256  10.177 -0.1161 -0.0423 -0.1912
  404loPI   PO4 6452   8.362   1.524  10.008 -0.0932 -0.1410 -0.3324
  404loPI   GL1 6453   8.253   1.573   9.650 -0.0752  0.0457 -0.4801
  404loPI   GL2 6454   8.612   1.550   9.566 -0.0742 -0.1736 -0.2366
  404loPI   C1A 6455   8.028   1.770   9.376 -0.0483 -0.3994  0.1067
  404loPI   C2A 6456   7.904   1.802   9.069 -0.0762  0.1692 -0.0054
  404loPI   C3A 6457   7.583   1.761   8.732  0.0038 -0.1470  0.0454
  404loPI   C4A 6458   7.526   1.787   8.308 -0.0409  0.0207  0.0182
  404loPI   C5A 6459   7.313   2.138   8.092 -0.3409 -0.1171  0.0519
  404loPI   C6A 6460   7.018   2.497   7.945  0.0975  0.1059  0.2505
  404loPI   C1B 6461   8.480   1.635   9.204  0.2021  0.1123 -0.1777
  404loPI   C2B 6462   8.378   1.706   8.817  0.0241 -0.0860 -0.0334
  404loPI   C3B 6463   8.570   1.548   8.351 -0.0337  0.0190  0.0886
  404loPI   C4B 6464   8.491   1.591   7.908  0.2099 -0.1447 -0.1373
  405loPI    C1 6465  11.139   3.223  10.813 -0.0022  0.1552 -0.0539
  405loPI    C2 6466  11.435   3.094  11.048  0.0017  0.1421 -0.0660
  405loPI    C3 6467  11.144   2.843  10.937  0.0235  0.1366 -0.1114
  405loPI   PO4 6468  11.289   3.258  10.582  0.4947  0.2299  0.0758
  405loPI   GL1 6469  11.264   3.201  10.144 -0.1817  0.1789 -0.1437
  405loPI   GL2 6470  10.955   3.377   9.978  0.3037  0.3183 -0.3952
  405loPI   C1A 6471  11.527   3.399   9.850  0.0619 -0.1238  0.2391
  405loPI   C2A 6472  11.629   3.333   9.332 -0.0307  0.0223 -0.0689
  405loPI   C3A 6473  11.650   3.223   8.927 -0.1010  0.1471  0.1689
  405loPI   C4A 6474  11.721   3.215   8.518 -0.2469 -0.3260 -0.0855
  405loPI   C5A 6475  11.727   3.439   8.049  0.1143 -0.0404  0.1333
  405loPI   C6A 6476  12.102   3.729   7.859  0.0806  0.0563 -0.0289
  405loPI   C1B 6477  11.057   3.283   9.546 -0.2818 -0.0372  0.0511
  405loPI   C2B 6478  11.241   3.020   9.169  0.0124 -0.0774  0.1315
  405loPI   C3B 6479  11.425   2.797   8.775  0.1847  0.1529 -0.0104
  405loPI   C4B 6480  11.566   2.795   8.411  0.1962 -0.1145 -0.3235
  406POPI    C1 6481  12.676   2.180  10.396 -0.1755 -0.0342  0.1335
  406POPI    C2 6482  12.894   1.885  10.237 -0.2993 -0.1601  0.1959
  406POPI    C3 6483  12.879   1.931  10.634  0.1057  0.2273  0.1743
  406POPI   PO4 6484  12.428   2.123  10.209  0.1182  0.1805 -0.0788
  406POPI   GL1 6485  12.203   2.087   9.868  0.0507 -0.0013  0.0503
  406POPI   GL2 6486  12.560   1.917   9.770  0.1962 -0.2011 -0.1154
  406POPI   C1A 6487  12.359   2.323   9.558  0.1794 -0.1152 -0.0870
  406POPI   D2A 6488  12.190   2.490   9.181 -0.0659 -0.2923  0.4760
  406POPI   C3A 6489  12.470   2.609   8.787 -0.0597 -0.0616  0.2688
  406POPI   C4A 6490  12.513   2.411   8.426  0.0323  0.0175 -0.0078
  406POPI   C1B 6491  12.515   1.923   9.269 -0.1428 -0.0304 -0.1039
  406POPI   C2B 6492  12.613   1.951   8.872 -0.2227 -0.1975 -0.1443
  406POPI   C3B 6493  12.790   1.719   8.592  0.0992  0.3420  0.4066
  406POPI   C4B 6494  13.033   1.337   8.486  0.0259  0.0506 -0.0915
  407POPI    C1 6495   6.976   7.528  10.114 -0.1065 -0.0513  0.1635
  407POPI    C2 6496   6.811   7.829  10.318  0.0014  0.1736 -0.0749
  407POPI    C3 6497   7.194   7.851  10.205  0.0582 -0.1288  0.0491
  407POPI   PO4 6498   6.839   7.495   9.875 -0.0686  0.2074 -0.0049
  407POPI   GL1 6499   6.966   7.389   9.528  0.2524  0.1701 -0.2512
  407POPI   GL2 6500   7.102   7.157   9.386  0.2699  0.2256  0.0868
  407POPI   C1A 6501   6.776   7.461   9.138 -0.1349  0.0750  0.1554
  407POPI   D2A 6502   6.514   7.681   8.828  0.0186 -0.4654  0.3269
  407POPI   C3A 6503   6.628   7.571   8.373 -0.0816 -0.0645  0.2129
  407POPI   C4A 6504   6.671   7.436   8.029  0.0811  0.0978 -0.0798
  407POPI   C1B 6505   7.392   7.276   8.967 -0.2030  0.0692 -0.1532
  407POPI   C2B 6506   7.472   7.583   8.626 -0.1236  0.1884  0.1840
  407POPI   C3B 6507   7.523   7.704   8.213 -0.0465  0.3061 -0.2481
  407POPI   C4B 6508   7.599   7.806   7.826  0.0872  0.0770  0.0811
  408POPI    C1 6509  10.673  16.747  10.306  0.0176 -0.1090  0.2039
  408POPI    C2 6510  10.764  17.101  10.144 -0.1601 -0.1450  0.0224
  408POPI    C3 6511  10.720  17.069  10.540 -0.2286  0.0554  0.0324
  408POPI   PO4 6512  10.563  16.654  10.161 -0.1164  0.1606  0.1484
  408POPI   GL1 6513  10.790  16.573   9.803  0.3309 -0.0836 -0.0026
  408POPI   GL2 6514  11.002  16.706   9.910 -0.2259 -0.0330 -0.0506
  408POPI   C1A 6515  10.684  16.686   9.389 -0.1953  0.0056 -0.3022
  408POPI   D2A 6516  10.602  16.697   8.868 -0.0559 -0.0035  0.0271
  408POPI   C3A 6517  10.670  16.467   8.611 -0.1144 -0.2485 -0.0552
  408POPI   C4A 6518  10.882  16.013   8.657  0.2094  0.1954  0.0512
  408POPI   C1B 6519  11.033  16.999   9.597 -0.4418  0.1946  0.0456
  408POPI   C2B 6520  10.940  16.995   9.139 -0.0338  0.0715 -0.0767
  408POPI   C3B 6521  10.993  16.890   8.694 -0.0524 -0.0551  0.1722
  408POPI   C4B 6522  11.008  16.672   8.338  0.1191  0.1282 -0.4795
  409POPI    C1 6523   6.268  16.473  10.395  0.1169  0.2928 -0.1721
  409POPI    C2 6524   6.460  16.130  10.319 -0.0992  0.1008  0.1265
  409POPI    C3 6525   6.622  16.400  10.566 -0.0261  0.1204  0.0574
  409POPI   PO4 6526   6.123  16.641  10.091  0.0825  0.3239  0.0331
  409POPI   GL1 6527   6.081  16.804   9.632 -0.0080 -0.2724  0.0136
  409POPI   GL2 6528   6.228  16.530   9.573  0.0931  0.2636 -0.1725
  409POPI   C1A 6529   5.796  16.794   9.302 -0.2166  0.0183 -0.0065
  409POPI   D2A 6530   5.831  16.576   8.992  0.2390  0.0208 -0.0206
  409POPI   C3A 6531   5.866  16.783   8.618  0.0224  0.2769 -0.0561
  409POPI   C4A 6532   5.781  16.816   8.307  0.2719  0.2193 -0.4251
  409POPI   C1B 6533   6.287  16.486   9.147  0.0678 -0.1063  0.1471
  409POPI   C2B 6534   6.220  16.449   8.708 -0.0515  0.0090 -0.1067
  409POPI   C3B 6535   5.959  16.293   8.377  0.0851  0.0173  0.1938
  409POPI   C4B 6536   5.782  16.050   7.919 -0.1876  0.2065  0.0208
  410POPI    C1 6537   5.704  11.964  10.136  0.2500 -0.2103  0.2814
  410POPI    C2 6538   5.409  11.766   9.953  0.1710  0.0117  0.1640
  410POPI    C3 6539   5.385  11.845  10.345  0.0178  0.1336  0.1308
  410POPI   PO4 6540   5.873  12.006  10.028 -0.2551  0.2201  0.0211
  410POPI   GL1 6541   6.097  12.011   9.731 -0.6643 -0.1922 -0.2424
  410POPI   GL2 6542   5.865  11.724   9.653  0.0316 -0.1451  0.2234
  410POPI   C1A 6543   6.036  12.031   9.245 -0.0355 -0.0397 -0.4056
  410POPI   D2A 6544   5.739  11.860   8.858 -0.2377 -0.3283 -0.0635
  410POPI   C3A 6545   5.823  11.796   8.410  0.0451  0.0387 -0.0653
  410POPI   C4A 6546   5.665  11.810   8.049 -0.4166  0.2856 -0.1260
  410POPI   C1B 6547   5.526  11.872   9.364  0.1526 -0.1787  0.2050
  410POPI   C2B 6548   5.252  11.917   8.945  0.1642  0.0466 -0.0420
  410POPI   C3B 6549   4.981  11.794   8.742 -0.4649  0.3647  0.3871
  410POPI   C4B 6550   4.719  11.713   8.464  0.3168  0.3256  0.1112
  411POPI    C1 6551  17.866   8.805  10.465  0.1108 -0.1097 -0.1628
  411POPI    C2 6552  18.092   8.544  10.666 -0.0363 -0.0332  0.1062
  411POPI    C3 6553  17.770   8.706  10.840 -0.0723  0.1606 -0.1350
  411POPI   PO4 6554  17.749   8.665  10.253  0.2747  0.0745 -0.3454
  411POPI   GL1 6555  17.716   8.614   9.869 -0.0785 -0.2499  0.2489
  411POPI   GL2 6556  17.876   8.493   9.698 -0.1315  0.1170  0.1140
  411POPI   C1A 6557  17.874   8.963   9.583  0.0759  0.0423  0.1826
  411POPI   D2A 6558  18.019   9.145   9.185  0.1773  0.0521 -0.0244
  411POPI   C3A 6559  17.734   9.370   8.802 -0.0403 -0.2650  0.1678
  411POPI   C4A 6560  17.449   9.639   8.545  0.1428 -0.2597 -0.0340
  411POPI   C1B 6561  17.961   8.469   9.170 -0.3824 -0.0726 -0.1080
  411POPI   C2B 6562  17.923   8.658   8.853  0.0690 -0.2662  0.3566
  411POPI   C3B 6563  17.843   8.812   8.404 -0.4065 -0.1139 -0.1656
  411POPI   C4B 6564  18.112   8.906   8.139 -0.4728 -0.0032  0.0392
  412POPI    C1 6565   1.797   2.219  10.559  0.0941 -0.0058 -0.0888
  412POPI    C2 6566   1.671   2.246  10.937 -0.2121  0.0677 -0.1929
  412POPI    C3 6567   2.056   2.308  10.850 -0.1514  0.1148  0.0972
  412POPI   PO4 6568   1.712   1.996  10.466 -0.0576 -0.2399 -0.2631
  412POPI   GL1 6569   1.470   2.006  10.057  0.0267 -0.1472  0.2147
  412POPI   GL2 6570   1.588   2.345  10.060  0.2047  0.2124 -0.1264
  412POPI   C1A 6571   1.571   2.131   9.565 -0.2558 -0.4218  0.0840
  412POPI   D2A 6572   1.443   2.397   9.234 -0.0656  0.0071 -0.1154
  412POPI   C3A 6573   1.561   2.224   8.865  0.4654  0.1128  0.2649
  412POPI   C4A 6574   1.787   2.005   8.443 -0.0267 -0.3524  0.1431
  412POPI   C1B 6575   1.864   2.482   9.876  0.0285  0.1118 -0.2245
  412POPI   C2B 6576   1.974   2.402   9.386 -0.1664  0.1299 -0.2859
  412POPI   C3B 6577   2.086   2.123   8.997  0.3565  0.0444 -0.3084
  412POPI   C4B 6578   2.066   1.757   8.763 -0.4414  0.1310 -0.2437
  413POPI    C1 6579   1.700   6.954  10.354 -0.0325 -0.2032 -0.0338
  413POPI    C2 6580   2.094   6.970  10.418 -0.0534  0.1468  0.0243
  413POPI    C3 6581   1.862   6.746  10.655  0.0834  0.1073  0.1223
  413POPI   PO4 6582   1.678   6.865  10.141  0.2346  0.0330 -0.2780
  413POPI   GL1 6583   1.603   6.812   9.665 -0.2931 -0.0239  0.0457
  413POPI   GL2 6584   1.762   6.581   9.680 -0.1974  0.0433 -0.2344
  413POPI   C1A 6585   1.521   7.076   9.324 -0.0031 -0.0387  0.2046
  413POPI   D2A 6586   1.546   7.340   9.034 -0.1492  0.0294  0.0380
  413POPI   C3A 6587   1.818   7.594   8.770  0.2995 -0.1613 -0.2027
  413POPI   C4A 6588   1.757   7.774   8.379  0.1200  0.2130  0.0820
  413POPI   C1B 6589   1.838   6.607   9.264  0.1201 -0.0224  0.0959
  413POPI   C2B 6590   1.695   6.415   8.876  0.0857  0.1770 -0.0754
  413POPI   C3B 6591   1.704   6.540   8.441  0.3102  0.0470  0.2333
  413POPI   C4B 6592   1.438   6.819   8.118 -0.0225  0.0735 -0.4752
  414POPI    C1 6593   2.784  17.137  11.164  0.3158 -0.0856 -0.2254
  414POPI    C2 6594   2.999  16.952  11.446  0.0579  0.1183  0.1123
  414POPI    C3 6595   3.002  17.352  11.422  0.0907  0.1024 -0.1877
  414POPI   PO4 6596   2.839  16.941  10.906  0.4887  0.2207  0.0170
  414POPI   GL1 6597   2.611  16.844  10.550  0.1417 -0.1809 -0.2675
  414POPI   GL2 6598   2.745  16.878  10.268 -0.1370  0.0385  0.2022
  414POPI   C1A 6599   2.215  16.699  10.265  0.0075  0.0201  0.0707
  414POPI   D2A 6600   2.039  16.287   9.914 -0.0449 -0.5661  0.0174
  414POPI   C3A 6601   1.993  16.286   9.497 -0.1494 -0.5146  0.3167
  414POPI   C4A 6602   2.004  16.238   9.037 -0.1482 -0.1952 -0.0479
  414POPI   C1B 6603   2.602  16.598   9.993 -0.1864  0.0653  0.3642
  414POPI   C2B 6604   2.481  16.565   9.562 -0.2781  0.0771 -0.0193
  414POPI   C3B 6605   2.440  16.462   9.187  0.1417 -0.2969 -0.3375
  414POPI   C4B 6606   2.434  16.216   8.740  0.2939 -0.1177 -0.0974
  415POPI    C1 6607  10.666   1.801  10.649  0.0964  0.0352  0.0397
  415POPI    C2 6608  10.465   1.460  10.709  0.0272  0.0901  0.1206
  415POPI    C3 6609  10.616   1.661  11.020  0.0120  0.1670  0.0786
  415POPI   PO4 6610  10.714   1.733  10.329 -0.1759  0.0567  0.0666
  415POPI   GL1 6611  10.924   1.840   9.970  0.0501 -0.1284  0.1946
  415POPI   GL2 6612  10.764   1.528   9.877 -0.0194  0.1798  0.1085
  415POPI   C1A 6613  11.227   1.756   9.665 -0.3074  0.3846  0.3691
  415POPI   D2A 6614  11.358   1.615   9.306  0.1180 -0.1536  0.0212
  415POPI   C3A 6615  11.724   1.514   9.029 -0.2413 -0.1684  0.3434
  415POPI   C4A 6616  11.745   1.364   8.604 -0.1610 -0.0254  0.0392
  415POPI   C1B 6617  10.843   1.563   9.372 -0.3144  0.1216  0.1871
  415POPI   C2B 6618  10.836   1.555   8.908  0.0878 -0.0483  0.2807
  415POPI   C3B 6619  10.812   1.612   8.442 -0.1038 -0.1829  0.2069
  415POPI   C4B 6620  10.878   1.311   8.121 -0.1618 -0.0214 -0.1869
  416POPI    C1 6621  11.578   9.111  10.789  0.0629 -0.0526 -0.1802
  416POPI    C2 6622  11.899   9.338  10.863  0.0079  0.0258 -0.1811
  416POPI    C3 6623  11.541   9.443  11.008  0.0465 -0.2556  0.1313
  416POPI   PO4 6624  11.559   9.024  10.498  0.2701  0.3000  0.1409
  416POPI   GL1 6625  11.691   8.807  10.142 -0.2624 -0.0478  0.1345
  416POPI   GL2 6626  11.454   8.755  10.031 -0.0609 -0.2561 -0.1786
  416POPI   C1A 6627  11.897   8.904   9.737 -0.0212  0.0090 -0.0012
  416POPI   D2A 6628  12.180   8.902   9.372  0.2111  0.1007 -0.2450
  416POPI   C3A 6629  11.988   9.078   8.958 -0.0189 -0.2779 -0.0055
  416POPI   C4A 6630  12.261   9.098   8.477  0.2300 -0.1374  0.0465
  416POPI   C1B 6631  11.421   8.770   9.626  0.1577 -0.0921  0.2176
  416POPI   C2B 6632  11.623   8.744   9.314 -0.1095  0.1044  0.1421
  416POPI   C3B 6633  11.512   8.703   8.858 -0.3223  0.0446 -0.2183
  416POPI   C4B 6634  11.690   9.027   8.467  0.1065  0.2985  0.0127
  417POPI    C1 6635  11.072   0.533  10.602 -0.0014 -0.0404 -0.0949
  417POPI    C2 6636  11.037   0.644  10.985  0.1101 -0.0544 -0.0802
  417POPI    C3 6637  11.341   0.410  10.871  0.0349 -0.1121 -0.1637
  417POPI   PO4 6638  11.064   0.822  10.504  0.0382  0.1980  0.1504
  417POPI   GL1 6639  11.335   0.992  10.114  0.2747  0.1339  0.1751
  417POPI   GL2 6640  11.272   1.373   9.966  0.2478  0.0543  0.0570
  417POPI   C1A 6641  11.537   0.662   9.812  0.2152 -0.0872  0.2574
  417POPI   D2A 6642  11.673   0.641   9.354  0.1334 -0.1436 -0.1867
  417POPI   C3A 6643  12.039   0.641   9.230 -0.0442 -0.0675 -0.0626
  417POPI   C4A 6644  12.351   0.959   9.213  0.1214 -0.0110  0.3347
  417POPI   C1B 6645  11.603   1.369   9.690  0.3452 -0.3298  0.0057
  417POPI   C2B 6646  11.530   1.129   9.363 -0.2444 -0.1064  0.1003
  417POPI   C3B 6647  11.417   1.158   8.896 -0.2988 -0.1946  0.0501
  417POPI   C4B 6648  11.288   1.185   8.360 -0.0308  0.1772 -0.2034
  418POPI    C1 6649   0.953   9.903  10.343 -0.1039  0.1296 -0.2479
  418POPI    C2 6650   1.279   9.701  10.230 -0.0604  0.2223 -0.2895
  418POPI    C3 6651   1.056   9.567  10.534  0.1513  0.2868 -0.1033
  418POPI   PO4 6652   0.827   9.975  10.070 -0.0122 -0.0621 -0.1220
  418POPI   GL1 6653   0.978  10.045   9.788 -0.1408  0.0637  0.2420
  418POPI   GL2 6654   0.640  10.078   9.599 -0.3038  0.2311  0.0465
  418POPI   C1A 6655   1.110  10.063   9.392  0.1336 -0.0999 -0.0768
  418POPI   D2A 6656   1.456  10.074   9.144 -0.2385 -0.2793  0.3165
  418POPI   C3A 6657   1.845  10.176   9.322 -0.3188  0.0248 -0.3201
  418POPI   C4A 6658   2.318  10.464   9.344  0.0753 -0.2172 -0.0697
  418POPI   C1B 6659   0.624  10.061   9.143 -0.1593  0.3121  0.1209
  418POPI   C2B 6660   0.950  10.041   8.839 -0.2972 -0.1001  0.0579
  418POPI   C3B 6661   1.308   9.892   8.688  0.0891 -0.3275 -0.1017
  418POPI   C4B 6662   1.734  10.019   8.704  0.2736  0.0744  0.2839
  419POPI    C1 6663  13.120   1.285  10.828  0.0836  0.1466 -0.0388
  419POPI    C2 6664  13.380   1.339  11.127  0.2531 -0.1616 -0.1265
  419POPI    C3 6665  13.089   1.066  11.162  0.0415  0.0648 -0.0959
  419POPI   PO4 6666  13.228   1.353  10.533  0.3806 -0.3078  0.2540
  419POPI   GL1 6667  13.354   1.733  10.197 -0.0362  0.1414  0.2020
  419POPI   GL2 6668  13.475   1.359  10.059 -0.2458  0.3224 -0.1073
  419POPI   C1A 6669  13.407   1.732   9.711  0.0136 -0.2185  0.4188
  419POPI   D2A 6670  13.292   1.382   9.401 -0.0198  0.2322  0.1313
  419POPI   C3A 6671  13.328   1.062   9.077  0.0978 -0.2650 -0.0446
  419POPI   C4A 6672  13.175   0.923   8.666 -0.2078 -0.2070  0.0626
  419POPI   C1B 6673  13.671   1.321   9.703  0.1316  0.3123 -0.1640
  419POPI   C2B 6674  13.813   1.427   9.329 -0.0705  0.0810  0.4078
  419POPI   C3B 6675  13.698   1.359   8.975  0.0899 -0.1208 -0.1101
  419POPI   C4B 6676  13.445   1.515   8.645 -0.2271 -0.2072  0.1001
  420POPI    C1 6677   6.371  11.222  10.271  0.0545 -0.0640 -0.0431
  420POPI    C2 6678   6.711  11.017  10.318  0.1225  0.0458 -0.0520
  420POPI    C3 6679   6.719  11.417  10.306 -0.0271  0.0550  0.1199
  420POPI   PO4 6680   6.193  11.085  10.133 -0.2745 -0.0699  0.0929
  420POPI   GL1 6681   6.319  10.983   9.794 -0.0434  0.1844 -0.1825
  420POPI   GL2 6682   5.978  10.801   9.733 -0.0398  0.1448 -0.1242
  420POPI   C1A 6683   6.092  11.175   9.461 -0.1800 -0.0749  0.0830
  420POPI   D2A 6684   6.025  11.508   9.131 -0.2733  0.0644  0.2061
  420POPI   C3A 6685   6.252  11.612   8.717  0.1271  0.0604  0.0103
  420POPI   C4A 6686   6.202  12.028   8.567  0.2107  0.1118  0.2647
  420POPI   C1B 6687   5.819  10.567   9.372  0.0329 -0.1277 -0.1989
  420POPI   C2B 6688   5.989  10.547   8.940 -0.0571 -0.2738 -0.1182
  420POPI   C3B 6689   6.018  10.681   8.661  0.0518  0.0214 -0.1794
  420POPI   C4B 6690   5.878  10.846   8.318 -0.3374  0.2630 -0.3853
  421POPI    C1 6691   8.938   3.433  10.565  0.1195 -0.0387 -0.0778
  421POPI    C2 6692   9.186   3.247  10.818  0.0750  0.1862  0.1354
  421POPI    C3 6693   9.261   3.623  10.705 -0.0825  0.2000  0.0738
  421POPI   PO4 6694   8.891   3.264  10.262  0.3011  0.1832 -0.0068
  421POPI   GL1 6695   8.997   3.205   9.839  0.2141 -0.5320  0.0191
  421POPI   GL2 6696   8.911   2.876   9.787 -0.3338  0.0410 -0.0171
  421POPI   C1A 6697   9.255   3.148   9.446 -0.1079 -0.1064 -0.1933
  421POPI   D2A 6698   9.361   3.233   9.013 -0.3753 -0.0649 -0.1749
  421POPI   C3A 6699   9.356   3.482   8.673  0.0194  0.1617  0.1713
  421POPI   C4A 6700   9.418   3.380   8.256  0.1299  0.0725  0.2391
  421POPI   C1B 6701   8.757   3.118   9.435  0.0362  0.0310 -0.1617
  421POPI   C2B 6702   8.890   3.248   9.153 -0.0172 -0.0585  0.0269
  421POPI   C3B 6703   8.892   3.606   8.873 -0.2743  0.2871 -0.2866
  421POPI   C4B 6704   8.954   3.664   8.464  0.0641 -0.0635 -0.0654
  422POPI    C1 6705   7.946   5.665  10.615 -0.1349  0.1552 -0.0768
  422POPI    C2 6706   7.613   5.885  10.644 -0.1078  0.1684  0.1552
  422POPI    C3 6707   7.803   5.766  10.975  0.0635  0.0766  0.0254
  422POPI   PO4 6708   8.093   5.671  10.370  0.1495  0.1212 -0.0070
  422POPI   GL1 6709   8.122   5.623   9.951 -0.2201  0.2092  0.0416
  422POPI   GL2 6710   8.452   5.803   9.927  0.1409 -0.2085 -0.1197
  422POPI   C1A 6711   8.073   5.673   9.485 -0.0161  0.4116  0.0150
  422POPI   D2A 6712   8.059   5.763   9.065  0.2129  0.2063  0.0954
  422POPI   C3A 6713   8.034   5.665   8.542  0.2840 -0.1076 -0.1044
  422POPI   C4A 6714   8.021   5.715   8.181  0.4016  0.2176 -0.0477
  422POPI   C1B 6715   8.532   5.489   9.631  0.3552 -0.0881  0.0171
  422POPI   C2B 6716   8.517   5.592   9.179  0.0116 -0.0474 -0.0163
  422POPI   C3B 6717   8.469   5.681   8.778 -0.2911 -0.1671  0.1500
  422POPI   C4B 6718   8.517   5.686   8.275  0.2261 -0.3712  0.0309
  423POPI    C1 6719   6.364  13.725  10.801 -0.4147  0.1087  0.0127
  423POPI    C2 6720   6.537  14.086  10.820 -0.1883  0.0155 -0.2111
  423POPI    C3 6721   6.711  13.771  10.996 -0.1639 -0.0659 -0.3789
  423POPI   PO4 6722   6.227  13.741  10.518  0.0419  0.3316 -0.1213
  423POPI   GL1 6723   6.231  13.688  10.150  0.1680 -0.2360  0.1632
  423POPI   GL2 6724   5.876  13.597  10.049 -0.3052 -0.1879 -0.1330
  423POPI   C1A 6725   6.431  13.733   9.744  0.0408  0.2316  0.0862
  423POPI   D2A 6726   6.505  13.414   9.483  0.3024 -0.3068 -0.0464
  423POPI   C3A 6727   6.836  13.141   9.211 -0.0793  0.0341 -0.2338
  423POPI   C4A 6728   7.236  12.939   9.369 -0.1514  0.1116  0.1473
  423POPI   C1B 6729   5.414  13.532   9.860  0.0789 -0.1304  0.1091
  423POPI   C2B 6730   5.130  13.899   9.606 -0.0997 -0.0032  0.0502
  423POPI   C3B 6731   5.112  13.844   9.177 -0.1785  0.1412 -0.0964
  423POPI   C4B 6732   5.049  13.786   8.808  0.1582 -0.0362 -0.1226
  424POPI    C1 6733   2.295   3.603  10.465  0.1649 -0.0664  0.0016
  424POPI    C2 6734   2.143   3.382  10.761 -0.0409 -0.0567 -0.0947
  424POPI    C3 6735   2.041   3.306  10.382 -0.0857  0.1801 -0.1315
  424POPI   PO4 6736   2.549   3.646  10.442 -0.1276 -0.0140 -0.3894
  424POPI   GL1 6737   2.716   3.422  10.135 -0.0432  0.1390  0.2645
  424POPI   GL2 6738   2.385   3.378   9.977  0.4726 -0.2150 -0.4249
  424POPI   C1A 6739   2.896   3.256   9.726  0.0037  0.0099 -0.0682
  424POPI   D2A 6740   2.822   3.261   9.303  0.0038  0.2542 -0.0121
  424POPI   C3A 6741   3.170   3.451   9.113 -0.2092  0.1650  0.1671
  424POPI   C4A 6742   3.349   3.554   8.778  0.0167  0.0467 -0.2268
  424POPI   C1B 6743   2.426   3.392   9.569  0.0642 -0.2807  0.2698
  424POPI   C2B 6744   2.321   3.535   9.210  0.0185 -0.1703 -0.0399
  424POPI   C3B 6745   2.429   3.474   8.871 -0.5179 -0.0267  0.0892
  424POPI   C4B 6746   2.610   3.646   8.511 -0.0250 -0.0524 -0.0510
  425POPI    C1 6747   0.149   4.462  10.303 -0.0876  0.1424 -0.3616
  425POPI    C2 6748   0.320   4.108  10.232 -0.1188  0.0321  0.0830
  425POPI    C3 6749   0.544   4.417  10.352 -0.1611  0.0238  0.1841
  425POPI   PO4 6750   0.092   4.592  10.126 -0.0252  0.1343  0.1529
  425POPI   GL1 6751  -0.055   4.503   9.654 -0.0491  0.0279  0.0427
  425POPI   GL2 6752  -0.055   4.188   9.849 -0.0056 -0.1182  0.2895
  425POPI   C1A 6753  -0.200   4.316   9.267  0.0454 -0.1178 -0.2603
  425POPI   D2A 6754  -0.162   4.289   8.827 -0.0183  0.1157 -0.0392
  425POPI   C3A 6755  -0.217   4.428   8.457 -0.0039 -0.2036  0.1272
  425POPI   C4A 6756  -0.461   4.526   8.125 -0.0629 -0.0455 -0.1784
  425POPI   C1B 6757   0.058   3.956   9.477 -0.2164  0.3850 -0.1532
  425POPI   C2B 6758  -0.063   3.840   9.061  0.4645 -0.0332  0.2949
  425POPI   C3B 6759  -0.013   3.757   8.650 -0.1800  0.0184 -0.0571
  425POPI   C4B 6760  -0.068   3.980   8.277  0.0338  0.1793 -0.0841
  426POPI    C1 6761  16.704   4.557  10.147  0.1600 -0.0484 -0.1564
  426POPI    C2 6762  16.620   4.412  10.510  0.1344  0.2361 -0.0462
  426POPI    C3 6763  16.334   4.431  10.231  0.1463  0.0457 -0.0725
  426POPI   PO4 6764  16.885   4.345  10.075  0.0604 -0.0858  0.1762
  426POPI   GL1 6765  17.071   4.395   9.629 -0.1812  0.4330  0.0818
  426POPI   GL2 6766  17.272   4.598   9.560 -0.1188  0.0954  0.0797
  426POPI   C1A 6767  17.011   4.073   9.374 -0.0556 -0.0025 -0.2751
  426POPI   D2A 6768  17.040   3.975   8.922 -0.2051 -0.1724 -0.1622
  426POPI   C3A 6769  17.265   3.994   8.477  0.2381 -0.2993  0.0934
  426POPI   C4A 6770  16.965   4.107   8.189  0.2947 -0.2044  0.3390
  426POPI   C1B 6771  17.181   4.518   9.125  0.0820  0.1615 -0.1944
  426POPI   C2B 6772  17.085   4.462   8.787  0.3097 -0.1494 -0.2642
  426POPI   C3B 6773  16.814   4.514   8.452  0.1153 -0.1865 -0.1226
  426POPI   C4B 6774  16.468   4.284   8.159 -0.2797 -0.4530  0.0181
  427POPI    C1 6775  13.616   7.108  10.747  0.1574  0.1364 -0.0142
  427POPI    C2 6776  13.641   7.315  11.088  0.5392  0.0984 -0.0146
  427POPI    C3 6777  13.628   6.915  11.097  0.1161  0.1071 -0.0289
  427POPI   PO4 6778  13.427   7.159  10.607  0.1346  0.0467  0.2070
  427POPI   GL1 6779  13.362   7.132  10.237  0.0252  0.1261 -0.4923
  427POPI   GL2 6780  13.539   7.485  10.181  0.2006  0.2329 -0.3086
  427POPI   C1A 6781  13.129   6.989   9.922 -0.0120  0.1726 -0.5512
  427POPI   D2A 6782  12.915   6.746   9.727 -0.3516 -0.1485 -0.0585
  427POPI   C3A 6783  12.867   6.819   9.311  0.1755 -0.0659  0.0693
  427POPI   C4A 6784  13.032   6.677   8.943  0.0346 -0.1746  0.4237
  427POPI   C1B 6785  13.652   7.498   9.776 -0.1284  0.1605  0.0098
  427POPI   C2B 6786  13.593   7.173   9.464 -0.0914 -0.0803  0.1043
  427POPI   C3B 6787  13.277   7.115   9.145  0.1058  0.2228  0.0394
  427POPI   C4B 6788  12.916   7.295   9.144 -0.0231 -0.0545  0.0233
  428POPI    C1 6789  11.671   8.386  10.554  0.0978  0.1810  0.1311
  428POPI    C2 6790  11.390   8.239  10.798  0.1721 -0.0330  0.0899
  428POPI    C3 6791  11.538   8.606  10.861  0.0354 -0.0018  0.2367
  428POPI   PO4 6792  11.582   8.289  10.347 -0.0133 -0.1687 -0.2443
  428POPI   GL1 6793  11.461   8.217   9.909  0.0663 -0.0793  0.3494
  428POPI   GL2 6794  11.114   8.319   9.738  0.1455  0.2459 -0.1892
  428POPI   C1A 6795  11.772   8.404   9.700 -0.0551 -0.0338  0.1605
  428POPI   D2A 6796  12.224   8.468   9.815  0.0313  0.0521  0.2064
  428POPI   C3A 6797  12.479   8.472   9.436  0.1017 -0.2666  0.0864
  428POPI   C4A 6798  12.616   8.781   9.233 -0.3456 -0.0849 -0.1730
  428POPI   C1B 6799  11.104   8.479   9.284  0.2295 -0.0781  0.0848
  428POPI   C2B 6800  11.009   8.436   8.790 -0.2341 -0.0134 -0.0575
  428POPI   C3B 6801  11.218   8.350   8.511 -0.0027 -0.3632 -0.1045
  428POPI   C4B 6802  11.585   8.542   8.386  0.0770  0.0187 -0.0205
  429POPI    C1 6803   2.068   4.823  10.407 -0.1045  0.0578  0.2445
  429POPI    C2 6804   2.418   4.642  10.476 -0.0409  0.0788 -0.0123
  429POPI    C3 6805   2.318   4.969  10.683 -0.0234 -0.0742  0.2417
  429POPI   PO4 6806   2.034   4.857  10.185 -0.2633  0.1724  0.1585
  429POPI   GL1 6807   1.884   4.583   9.837  0.0816 -0.1129 -0.2069
  429POPI   GL2 6808   1.842   4.831   9.707 -0.0019 -0.0945  0.2372
  429POPI   C1A 6809   1.816   4.335   9.514 -0.0152 -0.0519 -0.2055
  429POPI   D2A 6810   1.748   4.296   9.091 -0.0984  0.1581  0.4614
  429POPI   C3A 6811   1.789   4.220   8.643  0.0076 -0.2806  0.0309
  429POPI   C4A 6812   1.950   4.261   8.318 -0.1870 -0.0102  0.0471
  429POPI   C1B 6813   1.842   4.747   9.256 -0.1203  0.0056  0.0474
  429POPI   C2B 6814   1.748   4.715   8.801  0.1263 -0.1070 -0.0257
  429POPI   C3B 6815   1.636   4.652   8.404 -0.0356 -0.0621 -0.2482
  429POPI   C4B 6816   1.460   4.732   8.040 -0.2713 -0.0437 -0.1836
  430POPI    C1 6817  11.607  16.035  10.801  0.0277 -0.0250  0.1442
  430POPI    C2 6818  11.474  16.103  11.172  0.0340  0.1409  0.1167
  430POPI    C3 6819  11.359  16.340  10.871  0.1556  0.1043  0.0405
  430POPI   PO4 6820  11.747  15.854  10.792 -0.4288  0.3269  0.2540
  430POPI   GL1 6821  11.987  15.738  10.337  0.3769 -0.0219  0.1268
  430POPI   GL2 6822  11.664  15.612  10.169  0.0145 -0.2528  0.1568
  430POPI   C1A 6823  12.069  16.107  10.099  0.2784 -0.0798 -0.1716
  430POPI   D2A 6824  12.329  16.354   9.811 -0.1475  0.0166  0.1243
  430POPI   C3A 6825  12.412  16.139   9.404 -0.2713 -0.1620  0.3094
  430POPI   C4A 6826  12.518  16.338   9.040 -0.2222 -0.1025  0.0012
  430POPI   C1B 6827  12.077  15.633   9.818  0.0513  0.0144  0.1630
  430POPI   C2B 6828  11.998  15.840   9.448 -0.1986 -0.2098 -0.1737
  430POPI   C3B 6829  12.020  16.145   9.107  0.0061 -0.3128  0.0933
  430POPI   C4B 6830  11.934  16.544   8.840 -0.1090  0.0240 -0.0061
  431POPI    C1 6831   3.009  14.541  10.395 -0.2216 -0.0958  0.0732
  431POPI    C2 6832   3.321  14.404  10.605  0.0976  0.0795 -0.2736
  431POPI    C3 6833   3.118  14.724  10.733  0.0785 -0.0149 -0.0640
  431POPI   PO4 6834   2.691  14.377  10.275 -0.0768 -0.0329  0.0746
  431POPI   GL1 6835   2.635  14.104   9.875  0.2823  0.0029 -0.1426
  431POPI   GL2 6836   2.376  14.246   9.871 -0.1743 -0.0725  0.2326
  431POPI   C1A 6837   2.693  13.828   9.494  0.0484 -0.0075 -0.1014
  431POPI   D2A 6838   2.857  13.808   9.061  0.0774  0.0421  0.2029
  431POPI   C3A 6839   2.718  13.941   8.673  0.1604 -0.0753  0.3015
  431POPI   C4A 6840   3.012  14.025   8.473 -0.2583  0.1459  0.0840
  431POPI   C1B 6841   2.561  14.355   9.417  0.0947  0.1345 -0.1904
  431POPI   C2B 6842   2.619  14.345   9.007 -0.0937 -0.1340  0.0409
  431POPI   C3B 6843   2.523  14.461   8.639  0.0006  0.5815  0.3671
  431POPI   C4B 6844   2.328  14.643   8.265 -0.1027  0.1834  0.1080
  432POPI    C1 6845   5.181   1.303  10.248 -0.1250  0.0746  0.2023
  432POPI    C2 6846   5.445   1.043  10.400 -0.0887 -0.0712 -0.1021
  432POPI    C3 6847   5.104   1.119  10.595  0.0237 -0.1386  0.1246
  432POPI   PO4 6848   5.230   1.293   9.956  0.0039 -0.0376  0.0110
  432POPI   GL1 6849   5.298   1.174   9.586  0.0658 -0.1223 -0.0366
  432POPI   GL2 6850   5.451   0.990   9.443 -0.0217  0.1588  0.1785
  432POPI   C1A 6851   5.161   1.298   9.089 -0.1525  0.0537 -0.0632
  432POPI   D2A 6852   5.142   1.046   8.642 -0.0380 -0.3683 -0.3108
  432POPI   C3A 6853   4.987   1.024   8.259 -0.1570  0.1795 -0.2006
  432POPI   C4A 6854   4.906   0.774   7.931 -0.0540  0.4214  0.0284
  432POPI   C1B 6855   5.546   0.942   9.041  0.0210 -0.0752  0.1189
  432POPI   C2B 6856   5.607   0.996   8.569  0.0541 -0.0122 -0.0475
  432POPI   C3B 6857   5.652   1.153   8.202 -0.1810 -0.0367  0.0698
  432POPI   C4B 6858   5.410   1.059   7.886  0.1142  0.0942 -0.2921
  433POPI    C1 6859  15.710  16.979  10.852  0.1120 -0.0966  0.3001
  433POPI    C2 6860  15.453  16.816  11.110 -0.0892 -0.0415  0.1375
  433POPI    C3 6861  15.818  16.924  11.233 -0.1652 -0.0596  0.3862
  433POPI   PO4 6862  15.738  16.773  10.623  0.1347 -0.3750  0.0115
  433POPI   GL1 6863  15.611  16.863  10.216  0.3817  0.2411 -0.0533
  433POPI   GL2 6864  15.449  16.775   9.913  0.1852  0.3624  0.0324
  433POPI   C1A 6865  15.935  17.198  10.082 -0.0029 -0.0262 -0.0000
  433POPI   D2A 6866  16.261  17.289   9.760  0.3314  0.2966  0.1658
  433POPI   C3A 6867  16.252  17.556   9.437  0.1303 -0.2180  0.0853
  433POPI   C4A 6868  16.234  17.496   8.971 -0.2886 -0.1807  0.1206
  433POPI   C1B 6869  15.368  16.711   9.486 -0.2217  0.0810 -0.3154
  433POPI   C2B 6870  15.357  16.783   9.108 -0.0875  0.0576  0.1430
  433POPI   C3B 6871  15.603  16.751   8.778  0.0964  0.0499 -0.4233
  433POPI   C4B 6872  15.611  16.505   8.330  0.1699  0.3514 -0.0895
  434POPI    C1 6873  14.209  16.656  10.856 -0.0165  0.1534  0.0472
  434POPI    C2 6874  14.587  16.614  10.982  0.0146 -0.1162 -0.1295
  434POPI    C3 6875  14.292  16.658  11.248  0.1770  0.1734  0.0075
  434POPI   PO4 6876  14.290  16.767  10.642 -0.0487 -0.0944  0.2078
  434POPI   GL1 6877  14.296  16.828  10.221  0.3756  0.4131  0.1749
  434POPI   GL2 6878  14.240  17.204  10.231 -0.2528  0.1045  0.0637
  434POPI   C1A 6879  14.186  16.705   9.796  0.1029  0.0968 -0.0046
  434POPI   D2A 6880  14.411  16.570   9.477 -0.1703  0.2830  0.2704
  434POPI   C3A 6881  14.479  16.746   9.123 -0.1214 -0.0954 -0.2643
  434POPI   C4A 6882  14.485  16.653   8.667  0.1614 -0.0849 -0.0021
  434POPI   C1B 6883  14.338  17.212   9.836 -0.0323  0.2334 -0.0269
  434POPI   C2B 6884  14.380  17.279   9.439 -0.0014 -0.1004 -0.1423
  434POPI   C3B 6885  14.449  17.283   8.991 -0.0223  0.1246 -0.0138
  434POPI   C4B 6886  14.288  17.200   8.556 -0.0731  0.1278  0.0113
  435POPI    C1 6887  18.045  10.803  10.241  0.0478  0.0437 -0.0580
  435POPI    C2 6888  17.845  10.878  10.578 -0.0046 -0.1402 -0.0469
  435POPI    C3 6889  18.240  10.939  10.563 -0.0221 -0.0093  0.0072
  435POPI   PO4 6890  17.860  10.939  10.019 -0.0757 -0.1706 -0.0600
  435POPI   GL1 6891  17.893  11.045   9.666 -0.0118  0.0433  0.1747
  435POPI   GL2 6892  17.618  10.942   9.468 -0.3247  0.0616 -0.1643
  435POPI   C1A 6893  18.020  11.158   9.290 -0.0333  0.0093  0.1149
  435POPI   D2A 6894  18.018  10.980   8.942 -0.0692  0.1162 -0.0825
  435POPI   C3A 6895  18.047  11.114   8.444  0.0148  0.1827 -0.0832
  435POPI   C4A 6896  17.840  11.179   8.089 -0.1040  0.2015  0.0961
  435POPI   C1B 6897  17.554  10.863   9.052 -0.4205  0.3039  0.2089
  435POPI   C2B 6898  17.607  10.754   8.552  0.0723  0.0080 -0.1033
  435POPI   C3B 6899  17.602  10.611   8.114 -0.0069 -0.1573 -0.0263
  435POPI   C4B 6900  17.693  10.730   7.795 -0.2085  0.1490 -0.0298
  436POPI    C1 6901  17.081   7.043  10.434 -0.0443  0.0803  0.1240
  436POPI    C2 6902  16.913   6.934  10.780 -0.1984  0.2587  0.1074
  436POPI    C3 6903  17.234   7.172  10.780  0.0084 -0.0149  0.1366
  436POPI   PO4 6904  16.882   7.129  10.245  0.1411 -0.2674  0.0771
  436POPI   GL1 6905  16.506   7.206  10.030 -0.1954  0.0844  0.0350
  436POPI   GL2 6906  16.416   7.504  10.074  0.1284  0.2344 -0.0140
  436POPI   C1A 6907  16.613   7.346   9.602 -0.3357  0.2885  0.1316
  436POPI   D2A 6908  16.794   7.351   9.245 -0.3888 -0.3502  0.1469
  436POPI   C3A 6909  16.662   7.157   8.877  0.3159  0.1510 -0.0873
  436POPI   C4A 6910  16.629   7.099   8.453 -0.0182 -0.0857  0.1079
  436POPI   C1B 6911  16.603   7.785   9.824  0.0675  0.0089 -0.1076
  436POPI   C2B 6912  16.586   7.801   9.367 -0.1957  0.0573  0.0803
  436POPI   C3B 6913  16.513   7.735   8.867 -0.1692 -0.1392  0.1453
  436POPI   C4B 6914  16.342   7.586   8.526  0.1561  0.1188  0.0745
  437POPI    C1 6915   3.204   5.870  10.282 -0.0266 -0.0908  0.0706
  437POPI    C2 6916   2.841   5.830  10.119 -0.1846 -0.0105  0.3960
  437POPI    C3 6917   2.886   5.806  10.516  0.1929 -0.1949  0.3459
  437POPI   PO4 6918   3.324   6.099  10.234 -0.0592 -0.0188 -0.0268
  437POPI   GL1 6919   3.341   6.189   9.874  0.0040  0.1635 -0.1755
  437POPI   GL2 6920   3.134   6.306   9.767  0.2412  0.2454  0.0754
  437POPI   C1A 6921   3.417   5.911   9.537 -0.0921  0.2229 -0.1646
  437POPI   D2A 6922   3.480   5.482   9.543  0.0415  0.1026 -0.3580
  437POPI   C3A 6923   3.510   5.577   9.084 -0.2275 -0.1350  0.0457
  437POPI   C4A 6924   3.526   5.535   8.751  0.0474  0.1279 -0.3406
  437POPI   C1B 6925   3.266   6.319   9.319  0.0115  0.0758 -0.1342
  437POPI   C2B 6926   3.223   6.342   8.898  0.1966 -0.0845  0.0618
  437POPI   C3B 6927   3.182   6.503   8.474  0.1870  0.3170  0.0538
  437POPI   C4B 6928   3.203   6.685   8.089 -0.1185 -0.1236  0.0104
  438POPI    C1 6929   4.311  14.041  10.396  0.0735 -0.1757 -0.1945
  438POPI    C2 6930   4.186  14.136  10.764  0.1266  0.2711 -0.2863
  438POPI    C3 6931   4.498  13.891  10.716 -0.1853 -0.1883 -0.0464
  438POPI   PO4 6932   4.381  14.262  10.293 -0.0566  0.2233  0.0242
  438POPI   GL1 6933   4.224  14.395   9.807  0.0041  0.0670  0.0287
  438POPI   GL2 6934   3.901  14.319   9.869  0.0530  0.0241  0.0388
  438POPI   C1A 6935   4.291  14.500   9.396 -0.0930 -0.2872  0.0458
  438POPI   D2A 6936   4.168  14.501   9.088  0.0378  0.3286 -0.0255
  438POPI   C3A 6937   4.523  14.441   8.742 -0.2619 -0.2192 -0.3461
  438POPI   C4A 6938   4.538  14.307   8.345 -0.3020 -0.1711 -0.0471
  438POPI   C1B 6939   3.803  14.322   9.471  0.2727  0.2032  0.1972
  438POPI   C2B 6940   3.654  14.313   9.149 -0.1212 -0.1648 -0.1252
  438POPI   C3B 6941   3.698  14.558   8.766  0.1626  0.1370 -0.1159
  438POPI   C4B 6942   3.654  14.626   8.282 -0.0578 -0.1731 -0.1189
  439POPI    C1 6943  12.093   0.321  10.738 -0.2527 -0.0526 -0.1023
  439POPI    C2 6944  11.826   0.523  10.955  0.0800  0.1660  0.1137
  439POPI    C3 6945  12.207   0.643  10.946  0.2121 -0.2485 -0.0402
  439POPI   PO4 6946  11.909   0.302  10.494  0.1832  0.0320 -0.1283
  439POPI   GL1 6947  11.755   0.353  10.094 -0.3042 -0.0445 -0.1541
  439POPI   GL2 6948  11.547   0.220   9.943 -0.0059  0.2863 -0.2719
  439POPI   C1A 6949  12.011   0.348   9.656  0.0357  0.0835  0.0465
  439POPI   D2A 6950  12.080   0.123   9.219 -0.0235 -0.3216 -0.3515
  439POPI   C3A 6951  12.266   0.214   8.878 -0.3805  0.2622  0.1360
  439POPI   C4A 6952  12.245   0.656   8.764  0.5928 -0.2418  0.1224
  439POPI   C1B 6953  11.533   0.075   9.493  0.1205  0.0677 -0.0463
  439POPI   C2B 6954  11.551   0.219   9.097  0.0269 -0.0529 -0.0282
  439POPI   C3B 6955  11.738   0.496   8.843  0.3594  0.0430 -0.0385
  439POPI   C4B 6956  11.683   0.900   8.534  0.1620 -0.1845 -0.0230
  440POPI    C1 6957   4.002   1.128  10.122  0.2881  0.1568  0.0813
  440POPI    C2 6958   3.933   0.912  10.451  0.1332  0.1057  0.0162
  440POPI    C3 6959   4.136   1.256  10.476  0.2158  0.0479  0.1485
  440POPI   PO4 6960   3.710   1.233   9.984  0.1433 -0.0591 -0.0893
  440POPI   GL1 6961   3.611   1.470   9.604 -0.0371 -0.0021 -0.1990
  440POPI   GL2 6962   3.638   1.705   9.418 -0.1375  0.0535  0.1076
  440POPI   C1A 6963   3.863   1.205   9.333 -0.0822 -0.1408  0.3682
  440POPI   D2A 6964   3.994   1.105   8.938  0.0029  0.0513 -0.2038
  440POPI   C3A 6965   3.796   1.055   8.549 -0.1084  0.0100  0.1967
  440POPI   C4A 6966   3.706   1.225   8.132 -0.1698  0.1254 -0.0583
  440POPI   C1B 6967   3.663   1.577   8.965  0.0622 -0.1094  0.1424
  440POPI   C2B 6968   3.565   1.624   8.514 -0.4026 -0.0387 -0.0954
  440POPI   C3B 6969   3.398   1.575   8.050 -0.0989  0.2767 -0.4107
  440POPI   C4B 6970   2.935   1.495   7.815 -0.0558 -0.0084  0.1354
  441POPI    C1 6971  15.377  17.626  10.820  0.1011 -0.1324 -0.0851
  441POPI    C2 6972  15.711  17.494  10.996  0.0455 -0.2303 -0.0520
  441POPI    C3 6973  15.373  17.283  11.027  0.0149 -0.2040 -0.2047
  441POPI   PO4 6974  15.447  17.757  10.551  0.2266 -0.3258 -0.1877
  441POPI   GL1 6975  15.670  18.143  10.280  0.0808  0.0974  0.1011
  441POPI   GL2 6976  15.612  18.466  10.194  0.0926 -0.1113 -0.0466
  441POPI   C1A 6977  15.581  18.151   9.805  0.0035 -0.2399  0.3332
  441POPI   D2A 6978  15.643  18.134   9.344  0.0635  0.2468  0.3689
  441POPI   C3A 6979  15.701  18.073   9.000  0.1695  0.0058  0.3911
  441POPI   C4A 6980  16.015  17.939   8.558 -0.0629 -0.1791 -0.0714
  441POPI   C1B 6981  15.484  18.872   9.988  0.0499  0.1804  0.2120
  441POPI   C2B 6982  15.259  18.824   9.617  0.3425 -0.1004 -0.0715
  441POPI   C3B 6983  15.300  18.868   9.227  0.0094 -0.1799  0.1708
  441POPI   C4B 6984  15.274  18.803   8.851 -0.1061  0.0933  0.0825
  442POPI    C1 6985   4.633  15.991  10.297 -0.1701  0.1726 -0.0196
  442POPI    C2 6986   4.235  16.020  10.308 -0.1951 -0.1435  0.0066
  442POPI    C3 6987   4.407  15.667  10.234  0.0807 -0.0011 -0.0423
  442POPI   PO4 6988   4.705  16.145  10.134  0.2745 -0.1267  0.1172
  442POPI   GL1 6989   4.480  16.181   9.753 -0.1601 -0.2211  0.1069
  442POPI   GL2 6990   4.161  16.342   9.888  0.0443 -0.1089  0.1737
  442POPI   C1A 6991   4.346  16.081   9.291 -0.0323  0.0874  0.0326
  442POPI   D2A 6992   4.300  15.872   8.916 -0.2367  0.3151  0.2440
  442POPI   C3A 6993   4.683  15.798   8.632  0.0867  0.0326  0.0270
  442POPI   C4A 6994   4.784  15.796   8.132  0.1159  0.2497  0.1812
  442POPI   C1B 6995   3.861  16.096   9.589 -0.1640  0.1667  0.0849
  442POPI   C2B 6996   3.883  15.811   9.174  0.1660 -0.1002 -0.2327
  442POPI   C3B 6997   3.792  15.893   8.772 -0.0927  0.1234 -0.1470
  442POPI   C4B 6998   3.780  16.212   8.286 -0.3515  0.0255  0.1014
  443POPI    C1 6999   9.756   8.416  10.279  0.1745  0.0761 -0.1219
  443POPI    C2 7000   9.977   8.278  10.582  0.0911  0.1902 -0.0076
  443POPI    C3 7001   9.867   8.662  10.574 -0.0245  0.1556 -0.1116
  443POPI   PO4 7002   9.524   8.211  10.292 -0.1079  0.1832  0.1905
  443POPI   GL1 7003   9.490   7.736  10.104 -0.1116 -0.2364 -0.1500
  443POPI   GL2 7004   9.347   7.944   9.872 -0.0072  0.2653 -0.5798
  443POPI   C1A 7005   9.770   7.725   9.731 -0.0029 -0.0544 -0.2029
  443POPI   D2A 7006   9.927   7.873   9.315 -0.2368  0.3866 -0.0288
  443POPI   C3A 7007  10.268   8.067   9.319  0.1473 -0.1445  0.2314
  443POPI   C4A 7008  10.633   8.226   9.135  0.0463 -0.0823 -0.1595
  443POPI   C1B 7009   9.428   8.003   9.519 -0.1657  0.1572  0.0165
  443POPI   C2B 7010   9.529   8.186   9.080 -0.2073  0.4965  0.1028
  443POPI   C3B 7011   9.564   7.971   8.697 -0.2974  0.1637 -0.0028
  443POPI   C4B 7012   9.613   7.971   8.244  0.0185 -0.0328 -0.2561
  444POPI    C1 7013   0.940   8.622  10.399  0.0099  0.1192  0.1670
  444POPI    C2 7014   1.329   8.609  10.304 -0.0009 -0.2110  0.1578
  444POPI    C3 7015   1.216   8.611  10.688  0.0092 -0.0896  0.1606
  444POPI   PO4 7016   0.749   8.476  10.198  0.1569  0.0936  0.4503
  444POPI   GL1 7017   0.663   8.481   9.807  0.2185 -0.0576 -0.0076
  444POPI   GL2 7018   0.634   8.132   9.732  0.0705  0.0108 -0.0192
  444POPI   C1A 7019   0.402   8.816   9.565 -0.0789  0.1650 -0.2912
  444POPI   D2A 7020   0.093   8.756   9.215 -0.0757 -0.0537  0.3119
  444POPI   C3A 7021   0.101   8.854   8.828  0.0889  0.0716 -0.2374
  444POPI   C4A 7022  -0.059   9.140   8.526 -0.0096 -0.0923 -0.1536
  444POPI   C1B 7023   0.420   8.307   9.352 -0.1052  0.1279 -0.0565
  444POPI   C2B 7024   0.191   8.331   8.975  0.1826  0.0920  0.1634
  444POPI   C3B 7025   0.017   8.359   8.546  0.1636 -0.0813 -0.3783
  444POPI   C4B 7026   0.036   8.390   8.135 -0.0838  0.3274 -0.1371
  445POPI    C1 7027   3.014  13.972  10.394 -0.1084  0.1576 -0.1380
  445POPI    C2 7028   3.408  13.950  10.328 -0.0697  0.0797  0.1100
  445POPI    C3 7029   3.260  13.854  10.687 -0.3319 -0.0452 -0.0292
  445POPI   PO4 7030   2.913  13.875  10.243 -0.1495  0.2136  0.0989
  445POPI   GL1 7031   3.018  13.801   9.837 -0.0709  0.0820  0.0480
  445POPI   GL2 7032   2.969  13.502   9.803 -0.1075  0.2072 -0.0593
  445POPI   C1A 7033   3.023  14.143   9.557  0.0846  0.0150  0.0167
  445POPI   D2A 7034   3.254  14.060   9.178 -0.0568 -0.0282  0.0808
  445POPI   C3A 7035   3.253  14.325   8.848 -0.0925  0.0665  0.1719
  445POPI   C4A 7036   3.187  14.487   8.446  0.1824 -0.3935  0.0341
  445POPI   C1B 7037   3.185  13.564   9.356  0.0805  0.0482  0.0656
  445POPI   C2B 7038   3.206  13.508   8.817 -0.0097  0.2490  0.4113
  445POPI   C3B 7039   3.016  13.414   8.473  0.2655 -0.1530  0.4107
  445POPI   C4B 7040   2.935  13.309   7.901  0.0680 -0.0730  0.1496
  446POPI    C1 7041  14.523  16.109  10.643  0.0076 -0.1939  0.1533
  446POPI    C2 7042  14.843  15.869  10.629  0.0798 -0.0814 -0.2608
  446POPI    C3 7043  14.854  16.205  10.847  0.1427 -0.2165 -0.0525
  446POPI   PO4 7044  14.440  16.105  10.474 -0.0294 -0.2915 -0.3262
  446POPI   GL1 7045  14.494  16.341  10.104 -0.2865  0.0803  0.2134
  446POPI   GL2 7046  14.262  16.189   9.955 -0.0914  0.2014  0.0875
  446POPI   C1A 7047  14.663  16.598   9.904 -0.1843 -0.0700 -0.1690
  446POPI   D2A 7048  14.984  16.891   9.778 -0.0869 -0.0615  0.2006
  446POPI   C3A 7049  14.865  16.992   9.359 -0.1372 -0.1320  0.1477
  446POPI   C4A 7050  14.921  16.892   8.941  0.2118 -0.0075 -0.3136
  446POPI   C1B 7051  14.052  16.160   9.550 -0.1992 -0.0560 -0.1254
  446POPI   C2B 7052  14.031  16.409   9.193 -0.1275 -0.0004  0.0230
  446POPI   C3B 7053  13.965  16.438   8.824 -0.3080 -0.0829 -0.0232
  446POPI   C4B 7054  13.798  16.327   8.411 -0.0068 -0.1988  0.0733
  447POPI    C1 7055   8.587  15.595  10.284  0.0347 -0.0021 -0.0465
  447POPI    C2 7056   8.510  15.396  10.622  0.2096 -0.1974 -0.1193
  447POPI    C3 7057   8.799  15.673  10.614  0.0061  0.0218 -0.0337
  447POPI   PO4 7058   8.576  15.421  10.061 -0.2661 -0.2361  0.1350
  447POPI   GL1 7059   8.507  15.490   9.742  0.0018 -0.0671 -0.1350
  447POPI   GL2 7060   8.259  15.554   9.500  0.0634 -0.0199  0.2249
  447POPI   C1A 7061   8.926  15.706   9.643  0.1252 -0.0411  0.0775
  447POPI   D2A 7062   9.020  15.964   9.287  0.4896 -0.1416 -0.2414
  447POPI   C3A 7063   9.079  15.692   8.919  0.1408 -0.0794 -0.2207
  447POPI   C4A 7064   9.011  15.450   8.488  0.1976 -0.0735 -0.0014
  447POPI   C1B 7065   8.115  15.564   9.086  0.1567 -0.0263 -0.0047
  447POPI   C2B 7066   8.078  15.583   8.689 -0.2097 -0.2086 -0.1084
  447POPI   C3B 7067   8.013  15.713   8.314 -0.0229  0.2324 -0.1449
  447POPI   C4B 7068   7.841  16.029   8.081  0.2369  0.0988  0.0348
  448POPI    C1 7069   8.407   4.939  10.529  0.2067 -0.1666  0.2234
  448POPI    C2 7070   8.148   4.901  10.831  0.0010 -0.3387  0.0289
  448POPI    C3 7071   8.085   5.176  10.547  0.1628 -0.2169  0.1089
  448POPI   PO4 7072   8.436   4.751  10.427 -0.2499 -0.0221 -0.0797
  448POPI   GL1 7073   8.646   4.726  10.069  0.0728 -0.3592 -0.0399
  448POPI   GL2 7074   8.429   4.883   9.922 -0.1837  0.2176  0.4562
  448POPI   C1A 7075   8.597   4.445   9.717 -0.1896  0.3844 -0.0919
  448POPI   D2A 7076   8.794   4.474   9.373 -0.0011 -0.0383 -0.2581
  448POPI   C3A 7077   8.593   4.531   9.033  0.0156 -0.1732 -0.1245
  448POPI   C4A 7078   8.551   4.693   8.621  0.0068  0.0441 -0.1383
  448POPI   C1B 7079   8.553   4.953   9.455  0.0655  0.0017  0.2225
  448POPI   C2B 7080   8.558   5.080   8.997 -0.1103 -0.0430 -0.0706
  448POPI   C3B 7081   8.418   5.188   8.664  0.2335  0.3398  0.0903
  448POPI   C4B 7082   8.469   5.105   8.232  0.0759  0.0145  0.3024
  449POPI    C1 7083  16.123   7.050  10.520 -0.0493 -0.0488 -0.2724
  449POPI    C2 7084  16.470   6.898  10.394 -0.0562 -0.1010 -0.2287
  449POPI    C3 7085  16.388   6.911  10.785 -0.0399  0.0494 -0.2297
  449POPI   PO4 7086  16.104   7.253  10.382 -0.1833 -0.2155  0.1600
  449POPI   GL1 7087  15.879   7.420  10.079  0.0137 -0.1930 -0.2918
  449POPI   GL2 7088  15.621   7.471   9.940  0.4538  0.3619  0.0883
  449POPI   C1A 7089  16.101   7.504   9.650  0.2864 -0.0432 -0.2785
  449POPI   D2A 7090  16.269   7.439   9.198  0.2304 -0.2685  0.1370
  449POPI   C3A 7091  15.982   7.699   8.986 -0.1456 -0.3629 -0.1597
  449POPI   C4A 7092  15.832   7.596   8.519 -0.0746  0.0172 -0.2217
  449POPI   C1B 7093  15.233   7.581   9.715 -0.0108 -0.0925  0.1790
  449POPI   C2B 7094  15.071   7.394   9.323  0.3051 -0.0241 -0.0228
  449POPI   C3B 7095  14.770   7.183   9.059  0.1555 -0.0041  0.0597
  449POPI   C4B 7096  14.497   7.241   8.632 -0.1836 -0.1981  0.1610
  450POPI    C1 7097   8.059  15.695  10.307 -0.2222 -0.0783  0.2332
  450POPI    C2 7098   7.969  16.076  10.389 -0.0506 -0.0037  0.0812
  450POPI    C3 7099   8.270  15.895  10.582 -0.0275 -0.0112  0.0382
  450POPI   PO4 7100   8.175  15.711  10.079 -0.1469 -0.1033 -0.0801
  450POPI   GL1 7101   7.857  15.930   9.858  0.0417 -0.0518 -0.0570
  450POPI   GL2 7102   8.068  16.085   9.722 -0.0746  0.0195 -0.0048
  450POPI   C1A 7103   7.794  15.770   9.398 -0.0178 -0.1697 -0.1725
  450POPI   D2A 7104   7.784  15.923   9.004 -0.2448  0.1327 -0.0888
  450POPI   C3A 7105   7.683  15.903   8.652  0.0496 -0.4254  0.1212
  450POPI   C4A 7106   7.400  15.943   8.276  0.2017  0.0457 -0.0654
  450POPI   C1B 7107   8.070  16.168   9.306 -0.1738 -0.3036 -0.4389
  450POPI   C2B 7108   8.284  16.244   8.900 -0.0838 -0.0736 -0.0458
  450POPI   C3B 7109   8.082  16.233   8.554  0.4129 -0.0849  0.1260
  450POPI   C4B 7110   8.112  16.451   8.136 -0.0382 -0.0478 -0.0026
  451POPI    C1 7111   8.028  11.276  10.216 -0.0363  0.0475 -0.0203
  451POPI    C2 7112   8.244  11.031  10.447 -0.2275 -0.1461 -0.0440
  451POPI    C3 7113   7.915  11.205  10.593 -0.1321  0.0415 -0.0499
  451POPI   PO4 7114   8.221  11.507  10.046 -0.2180  0.1294 -0.1125
  451POPI   GL1 7115   8.031  11.558   9.676 -0.2636 -0.5183 -0.1604
  451POPI   GL2 7116   8.053  11.283   9.429 -0.2756 -0.2635  0.0008
  451POPI   C1A 7117   8.018  11.831   9.267 -0.0765 -0.0236  0.3590
  451POPI   D2A 7118   8.130  12.227   9.166  0.0811  0.2521  0.3670
  451POPI   C3A 7119   8.422  12.663   9.232 -0.1585 -0.3968 -0.1323
  451POPI   C4A 7120   8.784  12.639   9.426 -0.0471 -0.3889  0.3791
  451POPI   C1B 7121   8.058  11.443   9.004  0.0019 -0.2203  0.1550
  451POPI   C2B 7122   8.022  11.935   8.735  0.1036 -0.4335  0.1374
  451POPI   C3B 7123   8.101  12.160   8.352 -0.1187 -0.0830 -0.0448
  451POPI   C4B 7124   8.360  12.238   7.985  0.3585  0.2177  0.2011
  452POPI    C1 7125   9.010  11.521   9.892 -0.0240 -0.0580  0.0216
  452POPI    C2 7126   9.008  11.657  10.268  0.0765 -0.1810  0.0672
  452POPI    C3 7127   9.199  11.862   9.983 -0.1133 -0.0174  0.0559
  452POPI   PO4 7128   8.769  11.298   9.931  0.0126  0.0827  0.1288
  452POPI   GL1 7129   8.717  11.060   9.510 -0.1897  0.1003 -0.2560
  452POPI   GL2 7130   8.957  11.347   9.393  0.0910 -0.1544 -0.1810
  452POPI   C1A 7131   8.506  11.199   9.157 -0.1153 -0.0320  0.1937
  452POPI   D2A 7132   8.395  11.159   8.726 -0.3300 -0.4612  0.3463
  452POPI   C3A 7133   8.064  11.323   8.397  0.3727  0.1047 -0.0953
  452POPI   C4A 7134   7.923  11.642   8.294  0.3724  0.2481 -0.0609
  452POPI   C1B 7135   8.978  11.185   8.994  0.1519 -0.4682  0.0170
  452POPI   C2B 7136   8.932  11.205   8.584  0.2903  0.2501 -0.1520
  452POPI   C3B 7137   8.733  11.177   8.162 -0.0844 -0.2327  0.1208
  452POPI   C4B 7138   8.425  11.284   8.023  0.4501  0.1851  0.0202
  453POPI    C1 7139  14.324  12.221  10.385  0.0559  0.0487  0.3530
  453POPI    C2 7140  14.533  12.423  10.109 -0.2344 -0.2408 -0.0928
  453POPI    C3 7141  14.319  12.621  10.383 -0.0622  0.0527 -0.1665
  453POPI   PO4 7142  14.188  12.027  10.223  0.0523 -0.1816 -0.0607
  453POPI   GL1 7143  13.977  11.958   9.858 -0.1752  0.3153  0.1136
  453POPI   GL2 7144  13.941  11.694  10.001  0.3578  0.0271 -0.0791
  453POPI   C1A 7145  13.861  12.016   9.431  0.1244  0.0610 -0.1452
  453POPI   D2A 7146  13.789  12.319   9.128  0.1105 -0.2497 -0.0849
  453POPI   C3A 7147  13.664  12.164   8.745  0.0623 -0.2335 -0.0536
  453POPI   C4A 7148  13.497  12.158   8.247  0.0203 -0.0761 -0.0054
  453POPI   C1B 7149  13.793  11.521   9.686  0.2521 -0.2661  0.3153
  453POPI   C2B 7150  13.776  11.468   9.273  0.0195 -0.0842  0.0217
  453POPI   C3B 7151  13.730  11.532   8.796 -0.0975  0.0782  0.0542
  453POPI   C4B 7152  13.663  11.556   8.372  0.1267 -0.3372  0.2169
  454POPI    C1 7153   8.624   7.120  10.283  0.0083  0.1861  0.0886
  454POPI    C2 7154   8.964   7.022  10.469 -0.1342  0.0097  0.2607
  454POPI    C3 7155   8.616   6.873  10.598 -0.2621  0.0776 -0.0005
  454POPI   PO4 7156   8.683   7.024  10.040  0.0673  0.2135  0.3781
  454POPI   GL1 7157   8.717   7.036   9.585  0.2028  0.2961  0.0540
  454POPI   GL2 7158   8.786   7.341   9.661  0.1963  0.2204  0.0126
  454POPI   C1A 7159   8.656   6.978   9.148  0.0303 -0.0221 -0.1042
  454POPI   D2A 7160   8.759   7.029   8.832  0.3505 -0.1081 -0.1421
  454POPI   C3A 7161   8.696   6.807   8.453  0.1776 -0.1617  0.0046
  454POPI   C4A 7162   8.776   6.832   8.054 -0.2824  0.1977 -0.0886
  454POPI   C1B 7163   9.010   7.335   9.232  0.1534 -0.1286 -0.3567
  454POPI   C2B 7164   9.083   7.485   8.800 -0.0306  0.1233 -0.2546
  454POPI   C3B 7165   8.934   7.347   8.382 -0.1894 -0.3530  0.2734
  454POPI   C4B 7166   8.569   7.260   8.176  0.0675  0.1202 -0.0731
  455POPI    C1 7167   0.331  14.383  10.810  0.1187 -0.0221  0.3171
  455POPI    C2 7168   0.042  14.145  10.952 -0.1122  0.0986  0.0592
  455POPI    C3 7169  -0.013  14.541  10.939  0.1032  0.1310  0.0930
  455POPI   PO4 7170   0.438  14.393  10.579  0.3462  0.3871  0.1077
  455POPI   GL1 7171   0.336  14.110  10.145  0.0438 -0.0057 -0.1246
  455POPI   GL2 7172   0.456  14.168   9.867 -0.2056 -0.1595  0.0744
  455POPI   C1A 7173   0.068  13.935   9.708  0.0050 -0.0644 -0.1255
  455POPI   D2A 7174   0.141  13.791   9.284 -0.2064 -0.2161  0.1050
  455POPI   C3A 7175   0.120  14.040   8.890 -0.0662  0.1379  0.0753
  455POPI   C4A 7176  -0.000  13.760   8.478  0.0428  0.3402  0.1578
  455POPI   C1B 7177   0.410  14.165   9.421  0.1586  0.2451 -0.1482
  455POPI   C2B 7178   0.522  14.265   8.978 -0.1582  0.3088 -0.1916
  455POPI   C3B 7179   0.542  14.285   8.537  0.0837  0.3067  0.2002
  455POPI   C4B 7180   0.233  14.349   8.238 -0.1792  0.0014  0.0130
  456POPI    C1 7181   0.563  11.163  10.164  0.0353 -0.1037 -0.0220
  456POPI    C2 7182   0.430  11.183  10.541 -0.1748 -0.1086 -0.0942
  456POPI    C3 7183   0.606  11.501  10.373 -0.2308 -0.0522 -0.0466
  456POPI   PO4 7184   0.729  10.998  10.107 -0.0972 -0.0291  0.1112
  456POPI   GL1 7185   0.897  10.871   9.684  0.1941  0.2592  0.0507
  456POPI   GL2 7186   0.575  10.731   9.733 -0.0863 -0.3262 -0.3095
  456POPI   C1A 7187   0.672  11.097   9.285  0.0345  0.0983 -0.1435
  456POPI   D2A 7188   0.502  11.001   8.864 -0.2000 -0.0323 -0.0398
  456POPI   C3A 7189   0.667  11.176   8.497 -0.2522  0.1749  0.0162
  456POPI   C4A 7190   0.605  11.295   8.013  0.0004 -0.2255  0.4634
  456POPI   C1B 7191   0.607  10.570   9.310 -0.0404 -0.1095 -0.1207
  456POPI   C2B 7192   0.616  10.472   8.877 -0.0579 -0.2737  0.0278
  456POPI   C3B 7193   0.769  10.606   8.483  0.2726 -0.0457 -0.3259
  456POPI   C4B 7194   0.603  10.725   8.061  0.0801  0.1287  0.0449
  457POPI    C1 7195   9.238   4.146  10.642  0.0713 -0.0113  0.1800
  457POPI    C2 7196   8.878   3.974  10.668  0.0949 -0.0855  0.0265
  457POPI    C3 7197   8.975   4.273  10.915 -0.1351  0.0500 -0.0436
  457POPI   PO4 7198   9.245   4.177  10.342 -0.3475  0.0637  0.2297
  457POPI   GL1 7199   9.250   4.066   9.832  0.0486  0.2135  0.1058
  457POPI   GL2 7200   9.578   4.038   9.693 -0.1859 -0.3106  0.0150
  457POPI   C1A 7201   9.226   4.278   9.430  0.1368 -0.0560 -0.1682
  457POPI   D2A 7202   9.132   4.369   8.997  0.0745 -0.0541  0.0553
  457POPI   C3A 7203   9.041   4.601   8.767 -0.1230 -0.3700 -0.0827
  457POPI   C4A 7204   8.915   4.900   8.362 -0.2407 -0.0283  0.0744
  457POPI   C1B 7205   9.778   4.118   9.423 -0.1648 -0.1161  0.0756
  457POPI   C2B 7206   9.561   4.054   9.085  0.0409  0.0482  0.2769
  457POPI   C3B 7207   9.210   3.890   9.099 -0.0879 -0.0166 -0.0560
  457POPI   C4B 7208   9.001   3.610   9.522  0.0817 -0.0390  0.0981
  458POPI    C1 7209   1.347   0.035  10.695  0.1003  0.1564  0.0740
  458POPI    C2 7210   1.406  -0.285  10.928 -0.3076  0.1879  0.2290
  458POPI    C3 7211   1.442   0.083  11.080  0.0346  0.2194  0.0824
  458POPI   PO4 7212   1.105  -0.114  10.582  0.2274 -0.0672  0.0306
  458POPI   GL1 7213   0.887  -0.380  10.241 -0.0915  0.4032  0.0249
  458POPI   GL2 7214   0.937  -0.083   9.971 -0.2845  0.0218  0.2929
  458POPI   C1A 7215   0.710  -0.532   9.838 -0.1675 -0.0010  0.0883
  458POPI   D2A 7216   0.422  -0.708   9.460  0.2590 -0.1110 -0.0345
  458POPI   C3A 7217   0.685  -1.023   9.268 -0.1602  0.3215  0.0366
  458POPI   C4A 7218   0.855  -1.168   8.936  0.0114  0.1591  0.1084
  458POPI   C1B 7219   0.876   0.307   9.911 -0.2532 -0.0192  0.0217
  458POPI   C2B 7220   0.858   0.534   9.574 -0.0628 -0.2247 -0.0590
  458POPI   C3B 7221   0.667   0.633   9.241 -0.0711 -0.0933 -0.1271
  458POPI   C4B 7222   0.716   0.464   8.836 -0.1698  0.0882  0.4313
  459POPI    C1 7223   7.589   7.140  10.049  0.0000 -0.0917 -0.0431
  459POPI    C2 7224   7.194   7.103   9.994 -0.0062  0.0010 -0.0635
  459POPI    C3 7225   7.393   7.402   9.818  0.0883 -0.0961 -0.1234
  459POPI   PO4 7226   7.694   6.971   9.927  0.1312 -0.0455 -0.3016
  459POPI   GL1 7227   7.859   6.863   9.576 -0.4128  0.0347 -0.0240
  459POPI   GL2 7228   7.844   6.529   9.456  0.2901  0.1217  0.2689
  459POPI   C1A 7229   7.711   6.981   9.217  0.2809  0.0337 -0.2396
  459POPI   D2A 7230   7.780   6.968   8.744  0.1358 -0.4231 -0.0991
  459POPI   C3A 7231   7.689   7.243   8.373  0.1007  0.0564 -0.1275
  459POPI   C4A 7232   7.777   7.329   7.954  0.4780  0.0300 -0.0246
  459POPI   C1B 7233   8.099   6.235   9.181  0.1185  0.0545  0.2306
  459POPI   C2B 7234   8.131   6.186   8.788  0.0575  0.2606  0.0786
  459POPI   C3B 7235   8.116   6.173   8.320 -0.0295  0.1667 -0.4890
  459POPI   C4B 7236   8.024   6.293   7.950 -0.1323 -0.2183 -0.0161
  460POPI    C1 7237   7.229   5.887  10.233  0.0135 -0.0735  0.1318
  460POPI    C2 7238   7.029   5.960   9.894  0.0093 -0.1604  0.1155
  460POPI    C3 7239   6.845   5.996  10.247  0.0397  0.0224  0.1135
  460POPI   PO4 7240   7.367   5.656  10.213  0.0986  0.0249  0.0953
  460POPI   GL1 7241   7.413   5.555   9.814  0.2059  0.2646 -0.1772
  460POPI   GL2 7242   7.640   5.413   9.733  0.0634  0.0710  0.0422
  460POPI   C1A 7243   7.186   5.734   9.478  0.2112  0.2864 -0.1810
  460POPI   D2A 7244   7.214   5.860   9.055  0.0326  0.1140 -0.1116
  460POPI   C3A 7245   7.075   5.790   8.707  0.1115  0.1264 -0.0664
  460POPI   C4A 7246   6.786   5.741   8.534  0.1671 -0.4238  0.2677
  460POPI   C1B 7247   7.607   5.481   9.331  0.0377  0.1400 -0.0287
  460POPI   C2B 7248   7.559   5.470   8.924  0.1221 -0.0724 -0.1459
  460POPI   C3B 7249   7.544   5.750   8.459  0.0544  0.3689 -0.0499
  460POPI   C4B 7250   7.644   6.052   8.107 -0.2246  0.0855 -0.2061
  461POPI    C1 7251  14.927   7.467  10.585  0.1332  0.2105  0.1732
  461POPI    C2 7252  14.810   7.262  10.908 -0.1437  0.0834 -0.0043
  461POPI    C3 7253  14.563   7.302  10.596  0.1444  0.1502 -0.2282
  461POPI   PO4 7254  15.119   7.351  10.490  0.3521  0.1958  0.0356
  461POPI   GL1 7255  15.197   7.244  10.067  0.0160  0.0474  0.2023
  461POPI   GL2 7256  15.225   6.899  10.187 -0.0569  0.2809 -0.1409
  461POPI   C1A 7257  15.459   7.104   9.653 -0.5550 -0.1334  0.2016
  461POPI   D2A 7258  15.882   7.016   9.500  0.0731 -0.2960 -0.2883
  461POPI   C3A 7259  15.874   7.104   9.066  0.3893  0.0204 -0.1003
  461POPI   C4A 7260  16.102   7.169   8.729  0.0653 -0.3292  0.0612
  461POPI   C1B 7261  15.097   6.568   9.807  0.2289 -0.1703  0.0895
  461POPI   C2B 7262  15.077   6.418   9.340 -0.0553  0.2122 -0.1525
  461POPI   C3B 7263  15.344   6.431   8.991  0.0297  0.1507 -0.1818
  461POPI   C4B 7264  15.306   6.443   8.480 -0.0787 -0.3026 -0.1123
  462POPI    C1 7265  15.588   6.568  10.670 -0.0822  0.0159 -0.1532
  462POPI    C2 7266  15.189   6.540  10.667 -0.0827 -0.0402  0.1666
  462POPI    C3 7267  15.386   6.561  11.015  0.1953 -0.0296  0.0113
  462POPI   PO4 7268  15.696   6.778  10.494 -0.0083  0.0482 -0.0938
  462POPI   GL1 7269  15.764   6.921  10.087 -0.2614 -0.2651 -0.1414
  462POPI   GL2 7270  16.077   6.841  10.091  0.0447  0.0250 -0.1389
  462POPI   C1A 7271  15.660   6.633   9.766  0.3988 -0.0766 -0.1407
  462POPI   D2A 7272  15.484   6.656   9.437 -0.1061  0.2429  0.0036
  462POPI   C3A 7273  15.419   6.896   9.155  0.2281 -0.0389  0.1263
  462POPI   C4A 7274  15.431   6.941   8.718  0.0166 -0.0374 -0.1761
  462POPI   C1B 7275  16.304   6.826   9.788 -0.1061  0.0367  0.2210
  462POPI   C2B 7276  16.389   6.917   9.375  0.1753 -0.0744  0.0145
  462POPI   C3B 7277  16.350   6.750   8.904  0.0886  0.0595  0.0108
  462POPI   C4B 7278  16.350   6.678   8.391 -0.0557  0.0749  0.0906
  463POPI    C1 7279  14.315  10.269  10.271 -0.0270  0.2387 -0.0407
  463POPI    C2 7280  14.115  10.408  10.588 -0.1004 -0.0074  0.0229
  463POPI    C3 7281  13.918  10.312  10.253 -0.0726 -0.1163  0.0374
  463POPI   PO4 7282  14.641  10.167  10.212  0.1942  0.0405  0.0228
  463POPI   GL1 7283  14.632  10.300   9.739 -0.1037 -0.0535 -0.0502
  463POPI   GL2 7284  14.825   9.976   9.776 -0.0571  0.1390 -0.3366
  463POPI   C1A 7285  14.952  10.285   9.374 -0.1777  0.3373  0.0242
  463POPI   D2A 7286  15.058  10.282   9.053 -0.0290 -0.0649 -0.0090
  463POPI   C3A 7287  14.926  10.287   8.679 -0.1281 -0.1559  0.1041
  463POPI   C4A 7288  14.760  10.177   8.249 -0.1478  0.0808 -0.0367
  463POPI   C1B 7289  14.611   9.931   9.380 -0.3027 -0.4479 -0.1050
  463POPI   C2B 7290  14.639   9.926   9.024 -0.0862 -0.0337  0.0680
  463POPI   C3B 7291  14.766   9.749   8.608  0.4153  0.0599  0.2149
  463POPI   C4B 7292  14.544   9.728   8.159 -0.1095 -0.2680  0.0616
  464POPI    C1 7293  11.189  17.203  10.688  0.1224 -0.0464 -0.1966
  464POPI    C2 7294  10.966  17.492  10.524  0.0175 -0.0430 -0.0506
  464POPI    C3 7295  11.258  17.587  10.780 -0.0142 -0.0661 -0.0060
  464POPI   PO4 7296  11.261  17.073  10.458  0.0639  0.1651 -0.1923
  464POPI   GL1 7297  11.347  17.026  10.031 -0.0064  0.0328  0.1965
  464POPI   GL2 7298  11.167  17.342  10.105 -0.2690 -0.2817 -0.0040
  464POPI   C1A 7299  11.720  17.251   9.986 -0.2048 -0.1130 -0.0342
  464POPI   D2A 7300  11.866  17.638   9.869  0.2066 -0.2004 -0.2451
  464POPI   C3A 7301  12.241  17.725   9.694  0.1252 -0.0912 -0.3088
  464POPI   C4A 7302  12.478  17.729   9.358  0.3221  0.1753  0.0992
  464POPI   C1B 7303  11.381  17.409   9.705 -0.0265  0.0143  0.0905
  464POPI   C2B 7304  11.859  17.408   9.446 -0.0888 -0.0660 -0.1933
  464POPI   C3B 7305  12.096  17.543   9.104 -0.0868  0.2837  0.0481
  464POPI   C4B 7306  12.158  17.609   8.751  0.0832  0.1091 -0.2592
  465POPI    C1 7307   8.151   2.014  10.153  0.1294 -0.0190 -0.0024
  465POPI    C2 7308   7.854   1.919  10.402  0.1202  0.1897  0.0685
  465POPI    C3 7309   8.205   2.044  10.548  0.1750  0.1396 -0.0197
  465POPI   PO4 7310   7.927   2.205   9.996  0.1123 -0.1232  0.2963
  465POPI   GL1 7311   7.743   2.432   9.696  0.0474  0.4852 -0.0445
  465POPI   GL2 7312   7.417   2.426   9.594  0.0501  0.0607  0.1598
  465POPI   C1A 7313   7.839   2.265   9.299  0.1252  0.2503  0.0465
  465POPI   D2A 7314   7.889   2.334   8.893  0.2978 -0.0793 -0.2985
  465POPI   C3A 7315   8.076   2.040   8.599  0.0272  0.2286 -0.0148
  465POPI   C4A 7316   8.356   2.084   8.367 -0.0742  0.1952  0.2186
  465POPI   C1B 7317   7.525   2.708   9.208 -0.1678  0.0008 -0.0985
  465POPI   C2B 7318   7.421   2.798   8.787  0.0376 -0.2715 -0.3203
  465POPI   C3B 7319   7.582   2.980   8.517  0.3486 -0.1620  0.0014
  465POPI   C4B 7320   7.834   2.818   8.185  0.0624 -0.0398 -0.1343
  466POPI    C1 7321  11.307  13.261  10.754  0.0510  0.0953 -0.0754
  466POPI    C2 7322  11.553  13.103  11.027 -0.2048 -0.1176  0.0361
  466POPI    C3 7323  11.398  13.467  11.085 -0.0256 -0.0393  0.0303
  466POPI   PO4 7324  11.315  13.249  10.545 -0.2368 -0.0046  0.0585
  466POPI   GL1 7325  11.150  13.331  10.029  0.0772  0.1611 -0.2295
  466POPI   GL2 7326  11.237  13.141   9.753  0.2487 -0.0224  0.2092
  466POPI   C1A 7327  11.367  13.647   9.842 -0.0405 -0.0460  0.0232
  466POPI   D2A 7328  11.445  13.994   9.709 -0.1512 -0.0046  0.0711
  466POPI   C3A 7329  11.456  14.033   9.303  0.0417  0.0644 -0.1888
  466POPI   C4A 7330  11.546  14.068   8.870 -0.2198 -0.1630 -0.0375
  466POPI   C1B 7331  11.208  13.183   9.357 -0.1183  0.2198  0.0297
  466POPI   C2B 7332  11.240  13.268   8.969  0.1397 -0.1222  0.2544
  466POPI   C3B 7333  11.353  13.401   8.491 -0.0301  0.0566  0.0964
  466POPI   C4B 7334  11.404  13.544   8.097  0.2603  0.1079  0.1030
  467POPI    C1 7335   8.139   7.017  10.335 -0.1865  0.0271  0.0855
  467POPI    C2 7336   7.810   7.107  10.544  0.0324  0.1988  0.3634
  467POPI    C3 7337   8.163   7.080  10.729  0.2168  0.2614  0.0286
  467POPI   PO4 7338   8.088   7.196  10.136  0.0710  0.1125  0.4594
  467POPI   GL1 7339   8.261   7.121   9.781 -0.1456  0.2682  0.0442
  467POPI   GL2 7340   8.252   6.738   9.889  0.0040  0.1012 -0.0692
  467POPI   C1A 7341   8.200   7.157   9.421 -0.1667  0.0967 -0.0751
  467POPI   D2A 7342   8.155   7.044   9.022 -0.3033 -0.0108  0.0267
  467POPI   C3A 7343   8.299   7.126   8.674 -0.2233 -0.0395 -0.0914
  467POPI   C4A 7344   8.147   7.090   8.352  0.1706  0.2704  0.0568
  467POPI   C1B 7345   8.323   6.678   9.469 -0.2549  0.3042  0.2535
  467POPI   C2B 7346   8.378   6.585   9.026 -0.0219  0.3477  0.0549
  467POPI   C3B 7347   8.263   6.646   8.561 -0.1706  0.0489 -0.1623
  467POPI   C4B 7348   8.284   6.650   8.100 -0.1637  0.0074 -0.0754
  468POPI    C1 7349  17.363   3.661  10.404  0.0869 -0.0573  0.0096
  468POPI    C2 7350  17.383   4.054  10.333 -0.1376 -0.0556 -0.0506
  468POPI    C3 7351  17.634   3.885  10.595  0.0093  0.1142 -0.0801
  468POPI   PO4 7352  17.399   3.507  10.195 -0.0931  0.0067 -0.1222
  468POPI   GL1 7353  17.163   3.279   9.903  0.1567 -0.1900  0.2403
  468POPI   GL2 7354  17.238   3.019  10.064 -0.0201  0.0285 -0.1318
  468POPI   C1A 7355  17.318   3.151   9.571  0.0317  0.1764 -0.2384
  468POPI   D2A 7356  17.316   2.878   9.259 -0.0733  0.1960 -0.1675
  468POPI   C3A 7357  17.547   2.996   8.872  0.2270 -0.1489 -0.0760
  468POPI   C4A 7358  17.383   3.024   8.470 -0.2212  0.2721 -0.0008
  468POPI   C1B 7359  17.483   2.774   9.774 -0.0628  0.0518 -0.0650
  468POPI   C2B 7360  17.523   2.493   9.457  0.0545 -0.0530  0.2925
  468POPI   C3B 7361  17.334   2.432   9.003 -0.0527 -0.1675  0.0869
  468POPI   C4B 7362  17.132   2.595   8.691 -0.0797  0.1243  0.0905
  469POPI    C1 7363   9.953   9.368   9.705 -0.0627  0.1146 -0.0741
  469POPI    C2 7364   9.851   9.599  10.015 -0.0090 -0.1202  0.1212
  469POPI    C3 7365   9.573   9.482   9.752 -0.1305 -0.2466  0.3036
  469POPI   PO4 7366  10.180   9.287   9.802 -0.6249  0.2118 -0.3434
  469POPI   GL1 7367  10.620   9.414   9.700 -0.0293 -0.0373 -0.1256
  469POPI   GL2 7368  10.554   9.148   9.537  0.0270  0.0588  0.2223
  469POPI   C1A 7369  10.908   9.438   9.464 -0.0525  0.1962  0.3935
  469POPI   D2A 7370  11.106   9.502   9.046  0.1119  0.1615 -0.1728
  469POPI   C3A 7371  11.175   9.477   8.492 -0.1628 -0.0243  0.0307
  469POPI   C4A 7372  11.148   9.344   8.028 -0.1996  0.2564 -0.2727
  469POPI   C1B 7373  10.689   9.219   9.060  0.0241  0.1212  0.3015
  469POPI   C2B 7374  10.714   9.237   8.624  0.1549 -0.0483 -0.2102
  469POPI   C3B 7375  10.748   9.175   8.250 -0.2198  0.1257 -0.1192
  469POPI   C4B 7376  10.620   9.404   7.908  0.0185 -0.1605  0.1248
  470POPI    C1 7377   5.857   8.080  10.249  0.0033  0.0277 -0.0404
  470POPI    C2 7378   5.546   8.233  10.050 -0.1010 -0.0206  0.0841
  470POPI    C3 7379   5.521   8.173  10.444  0.0616 -0.0381  0.0925
  470POPI   PO4 7380   5.958   7.872  10.051 -0.0297  0.0379  0.0714
  470POPI   GL1 7381   6.026   7.897   9.635  0.0232 -0.1832 -0.1523
  470POPI   GL2 7382   5.872   8.245   9.603 -0.3639  0.1333 -0.0687
  470POPI   C1A 7383   6.290   7.771   9.293 -0.0082 -0.0124 -0.0832
  470POPI   D2A 7384   6.194   7.422   9.101 -0.1744 -0.0811  0.0735
  470POPI   C3A 7385   6.372   7.226   8.800 -0.1706 -0.0038 -0.1507
  470POPI   C4A 7386   6.495   7.086   8.385 -0.0615  0.0411 -0.2606
  470POPI   C1B 7387   5.847   8.265   9.172  0.2543 -0.0299  0.4070
  470POPI   C2B 7388   5.731   8.275   8.753 -0.0387  0.0537  0.2191
  470POPI   C3B 7389   5.829   8.134   8.370  0.2582  0.1661 -0.0880
  470POPI   C4B 7390   5.669   8.060   7.957 -0.0053  0.3741 -0.2553
  471POPI    C1 7391   8.860   2.715  10.240  0.3197 -0.0885 -0.0568
  471POPI    C2 7392   9.034   2.906  10.545 -0.0871  0.1015  0.0645
  471POPI    C3 7393   8.637   2.919  10.502 -0.0799 -0.3341 -0.1960
  471POPI   PO4 7394   8.991   2.524  10.233  0.2522  0.2941  0.2702
  471POPI   GL1 7395   9.090   2.315   9.869  0.1606 -0.1907  0.1923
  471POPI   GL2 7396   8.809   2.371   9.557  0.0533  0.2736  0.1984
  471POPI   C1A 7397   9.265   2.235   9.443  0.0820 -0.2968 -0.1082
  471POPI   D2A 7398   9.284   2.199   9.060 -0.2225  0.1160  0.3699
  471POPI   C3A 7399   9.047   2.335   8.867  0.0278 -0.0010 -0.2468
  471POPI   C4A 7400   9.105   2.408   8.431  0.0379 -0.0037 -0.1668
  471POPI   C1B 7401   8.878   2.601   9.239  0.4285  0.0016 -0.0615
  471POPI   C2B 7402   9.011   2.844   8.940 -0.1166 -0.0212 -0.0176
  471POPI   C3B 7403   8.997   3.145   8.653  0.1172 -0.0367  0.1132
  471POPI   C4B 7404   8.945   3.210   8.224 -0.1612  0.1326 -0.1001
  472POPI    C1 7405  12.962   8.082  10.685 -0.0517 -0.0304  0.0441
  472POPI    C2 7406  12.908   8.478  10.695 -0.1220 -0.0304 -0.2565
  472POPI    C3 7407  12.685   8.240  10.927 -0.0368  0.1086 -0.0288
  472POPI   PO4 7408  13.013   8.045  10.443  0.2502  0.2146  0.0973
  472POPI   GL1 7409  12.983   7.938  10.129 -0.0351 -0.4253 -0.0277
  472POPI   GL2 7410  13.260   7.867   9.999  0.1511 -0.0408 -0.1265
  472POPI   C1A 7411  12.968   8.216   9.753 -0.0614  0.4237 -0.4075
  472POPI   D2A 7412  13.070   8.166   9.389 -0.1003 -0.1109  0.0232
  472POPI   C3A 7413  12.808   8.225   9.029 -0.2885  0.2080 -0.1244
  472POPI   C4A 7414  12.849   8.623   8.803  0.0189 -0.1553  0.2353
  472POPI   C1B 7415  13.529   8.157   9.902  0.1124 -0.0995  0.1099
  472POPI   C2B 7416  13.590   8.506   9.686  0.0440  0.3376  0.1271
  472POPI   C3B 7417  13.620   8.635   9.341  0.1124 -0.0055 -0.2455
  472POPI   C4B 7418  13.830   8.798   8.987 -0.0411 -0.3508  0.0963
  473DPPI    C1 7419  11.789  13.997  10.574 -0.3636 -0.0588 -0.1388
  473DPPI    C2 7420  11.450  13.794  10.637 -0.3343 -0.0576  0.0297
  473DPPI    C3 7421  11.725  13.816  10.926 -0.0887 -0.2506 -0.1850
  473DPPI   PO4 7422  11.862  13.879  10.336 -0.1647  0.1532 -0.2076
  473DPPI   GL1 7423  11.872  14.086   9.956 -0.1794  0.1864  0.0174
  473DPPI   GL2 7424  11.910  13.733   9.882  0.0352  0.0125  0.1036
  473DPPI   C1A 7425  11.790  14.306   9.557 -0.1659  0.2425  0.3763
  473DPPI   C2A 7426  11.874  14.431   9.222  0.0127 -0.1114 -0.0266
  473DPPI   C3A 7427  12.075  14.382   8.798  0.2051 -0.0747  0.0445
  473DPPI   C4A 7428  12.127  14.438   8.355 -0.2272  0.0042 -0.0377
  473DPPI   C1B 7429  11.953  13.832   9.408 -0.0702 -0.1404 -0.0319
  473DPPI   C2B 7430  12.053  13.913   9.025 -0.0749  0.2798  0.0327
  473DPPI   C3B 7431  12.163  13.967   8.570  0.0280  0.2904 -0.0482
  473DPPI   C4B 7432  12.259  13.954   8.176 -0.0724 -0.0094 -0.0198
  474DPPI    C1 7433   8.840  12.380  10.628  0.1461  0.2760  0.2075
  474DPPI    C2 7434   8.614  12.313  10.952 -0.1251 -0.3818 -0.1001
  474DPPI    C3 7435   8.959  12.117  10.904  0.0643 -0.0623 -0.0727
  474DPPI   PO4 7436   8.668  12.348  10.333  0.2259  0.1482 -0.1963
  474DPPI   GL1 7437   8.748  12.367   9.913  0.0945  0.1804 -0.0916
  474DPPI   GL2 7438   9.071  12.476   9.843 -0.0606 -0.0827  0.1544
  474DPPI   C1A 7439   8.595  12.219   9.607 -0.0521 -0.2742  0.2471
  474DPPI   C2A 7440   8.661  12.230   9.145  0.1120  0.0514  0.3066
  474DPPI   C3A 7441   8.744  12.596   8.875  0.0565 -0.3693 -0.1863
  474DPPI   C4A 7442   8.646  12.556   8.447 -0.0330  0.1292 -0.0489
  474DPPI   C1B 7443   9.194  12.371   9.395  0.0227 -0.1208  0.0766
  474DPPI   C2B 7444   9.171  12.312   9.003 -0.1166  0.2337  0.1118
  474DPPI   C3B 7445   8.923  12.186   8.650  0.0291 -0.2619  0.0811
  474DPPI   C4B 7446   8.842  12.186   8.206  0.0220  0.2368  0.0340
  475DPPI    C1 7447   7.617  13.604  10.336  0.0618 -0.1038  0.1228
  475DPPI    C2 7448   7.910  13.616  10.064 -0.0866  0.0107 -0.0350
  475DPPI    C3 7449   7.699  13.281  10.115  0.0957 -0.0848  0.1076
  475DPPI   PO4 7450   7.478  13.864  10.220  0.1038 -0.0831  0.2680
  475DPPI   GL1 7451   7.322  14.073   9.928  0.2391 -0.2597 -0.0471
  475DPPI   GL2 7452   7.333  14.433  10.000 -0.1343 -0.0977 -0.0798
  475DPPI   C1A 7453   7.034  13.919   9.621  0.0826 -0.0423  0.2040
  475DPPI   C2A 7454   7.370  13.992   9.320  0.0080 -0.1285 -0.2614
  475DPPI   C3A 7455   7.321  13.940   8.861 -0.1284 -0.1132  0.1093
  475DPPI   C4A 7456   7.447  13.829   8.416 -0.3363 -0.3952  0.0906
  475DPPI   C1B 7457   7.275  14.496   9.635  0.0441  0.0705  0.1437
  475DPPI   C2B 7458   7.321  14.456   9.113  0.2150  0.1135 -0.2029
  475DPPI   C3B 7459   7.318  14.450   8.664 -0.2934  0.0258 -0.0712
  475DPPI   C4B 7460   7.400  14.476   8.290 -0.0918 -0.1279  0.0022
  476DPPI    C1 7461   9.096  16.905  10.352  0.1473  0.1647  0.0334
  476DPPI    C2 7462   8.793  17.130  10.483  0.0017  0.0346 -0.0763
  476DPPI    C3 7463   9.018  16.926  10.743 -0.2415 -0.1668 -0.0198
  476DPPI   PO4 7464   9.162  17.066  10.126  0.1392 -0.2247  0.1382
  476DPPI   GL1 7465   9.291  17.374   9.882 -0.1261 -0.0103  0.0677
  476DPPI   GL2 7466   9.026  17.350   9.637  0.1608 -0.0904  0.1505
  476DPPI   C1A 7467   9.616  17.397   9.573  0.0041  0.2804  0.1590
  476DPPI   C2A 7468   9.815  17.364   9.179  0.1574  0.0206  0.1292
  476DPPI   C3A 7469   9.973  17.303   8.778  0.2235  0.0872 -0.1394
  476DPPI   C4A 7470   9.890  17.031   8.486  0.0294  0.2656  0.3393
  476DPPI   C1B 7471   9.177  17.445   9.296 -0.3363  0.2499 -0.1030
  476DPPI   C2B 7472   9.396  17.354   8.903  0.1524 -0.0772 -0.2630
  476DPPI   C3B 7473   9.504  17.242   8.583  0.1812 -0.0148  0.2144
  476DPPI   C4B 7474   9.369  17.018   8.319 -0.2305  0.1097  0.1229
  477DPPI    C1 7475   5.159   9.571  10.337  0.2120 -0.2390 -0.0749
  477DPPI    C2 7476   4.958   9.226  10.361  0.1903 -0.2233 -0.0297
  477DPPI    C3 7477   5.062   9.421  10.694 -0.1948  0.0450 -0.0598
  477DPPI   PO4 7478   5.028   9.761  10.158  0.0498  0.1326  0.0223
  477DPPI   GL1 7479   4.958  10.018   9.746 -0.1354 -0.0860 -0.4369
  477DPPI   GL2 7480   4.788   9.898   9.749  0.0039  0.4255 -0.3023
  477DPPI   C1A 7481   5.040  10.162   9.324  0.0813 -0.1950  0.0072
  477DPPI   C2A 7482   5.179  10.073   8.822  0.1663  0.0446 -0.0814
  477DPPI   C3A 7483   5.226  10.089   8.446 -0.0607 -0.0985 -0.1592
  477DPPI   C4A 7484   5.427   9.995   8.127 -0.0886 -0.1949  0.1199
  477DPPI   C1B 7485   4.941   9.700   9.373  0.1747  0.0374  0.4087
  477DPPI   C2B 7486   5.056   9.621   9.004 -0.1021 -0.1541  0.0170
  477DPPI   C3B 7487   4.991   9.627   8.540 -0.0055 -0.0682  0.2136
  477DPPI   C4B 7488   4.933   9.759   8.138 -0.1641  0.0455 -0.0148
  478DPPI    C1 7489  14.447   3.508  10.561  0.0240 -0.0192 -0.0086
  478DPPI    C2 7490  14.345   3.748  10.864 -0.0178 -0.2563  0.1687
  478DPPI    C3 7491  14.707   3.578  10.857  0.1287  0.0547 -0.1172
  478DPPI   PO4 7492  14.423   3.647  10.345 -0.1110 -0.0832 -0.3643
  478DPPI   GL1 7493  14.700   3.761   9.923  0.0058 -0.1076  0.0345
  478DPPI   GL2 7494  14.371   3.775   9.804  0.1110  0.3976 -0.2060
  478DPPI   C1A 7495  14.883   3.694   9.538 -0.3456  0.3032 -0.1371
  478DPPI   C2A 7496  14.889   3.629   9.092 -0.0797 -0.1786  0.0417
  478DPPI   C3A 7497  14.832   3.871   8.735 -0.1129  0.1719  0.0635
  478DPPI   C4A 7498  14.792   3.801   8.226 -0.3083 -0.1829  0.3677
  478DPPI   C1B 7499  14.427   3.720   9.354 -0.1209 -0.1762 -0.2009
  478DPPI   C2B 7500  14.414   3.618   8.952  0.1692 -0.2430 -0.0750
  478DPPI   C3B 7501  14.572   3.492   8.526 -0.1239  0.1957 -0.2401
  478DPPI   C4B 7502  14.977   3.242   8.335  0.0642 -0.0522  0.1989
  479DPPI    C1 7503  15.168  10.906  10.791  0.0415 -0.0600 -0.0749
  479DPPI    C2 7504  15.242  11.290  10.878  0.0632 -0.0876  0.0292
  479DPPI    C3 7505  15.085  11.048  11.155  0.0590 -0.1567 -0.0331
  479DPPI   PO4 7506  15.176  10.935  10.507  0.1166  0.1983 -0.0206
  479DPPI   GL1 7507  15.149  10.982  10.089  0.2049 -0.0037  0.3125
  479DPPI   GL2 7508  15.493  11.044  10.024  0.0495  0.2339 -0.0586
  479DPPI   C1A 7509  15.136  11.112   9.575  0.0825  0.2031 -0.1480
  479DPPI   C2A 7510  15.103  11.149   9.094  0.3172  0.0959 -0.0453
  479DPPI   C3A 7511  14.986  11.232   8.702 -0.0617 -0.3165  0.1845
  479DPPI   C4A 7512  14.690  11.441   8.286 -0.1567  0.2026 -0.1583
  479DPPI   C1B 7513  15.554  10.838   9.661 -0.3754  0.0442 -0.3040
  479DPPI   C2B 7514  15.407  10.731   9.297  0.1298  0.3316  0.0059
  479DPPI   C3B 7515  15.374  10.664   8.873  0.1087 -0.0225  0.3713
  479DPPI   C4B 7516  15.387  10.594   8.448 -0.2124  0.1321 -0.0173
  480DPPI    C1 7517  10.075   2.841  10.261 -0.1041  0.1198  0.0795
  480DPPI    C2 7518  10.051   2.878  10.659 -0.0454 -0.1588  0.1111
  480DPPI    C3 7519  10.374   2.711  10.492 -0.1920 -0.3009 -0.0347
  480DPPI   PO4 7520   9.807   2.768  10.195  0.0548 -0.2304  0.0295
  480DPPI   GL1 7521   9.650   2.580   9.842  0.1155 -0.0321  0.3562
  480DPPI   GL2 7522   9.393   2.685   9.669 -0.0742 -0.2127 -0.0664
  480DPPI   C1A 7523   9.882   2.557   9.405 -0.0425  0.3804 -0.1691
  480DPPI   C2A 7524  10.064   2.516   9.077 -0.1919  0.1137  0.0774
  480DPPI   C3A 7525  10.265   2.367   8.709  0.1649  0.4397 -0.1661
  480DPPI   C4A 7526  10.086   2.360   8.286  0.1431 -0.1824  0.2153
  480DPPI   C1B 7527   9.418   2.645   9.211  0.0239  0.0274  0.2252
  480DPPI   C2B 7528   9.442   2.760   8.818 -0.1808 -0.2230 -0.1756
  480DPPI   C3B 7529   9.436   2.848   8.340  0.1132  0.1880  0.0482
  480DPPI   C4B 7530   9.116   2.757   8.030 -0.2786 -0.3125 -0.0274
  481DPPI    C1 7531  11.013   4.972  10.395 -0.1928 -0.0076 -0.1462
  481DPPI    C2 7532  10.874   5.227  10.671  0.0549  0.2293 -0.2362
  481DPPI    C3 7533  10.901   4.836  10.755 -0.0991  0.2649 -0.0114
  481DPPI   PO4 7534  11.086   5.177  10.201  0.0194 -0.0904  0.4245
  481DPPI   GL1 7535  11.375   5.252   9.971  0.0399  0.1429  0.0743
  481DPPI   GL2 7536  11.520   5.484   9.924  0.1987  0.0981 -0.0410
  481DPPI   C1A 7537  11.372   5.065   9.574  0.2602 -0.0399  0.0221
  481DPPI   C2A 7538  11.429   4.880   9.171 -0.0009 -0.0700 -0.0416
  481DPPI   C3A 7539  11.599   4.795   8.762  0.2037 -0.3330  0.3612
  481DPPI   C4A 7540  11.734   4.761   8.255  0.0413 -0.1617 -0.2354
  481DPPI   C1B 7541  11.740   5.367   9.548  0.2386  0.1595  0.0543
  481DPPI   C2B 7542  11.822   5.123   9.193 -0.0160  0.1051  0.1885
  481DPPI   C3B 7543  11.980   5.180   8.862  0.2532  0.1581 -0.0680
  481DPPI   C4B 7544  11.798   5.211   8.496  0.0071  0.2267  0.1218
  482DPPI    C1 7545   5.026   6.261  10.090  0.0509  0.0457 -0.0691
  482DPPI    C2 7546   4.886   6.222  10.463 -0.0663 -0.1341 -0.1310
  482DPPI    C3 7547   4.751   6.516  10.228  0.2435  0.1797  0.0739
  482DPPI   PO4 7548   5.034   6.115   9.997 -0.1030  0.1762  0.1136
  482DPPI   GL1 7549   4.895   5.983   9.654 -0.3028 -0.0398 -0.0498
  482DPPI   GL2 7550   4.796   6.199   9.317 -0.2235  0.1089 -0.0246
  482DPPI   C1A 7551   5.035   5.772   9.308 -0.1378  0.1943 -0.0736
  482DPPI   C2A 7552   4.887   5.733   8.948 -0.3062  0.3469 -0.0561
  482DPPI   C3A 7553   4.563   5.795   8.598  0.0924  0.0912  0.0328
  482DPPI   C4A 7554   4.531   5.945   8.065  0.1477  0.0013  0.1526
  482DPPI   C1B 7555   4.691   6.176   8.889 -0.2940  0.0066  0.0616
  482DPPI   C2B 7556   4.808   6.210   8.415 -0.0889 -0.1740  0.1939
  482DPPI   C3B 7557   4.707   6.407   8.075  0.0525 -0.0264  0.1275
  482DPPI   C4B 7558   4.458   6.409   7.685 -0.0865 -0.1683  0.1717
  483DPPI    C1 7559  12.374  14.633  10.803  0.1152  0.3009 -0.0478
  483DPPI    C2 7560  12.654  14.399  10.638 -0.1362 -0.0235 -0.0249
  483DPPI    C3 7561  12.757  14.748  10.804  0.2507 -0.1321 -0.0278
  483DPPI   PO4 7562  12.213  14.699  10.512 -0.0460  0.2191  0.0706
  483DPPI   GL1 7563  12.149  14.646  10.108 -0.1190  0.2122  0.0263
  483DPPI   GL2 7564  11.831  14.720   9.992  0.1954 -0.1403  0.2639
  483DPPI   C1A 7565  12.181  14.640   9.652 -0.1108 -0.1976  0.2158
  483DPPI   C2A 7566  12.221  14.808   9.217 -0.0344  0.0226  0.1264
  483DPPI   C3A 7567  12.399  14.894   8.892 -0.0556  0.1816 -0.2170
  483DPPI   C4A 7568  12.547  14.596   8.589 -0.0769 -0.0616  0.0551
  483DPPI   C1B 7569  11.696  14.842   9.559  0.0770  0.2825  0.2312
  483DPPI   C2B 7570  11.798  15.007   9.278  0.0906  0.2589  0.1371
  483DPPI   C3B 7571  11.551  15.183   8.836  0.0077  0.0414  0.0244
  483DPPI   C4B 7572  11.394  15.314   8.418  0.0658 -0.2330 -0.1279
  484DPPI    C1 7573   7.916   0.703  10.403 -0.0076 -0.1591 -0.1039
  484DPPI    C2 7574   7.598   0.936  10.475  0.1919  0.0923 -0.0236
  484DPPI    C3 7575   7.663   0.611  10.699  0.1181  0.1697  0.1110
  484DPPI   PO4 7576   8.024   0.716  10.135 -0.2112  0.1486  0.0284
  484DPPI   GL1 7577   8.124   1.099   9.812 -0.1384 -0.1007  0.0030
  484DPPI   GL2 7578   7.786   0.828   9.728 -0.2744  0.0956 -0.0021
  484DPPI   C1A 7579   8.101   1.280   9.351 -0.0048 -0.0093 -0.0358
  484DPPI   C2A 7580   8.019   1.345   8.850  0.2397 -0.0047 -0.1557
  484DPPI   C3A 7581   8.070   1.542   8.445  0.1669 -0.2489  0.2546
  484DPPI   C4A 7582   7.963   1.802   8.060  0.0238  0.1003 -0.0030
  484DPPI   C1B 7583   7.775   0.972   9.188 -0.0643 -0.2044 -0.1539
  484DPPI   C2B 7584   7.689   0.643   8.843 -0.0529 -0.0117  0.2085
  484DPPI   C3B 7585   7.792   0.306   8.470 -0.1704 -0.1049 -0.2470
  484DPPI   C4B 7586   7.591   0.286   8.082 -0.0654  0.2167 -0.1687
  485DPPI    C1 7587  18.053   0.397  10.977 -0.0693 -0.0462 -0.1835
  485DPPI    C2 7588  18.057   0.177  11.311 -0.1814 -0.1970 -0.2803
  485DPPI    C3 7589  17.790   0.471  11.269  0.3154  0.3292  0.0809
  485DPPI   PO4 7590  18.011   0.234  10.755 -0.1634  0.1847 -0.4832
  485DPPI   GL1 7591  17.736   0.323  10.455 -0.0428  0.0439 -0.0448
  485DPPI   GL2 7592  17.814  -0.082  10.424 -0.0963  0.1056  0.0521
  485DPPI   C1A 7593  17.984   0.274  10.105  0.2271  0.3411  0.1360
  485DPPI   C2A 7594  18.059   0.148   9.813 -0.4075  0.0168  0.2812
  485DPPI   C3A 7595  18.171   0.036   9.376  0.2731 -0.1891 -0.0078
  485DPPI   C4A 7596  18.069   0.081   8.987 -0.1469 -0.0253  0.2756
  485DPPI   C1B 7597  17.705  -0.128  10.027  0.1542  0.1118  0.0446
  485DPPI   C2B 7598  17.574   0.180   9.717  0.2373  0.1321 -0.1456
  485DPPI   C3B 7599  17.495   0.126   9.252 -0.0903  0.0521  0.2070
  485DPPI   C4B 7600  17.478  -0.047   8.794  0.0108 -0.0930 -0.2342
  486DPPI    C1 7601   2.543   3.129  10.640  0.1703  0.2147  0.0348
  486DPPI    C2 7602   2.768   2.848  10.813 -0.0392  0.1035  0.1297
  486DPPI    C3 7603   2.526   3.076  11.036  0.1499  0.3799  0.0569
  486DPPI   PO4 7604   2.457   3.029  10.397 -0.0600 -0.1576  0.1332
  486DPPI   GL1 7605   2.600   2.929  10.021  0.0257  0.1082  0.4892
  486DPPI   GL2 7606   2.215   2.911   9.990  0.1491  0.2150  0.0492
  486DPPI   C1A 7607   2.624   2.862   9.622  0.0784  0.2661 -0.4458
  486DPPI   C2A 7608   2.691   2.823   9.121  0.0941 -0.0756  0.0831
  486DPPI   C3A 7609   2.603   2.912   8.831  0.0789 -0.0613  0.2236
  486DPPI   C4A 7610   2.543   3.146   8.388  0.0363 -0.0064  0.0082
  486DPPI   C1B 7611   2.091   2.993   9.564  0.2174  0.0260 -0.1129
  486DPPI   C2B 7612   2.206   2.990   9.164 -0.3706  0.0799 -0.1760
  486DPPI   C3B 7613   2.153   2.921   8.653  0.3403  0.1646  0.0765
  486DPPI   C4B 7614   2.025   2.853   8.212  0.0882 -0.0853 -0.1074
  487DPPI    C1 7615   8.995  13.399  10.277  0.1187  0.2353 -0.0051
  487DPPI    C2 7616   8.994  13.118  10.561  0.0087  0.1521 -0.0866
  487DPPI    C3 7617   8.953  13.503  10.660  0.1216  0.1368  0.0224
  487DPPI   PO4 7618   9.224  13.293  10.134 -0.3470 -0.0982 -0.0288
  487DPPI   GL1 7619   9.589  13.255   9.735  0.1930 -0.0299  0.0085
  487DPPI   GL2 7620   9.330  13.440   9.669 -0.0443 -0.1321  0.1190
  487DPPI   C1A 7621   9.834  13.138   9.361  0.1659  0.0266  0.2158
  487DPPI   C2A 7622   9.973  12.805   9.134  0.1276  0.1471 -0.2723
  487DPPI   C3A 7623   9.919  12.645   8.699  0.0538  0.2968  0.2806
  487DPPI   C4A 7624   9.943  12.646   8.319  0.0910  0.0083  0.1099
  487DPPI   C1B 7625   9.491  13.497   9.313 -0.0570 -0.1989 -0.0244
  487DPPI   C2B 7626   9.400  13.311   8.986 -0.0282  0.0719 -0.0884
  487DPPI   C3B 7627   9.263  13.308   8.558  0.1263  0.0610  0.1267
  487DPPI   C4B 7628   9.194  13.367   8.083  0.1722  0.0629  0.2670
  488DPPI    C1 7629  10.045   6.056  10.389  0.0494  0.0513 -0.1319
  488DPPI    C2 7630   9.672   5.995  10.258  0.0074  0.1401 -0.0550
  488DPPI    C3 7631   9.742   6.035  10.650  0.0461  0.4817 -0.0936
  488DPPI   PO4 7632  10.210   5.957  10.237  0.0850  0.0820 -0.1294
  488DPPI   GL1 7633  10.292   5.810   9.784  0.1408 -0.0910 -0.0620
  488DPPI   GL2 7634  10.603   5.958   9.892  0.3313 -0.2530 -0.3104
  488DPPI   C1A 7635  10.506   5.698   9.464 -0.1156  0.2080 -0.3108
  488DPPI   C2A 7636  10.458   5.543   9.078  0.2975 -0.1041  0.1362
  488DPPI   C3A 7637  10.557   5.438   8.710  0.2267  0.0321 -0.0866
  488DPPI   C4A 7638  10.799   5.335   8.346  0.4161 -0.0553  0.0535
  488DPPI   C1B 7639  10.352   6.238   9.539  0.0474 -0.0850 -0.1509
  488DPPI   C2B 7640  10.333   6.049   9.127  0.3084  0.1846  0.0633
  488DPPI   C3B 7641  10.488   6.031   8.716  0.1033  0.0940  0.1561
  488DPPI   C4B 7642  10.488   5.787   8.271 -0.0955 -0.2324 -0.1877
  489DPPI    C1 7643   0.352   5.465  10.386  0.1179  0.0364  0.0362
  489DPPI    C2 7644   0.681   5.389  10.601  0.0914  0.1902  0.1322
  489DPPI    C3 7645   0.372   5.581  10.768 -0.0193  0.1106  0.0214
  489DPPI   PO4 7646   0.391   5.589  10.224  0.2960  0.0546  0.3515
  489DPPI   GL1 7647   0.230   5.422   9.869 -0.0437  0.1371 -0.2975
  489DPPI   GL2 7648   0.560   5.645   9.763 -0.2219  0.0383  0.0423
  489DPPI   C1A 7649   0.039   5.470   9.456 -0.2300  0.2162 -0.1952
  489DPPI   C2A 7650   0.098   5.402   9.037 -0.1513 -0.0669  0.2796
  489DPPI   C3A 7651  -0.010   5.398   8.559  0.2901  0.1957 -0.0286
  489DPPI   C4A 7652  -0.002   5.402   8.083 -0.0533 -0.1402 -0.1568
  489DPPI   C1B 7653   0.582   5.442   9.364  0.1741  0.1538 -0.4151
  489DPPI   C2B 7654   0.681   5.509   9.011 -0.0339 -0.0297 -0.3099
  489DPPI   C3B 7655   0.573   5.558   8.574 -0.0666 -0.0603  0.0199
  489DPPI   C4B 7656   0.520   5.568   8.029 -0.0161 -0.1291  0.0711
  490DPPI    C1 7657   9.809  13.313  10.304  0.4139  0.0213  0.0540
  490DPPI    C2 7658   9.504  13.187  10.530  0.1052  0.2867 -0.2035
  490DPPI    C3 7659   9.842  13.314  10.702  0.0710 -0.0006  0.0855
  490DPPI   PO4 7660   9.775  13.502  10.138 -0.0393 -0.0393  0.0551
  490DPPI   GL1 7661   9.909  13.691   9.807  0.0900 -0.0908 -0.3506
  490DPPI   GL2 7662   9.701  13.968   9.773 -0.2091 -0.0619  0.3046
  490DPPI   C1A 7663  10.067  13.580   9.408 -0.0043 -0.0629  0.1172
  490DPPI   C2A 7664  10.252  13.533   9.073  0.2996 -0.0600 -0.3896
  490DPPI   C3A 7665  10.358  13.600   8.619 -0.0818  0.1010 -0.0640
  490DPPI   C4A 7666  10.175  13.522   8.307  0.2578  0.1573 -0.0507
  490DPPI   C1B 7667   9.660  13.933   9.363 -0.0114 -0.0303  0.0050
  490DPPI   C2B 7668   9.813  13.681   8.993 -0.1713 -0.0848 -0.0009
  490DPPI   C3B 7669   9.863  13.262   8.848  0.0319  0.0182 -0.1882
  490DPPI   C4B 7670   9.690  13.078   8.545 -0.1972  0.3185  0.5067
  491DPPI    C1 7671   0.076  12.836  10.517 -0.0087  0.1079  0.1036
  491DPPI    C2 7672   0.359  12.578  10.629 -0.0760 -0.0047  0.0161
  491DPPI    C3 7673   0.434  12.970  10.633  0.1171 -0.0388 -0.1086
  491DPPI   PO4 7674  -0.020  12.717  10.285 -0.2291 -0.1913 -0.0712
  491DPPI   GL1 7675  -0.169  12.819   9.847  0.3608  0.1276 -0.0111
  491DPPI   GL2 7676  -0.145  12.560   9.767  0.3589  0.0331  0.3860
  491DPPI   C1A 7677  -0.354  12.921   9.382  0.3340  0.0562  0.0185
  491DPPI   C2A 7678  -0.460  13.074   8.910 -0.2044  0.4327 -0.4125
  491DPPI   C3A 7679  -0.268  13.199   8.535 -0.1696  0.3000 -0.1583
  491DPPI   C4A 7680  -0.246  13.468   8.137  0.1557 -0.4170 -0.5429
  491DPPI   C1B 7681  -0.039  12.458   9.314  0.0730 -0.2625 -0.0953
  491DPPI   C2B 7682  -0.027  12.559   8.927 -0.1811  0.2865 -0.0920
  491DPPI   C3B 7683   0.039  12.771   8.457  0.0481  0.0400 -0.2139
  491DPPI   C4B 7684   0.110  13.014   8.146  0.4085 -0.0886  0.0709
  492DPPI    C1 7685   7.136   3.677  10.361 -0.3534  0.1621 -0.1235
  492DPPI    C2 7686   7.144   3.317  10.537  0.0160  0.1732 -0.1102
  492DPPI    C3 7687   7.172   3.649  10.759  0.0223  0.2002 -0.1510
  492DPPI   PO4 7688   6.976   3.615  10.115 -0.2275  0.2184  0.3750
  492DPPI   GL1 7689   6.788   3.834   9.717 -0.0678  0.2157 -0.2396
  492DPPI   GL2 7690   6.425   3.835   9.669 -0.1135 -0.0929 -0.0319
  492DPPI   C1A 7691   6.868   4.011   9.364 -0.1566  0.2753 -0.0763
  492DPPI   C2A 7692   6.778   4.057   8.906 -0.2185 -0.2173  0.0519
  492DPPI   C3A 7693   6.706   4.394   8.633  0.3068  0.0530  0.0566
  492DPPI   C4A 7694   6.639   4.518   8.252  0.2435 -0.0822  0.0329
  492DPPI   C1B 7695   6.405   4.090   9.253 -0.0996 -0.0437 -0.3886
  492DPPI   C2B 7696   6.277   4.368   8.911 -0.4381 -0.0193  0.1615
  492DPPI   C3B 7697   6.139   4.344   8.452 -0.0318 -0.0431  0.1793
  492DPPI   C4B 7698   6.228   4.291   8.098 -0.1804  0.1861  0.2843
  493DPPI    C1 7699   8.953   1.294  10.374 -0.1167 -0.1373  0.2567
  493DPPI    C2 7700   9.251   1.497  10.547  0.0257 -0.1676  0.0492
  493DPPI    C3 7701   8.907   1.444  10.742  0.0588  0.0996  0.1846
  493DPPI   PO4 7702   8.941   1.360  10.118  0.0677 -0.0536  0.1622
  493DPPI   GL1 7703   9.050   1.379   9.722  0.0129 -0.0151 -0.1620
  493DPPI   GL2 7704   9.263   1.375   9.609  0.1661  0.3240 -0.1785
  493DPPI   C1A 7705   8.968   1.429   9.200 -0.0506  0.0698  0.0234
  493DPPI   C2A 7706   9.005   1.390   8.757  0.0020 -0.0624  0.0098
  493DPPI   C3A 7707   9.150   1.519   8.346 -0.0212  0.0809 -0.5923
  493DPPI   C4A 7708   9.441   1.601   8.045  0.0966 -0.2032  0.0447
  493DPPI   C1B 7709   9.403   1.183   9.289  0.0564 -0.1146  0.1081
  493DPPI   C2B 7710   9.569   1.116   8.856  0.2280  0.1276 -0.1409
  493DPPI   C3B 7711   9.320   1.061   8.560 -0.2171 -0.2224 -0.1989
  493DPPI   C4B 7712   9.302   1.148   8.110  0.2571 -0.4067  0.2530
  494DPPI    C1 7713  16.065  10.943  10.367 -0.1252  0.1979  0.1722
  494DPPI    C2 7714  16.414  11.043  10.535  0.0225  0.1765 -0.1173
  494DPPI    C3 7715  16.084  11.025  10.759  0.2100  0.1738  0.1644
  494DPPI   PO4 7716  16.076  11.082  10.078  0.0056 -0.1256  0.0310
  494DPPI   GL1 7717  16.114  10.994   9.712  0.0558  0.1868  0.1478
  494DPPI   GL2 7718  16.300  10.873   9.539 -0.1119 -0.0362 -0.0425
  494DPPI   C1A 7719  15.855  11.209   9.459  0.1526  0.2174  0.2873
  494DPPI   C2A 7720  15.617  11.096   9.017 -0.1025  0.3399  0.1477
  494DPPI   C3A 7721  15.444  11.100   8.598  0.0393 -0.2176 -0.0854
  494DPPI   C4A 7722  15.622  10.999   8.152 -0.3111  0.2159  0.0187
  494DPPI   C1B 7723  16.187  10.977   9.113 -0.0158 -0.6004 -0.0197
  494DPPI   C2B 7724  16.090  11.078   8.723  0.0123 -0.0338 -0.0205
  494DPPI   C3B 7725  16.102  11.039   8.392  0.0162 -0.2715  0.0167
  494DPPI   C4B 7726  16.096  11.063   7.923  0.0237 -0.0631 -0.1206
  495DPPI    C1 7727  12.173  10.126  10.733  0.0721 -0.1956 -0.1587
  495DPPI    C2 7728  11.911   9.900  10.934  0.0764 -0.2895 -0.2575
  495DPPI    C3 7729  12.177  10.124  11.133 -0.1196 -0.1436 -0.1557
  495DPPI   PO4 7730  12.076  10.286  10.580  0.0314  0.0602  0.0732
  495DPPI   GL1 7731  12.331  10.526  10.310  0.0327  0.0264 -0.0765
  495DPPI   GL2 7732  12.417  10.335  10.005 -0.1160 -0.0431  0.3453
  495DPPI   C1A 7733  12.482  10.838   9.925  0.1099  0.0031 -0.2112
  495DPPI   C2A 7734  12.697  10.726   9.615  0.1514 -0.3101  0.0848
  495DPPI   C3A 7735  12.755  10.657   9.153 -0.1802  0.2700 -0.1741
  495DPPI   C4A 7736  12.672  10.653   8.605 -0.2090 -0.1487  0.0227
  495DPPI   C1B 7737  12.263  10.463   9.656 -0.2027  0.1347 -0.1379
  495DPPI   C2B 7738  12.296  10.413   9.280  0.4702 -0.0685 -0.0552
  495DPPI   C3B 7739  12.284  10.465   8.850 -0.1374 -0.1048  0.0093
  495DPPI   C4B 7740  12.167  10.353   8.445  0.1828 -0.4684  0.0736
  496DPPI    C1 7741   6.976   0.280   9.532  0.3452 -0.0172  0.0719
  496DPPI    C2 7742   6.867   0.285   9.917  0.1271 -0.1336  0.0135
  496DPPI    C3 7743   6.834   0.616   9.695  0.0100 -0.1339  0.0298
  496DPPI   PO4 7744   6.799   0.055   9.420 -0.0480  0.0094  0.1264
  496DPPI   GL1 7745   6.766   0.139   8.983 -0.0557  0.1103 -0.0918
  496DPPI   GL2 7746   6.974  -0.158   8.979 -0.1388 -0.0051 -0.1141
  496DPPI   C1A 7747   6.574   0.341   8.661  0.1543 -0.2901  0.0412
  496DPPI   C2A 7748   6.353   0.652   8.535  0.1119 -0.3218  0.1947
  496DPPI   C3A 7749   6.395   0.674   8.132 -0.0884 -0.0063  0.0839
  496DPPI   C4A 7750   6.674   0.837   7.819  0.0519 -0.0277 -0.1378
  496DPPI   C1B 7751   7.048  -0.150   8.602  0.0168 -0.3038 -0.2127
  496DPPI   C2B 7752   6.829   0.022   8.387 -0.0676  0.1246  0.2305
  496DPPI   C3B 7753   6.490   0.203   8.233 -0.2212  0.2124  0.2062
  496DPPI   C4B 7754   6.070   0.299   8.049 -0.3217 -0.0137  0.1353
  497DPPI    C1 7755   4.175  14.729  10.427  0.0712 -0.0040 -0.0046
  497DPPI    C2 7756   3.924  14.622  10.720 -0.1005 -0.0114 -0.1532
  497DPPI    C3 7757   4.318  14.624  10.786 -0.1459  0.1443  0.1276
  497DPPI   PO4 7758   3.989  14.731  10.207 -0.0377 -0.1709  0.1660
  497DPPI   GL1 7759   3.912  14.786   9.809  0.1764 -0.4581 -0.1799
  497DPPI   GL2 7760   3.622  14.985   9.929  0.0077 -0.1054  0.1602
  497DPPI   C1A 7761   3.898  14.790   9.410 -0.1648 -0.1649  0.1571
  497DPPI   C2A 7762   3.873  15.027   9.022  0.2309  0.2238 -0.0327
  497DPPI   C3A 7763   3.967  14.972   8.635 -0.0683  0.0374 -0.1141
  497DPPI   C4A 7764   4.133  14.574   8.380  0.0810 -0.0145  0.1428
  497DPPI   C1B 7765   3.442  15.030   9.614  0.1183 -0.1450 -0.1265
  497DPPI   C2B 7766   3.507  15.254   9.236 -0.3565  0.0262  0.1601
  497DPPI   C3B 7767   3.593  15.473   8.957  0.2218  0.0493 -0.0940
  497DPPI   C4B 7768   3.603  15.500   8.493  0.0115  0.1659  0.0173
  498DPPI    C1 7769   1.068  15.127  10.415  0.0656  0.4267  0.0168
  498DPPI    C2 7770   0.997  14.972  10.777  0.0832 -0.0854 -0.1906
  498DPPI    C3 7771   1.285  15.246  10.729 -0.1372  0.2314  0.2344
  498DPPI   PO4 7772   0.837  15.176  10.294  0.0914 -0.1310 -0.1201
  498DPPI   GL1 7773   0.630  15.165  10.046 -0.0427 -0.0456 -0.0980
  498DPPI   GL2 7774   0.270  15.083  10.125 -0.1438  0.1107  0.0538
  498DPPI   C1A 7775   0.606  15.324   9.582  0.3002 -0.0782 -0.3002
  498DPPI   C2A 7776   0.530  15.284   9.157  0.0702 -0.2006 -0.0244
  498DPPI   C3A 7777   0.472  15.125   8.717 -0.0469 -0.1234 -0.1300
  498DPPI   C4A 7778   0.456  14.781   8.491  0.2942  0.0287  0.1194
  498DPPI   C1B 7779   0.163  15.045   9.685 -0.0915  0.0645  0.1386
  498DPPI   C2B 7780   0.151  15.019   9.198  0.1831  0.0427 -0.0746
  498DPPI   C3B 7781   0.028  15.005   8.786 -0.2795  0.1378 -0.1971
  498DPPI   C4B 7782  -0.331  15.164   8.529  0.1306  0.1108 -0.1083
  499DPPI    C1 7783   4.736  10.558  10.154  0.0324  0.0472 -0.0686
  499DPPI    C2 7784   4.639  10.170  10.141 -0.0057  0.0623 -0.2812
  499DPPI    C3 7785   5.004  10.281  10.262 -0.0102 -0.0365 -0.1750
  499DPPI   PO4 7786   4.538  10.668  10.222  0.1709 -0.2547 -0.0610
  499DPPI   GL1 7787   4.362  11.051  10.094 -0.1265  0.2271  0.0154
  499DPPI   GL2 7788   4.328  11.301  10.289  0.1461  0.1577  0.0648
  499DPPI   C1A 7789   4.456  11.013   9.669  0.4237 -0.3357  0.0570
  499DPPI   C2A 7790   4.490  11.232   9.259  0.1085 -0.1196 -0.2936
  499DPPI   C3A 7791   4.553  11.200   8.765 -0.2196 -0.0374  0.3877
  499DPPI   C4A 7792   4.569  11.179   8.339 -0.0975  0.1797 -0.0656
  499DPPI   C1B 7793   4.171  11.451   9.935  0.1265 -0.1610  0.2354
  499DPPI   C2B 7794   4.053  11.373   9.553 -0.0674 -0.1162 -0.1226
  499DPPI   C3B 7795   4.049  11.315   9.041 -0.1684 -0.0144 -0.0583
  499DPPI   C4B 7796   3.803  11.097   8.854  0.1711  0.0321  0.1546
  500DPPI    C1 7797   2.539  13.534  10.508 -0.1737  0.1301  0.0519
  500DPPI    C2 7798   2.841  13.535  10.771  0.0447  0.0519 -0.1936
  500DPPI    C3 7799   2.578  13.836  10.767 -0.1411 -0.0935  0.3118
  500DPPI   PO4 7800   2.648  13.479  10.297  0.0611  0.0234  0.2496
  500DPPI   GL1 7801   2.421  13.335   9.973 -0.0518  0.2918 -0.0489
  500DPPI   GL2 7802   2.328  13.691   9.855 -0.3511  0.1160  0.0926
  500DPPI   C1A 7803   2.522  13.336   9.565 -0.3859 -0.1181 -0.0167
  500DPPI   C2A 7804   2.616  13.390   9.166  0.0769  0.0168 -0.0962
  500DPPI   C3A 7805   2.624  13.402   8.719 -0.1234 -0.1353 -0.0645
  500DPPI   C4A 7806   2.559  13.409   8.191  0.0093  0.4488  0.0820
  500DPPI   C1B 7807   2.079  13.551   9.598  0.1229  0.0571 -0.1802
  500DPPI   C2B 7808   1.835  13.441   9.199  0.0380 -0.2906  0.2070
  500DPPI   C3B 7809   1.476  13.347   9.052  0.4230  0.0306 -0.5039
  500DPPI   C4B 7810   1.210  13.082   8.947  0.2187  0.2741  0.1356
  501DPPI    C1 7811   1.837   0.801  10.131  0.4070 -0.0710 -0.0707
  501DPPI    C2 7812   1.785   1.130  10.353 -0.2140 -0.1435 -0.0922
  501DPPI    C3 7813   1.843   0.776  10.531 -0.0557 -0.1030 -0.0614
  501DPPI   PO4 7814   2.135   0.903   9.947 -0.1590  0.2135  0.2585
  501DPPI   GL1 7815   2.338   1.001   9.551  0.0848  0.0861 -0.2890
  501DPPI   GL2 7816   2.644   0.978   9.707 -0.1196 -0.1753 -0.2658
  501DPPI   C1A 7817   2.439   1.032   9.182  0.2857  0.2462 -0.2904
  501DPPI   C2A 7818   2.358   0.750   8.809  0.0431  0.0905 -0.1957
  501DPPI   C3A 7819   2.189   0.498   8.512 -0.3223 -0.3188  0.2488
  501DPPI   C4A 7820   1.978   0.555   8.110  0.0281 -0.1852 -0.0312
  501DPPI   C1B 7821   2.961   1.034   9.381 -0.0029  0.1089  0.2638
  501DPPI   C2B 7822   2.839   0.832   8.888 -0.1468  0.0428  0.2530
  501DPPI   C3B 7823   2.717   0.621   8.395  0.2207  0.0212  0.1684
  501DPPI   C4B 7824   2.863   0.640   7.904  0.0671 -0.1470  0.2092
  502DPPI    C1 7825   1.363  10.619  10.202 -0.0401  0.1316  0.1912
  502DPPI    C2 7826   1.152  10.393  10.455  0.2327 -0.0680  0.2454
  502DPPI    C3 7827   1.276  10.241  10.107  0.2059  0.0783  0.1709
  502DPPI   PO4 7828   1.231  10.810  10.196 -0.0365 -0.4103 -0.1150
  502DPPI   GL1 7829   1.297  11.093   9.865 -0.1185  0.1289 -0.1873
  502DPPI   GL2 7830   1.526  10.890   9.705 -0.0085 -0.1203  0.0850
  502DPPI   C1A 7831   1.353  11.516   9.601  0.1382  0.2582 -0.2021
  502DPPI   C2A 7832   1.236  11.921   9.347  0.0555  0.0287 -0.1869
  502DPPI   C3A 7833   1.065  11.904   8.894  0.1642 -0.1840  0.0108
  502DPPI   C4A 7834   1.074  11.901   8.525 -0.1556 -0.0197 -0.1525
  502DPPI   C1B 7835   1.240  11.085   9.355  0.4073  0.1618 -0.1199
  502DPPI   C2B 7836   1.349  11.160   9.036  0.3354 -0.1402  0.0911
  502DPPI   C3B 7837   1.506  10.910   8.777  0.0736 -0.0422  0.0973
  502DPPI   C4B 7838   1.532  10.727   8.333 -0.0495 -0.3102 -0.2650
  503DPPI    C1 7839  15.274   4.511  10.375 -0.0672 -0.0801 -0.0291
  503DPPI    C2 7840  15.484   4.831  10.490  0.0351 -0.1874  0.0858
  503DPPI    C3 7841  15.084   4.837  10.507  0.0257  0.0211 -0.1419
  503DPPI   PO4 7842  15.330   4.427  10.129 -0.0549 -0.0363 -0.0048
  503DPPI   GL1 7843  15.525   4.571   9.862  0.4625 -0.0786 -0.1589
  503DPPI   GL2 7844  15.411   4.808   9.864 -0.0755  0.0487  0.0632
  503DPPI   C1A 7845  15.484   4.542   9.412  0.2801  0.2075  0.1468
  503DPPI   C2A 7846  15.230   4.613   9.070 -0.1341  0.2909 -0.0838
  503DPPI   C3A 7847  15.142   4.404   8.657 -0.0236 -0.2215  0.0013
  503DPPI   C4A 7848  15.223   4.047   8.315  0.0539 -0.0355  0.0235
  503DPPI   C1B 7849  15.007   4.578   9.589 -0.2188 -0.0292  0.1798
  503DPPI   C2B 7850  14.820   4.257   9.277 -0.0854  0.0831  0.0460
  503DPPI   C3B 7851  14.682   4.322   8.873 -0.3515  0.4472 -0.4522
  503DPPI   C4B 7852  14.717   4.284   8.423 -0.0145  0.1428  0.1396
  504DPPI    C1 7853  13.354   5.822  10.624 -0.0287  0.1072  0.1112
  504DPPI    C2 7854  13.514   5.896  10.983 -0.0797 -0.1603  0.1912
  504DPPI    C3 7855  13.535   5.529  10.827  0.0949 -0.0062 -0.1585
  504DPPI   PO4 7856  13.269   6.129  10.578  0.0644 -0.0617 -0.1273
  504DPPI   GL1 7857  13.164   6.203  10.156 -0.0048  0.2006  0.0653
  504DPPI   GL2 7858  13.320   6.419  10.121 -0.1339  0.0165  0.0908
  504DPPI   C1A 7859  13.126   6.246   9.657  0.2415 -0.0315 -0.1040
  504DPPI   C2A 7860  13.239   6.428   9.332  0.1917  0.3328  0.0062
  504DPPI   C3A 7861  13.100   6.122   9.057 -0.2587  0.1906 -0.0153
  504DPPI   C4A 7862  13.007   6.227   8.635  0.1801  0.0210  0.0713
  504DPPI   C1B 7863  13.491   6.727   9.715  0.1550  0.0068 -0.1221
  504DPPI   C2B 7864  13.687   6.556   9.373 -0.3768  0.0947  0.1339
  504DPPI   C3B 7865  13.537   6.335   8.968  0.0670 -0.0647 -0.1908
  504DPPI   C4B 7866  13.512   6.347   8.559 -0.0299 -0.2909  0.1013
  505DPPI    C1 7867   5.540  17.873  10.441  0.1504 -0.0554 -0.0579
  505DPPI    C2 7868   5.774  18.160  10.291  0.0702  0.0010 -0.0756
  505DPPI    C3 7869   5.723  18.130  10.687  0.2484 -0.1216 -0.0606
  505DPPI   PO4 7870   5.310  17.815  10.334  0.1784  0.1054 -0.0247
  505DPPI   GL1 7871   5.137  17.595   9.895 -0.1149  0.0694  0.0331
  505DPPI   GL2 7872   5.351  17.481   9.808 -0.2630 -0.1114 -0.1205
  505DPPI   C1A 7873   4.940  17.782   9.613 -0.1431  0.1536  0.0042
  505DPPI   C2A 7874   4.856  17.916   9.203  0.1410  0.0985 -0.1449
  505DPPI   C3A 7875   4.936  17.847   8.727 -0.1367  0.0210  0.0343
  505DPPI   C4A 7876   5.000  17.862   8.307 -0.2725 -0.0972 -0.3454
  505DPPI   C1B 7877   5.287  17.546   9.319  0.0650 -0.0617  0.0965
  505DPPI   C2B 7878   5.145  17.387   8.881  0.0973 -0.1869  0.3747
  505DPPI   C3B 7879   5.015  17.378   8.435  0.0264  0.2077 -0.0886
  505DPPI   C4B 7880   4.972  17.188   8.091  0.2053  0.1435  0.2231
  506DPPI    C1 7881  11.707   4.225  10.623  0.0485 -0.2343 -0.2873
  506DPPI    C2 7882  11.730   3.978  10.937 -0.2623 -0.1441 -0.1898
  506DPPI    C3 7883  11.926   4.327  10.942 -0.0611 -0.2549 -0.2052
  506DPPI   PO4 7884  11.666   4.061  10.431  0.0488 -0.0819  0.0178
  506DPPI   GL1 7885  11.559   3.940   9.886  0.3482 -0.1982  0.1254
  506DPPI   GL2 7886  11.244   3.853   9.948  0.0715  0.0408  0.3154
  506DPPI   C1A 7887  11.640   3.769   9.486 -0.2505 -0.4203 -0.0208
  506DPPI   C2A 7888  11.678   3.745   9.033  0.4487 -0.0431  0.2392
  506DPPI   C3A 7889  11.711   3.734   8.517  0.1719 -0.0408  0.0015
  506DPPI   C4A 7890  11.545   3.987   8.053 -0.0883  0.2400 -0.2057
  506DPPI   C1B 7891  11.160   3.768   9.559  0.1467  0.0053 -0.1919
  506DPPI   C2B 7892  11.132   3.558   9.123 -0.0245  0.0708  0.0595
  506DPPI   C3B 7893  11.217   3.441   8.792 -0.1965 -0.0762  0.4372
  506DPPI   C4B 7894  11.110   3.160   8.562 -0.2240 -0.1175  0.0603
  507DPPI    C1 7895  10.929   4.409  10.489  0.1475 -0.0579 -0.1274
  507DPPI    C2 7896  11.215   4.192  10.312  0.0657 -0.1422 -0.1578
  507DPPI    C3 7897  11.303   4.549  10.471  0.1556 -0.0997 -0.3012
  507DPPI   PO4 7898  10.807   4.545  10.263  0.0324 -0.1113 -0.2376
  507DPPI   GL1 7899  10.994   4.754   9.925 -0.0598 -0.0696 -0.0263
  507DPPI   GL2 7900  11.283   4.721  10.003  0.0011 -0.1521  0.0494
  507DPPI   C1A 7901  11.060   4.640   9.482 -0.1269 -0.2860  0.0405
  507DPPI   C2A 7902  11.028   4.485   9.086  0.0360  0.1793  0.1351
  507DPPI   C3A 7903  11.140   4.546   8.706  0.0912  0.2392 -0.0282
  507DPPI   C4A 7904  11.188   4.300   8.315  0.1099  0.0200 -0.0915
  507DPPI   C1B 7905  11.542   4.474   9.728 -0.1823 -0.0800 -0.1705
  507DPPI   C2B 7906  11.529   4.289   9.329  0.0524 -0.0581  0.0214
  507DPPI   C3B 7907  11.567   4.316   8.999 -0.0028 -0.0082 -0.1699
  507DPPI   C4B 7908  11.646   4.355   8.574 -0.3106  0.2344  0.0867
  508DPPI    C1 7909  11.625   9.516  10.484 -0.1623  0.2237  0.3506
  508DPPI    C2 7910  11.615   9.805  10.207  0.0009 -0.0698  0.0305
  508DPPI    C3 7911  11.929   9.773  10.453  0.0952 -0.1187 -0.0951
  508DPPI   PO4 7912  11.313   9.421  10.438 -0.0932  0.0180  0.3630
  508DPPI   GL1 7913  11.426   9.265  10.000 -0.1597 -0.1774  0.1083
  508DPPI   GL2 7914  11.758   9.362   9.957  0.2078 -0.0192 -0.0256
  508DPPI   C1A 7915  11.271   9.640   9.705 -0.1301  0.0185 -0.0460
  508DPPI   C2A 7916  11.330   9.820   9.319  0.0561  0.0945  0.1966
  508DPPI   C3A 7917  11.110  10.012   9.036 -0.0917 -0.1022  0.0075
  508DPPI   C4A 7918  11.100   9.946   8.661 -0.0063 -0.1505 -0.0127
  508DPPI   C1B 7919  11.690   9.310   9.520 -0.0042 -0.1119  0.1246
  508DPPI   C2B 7920  11.559   9.258   9.209  0.1345 -0.0763 -0.0406
  508DPPI   C3B 7921  11.519   9.332   8.849 -0.1780 -0.1688  0.0269
  508DPPI   C4B 7922  11.497   9.774   8.853 -0.1216 -0.1187  0.2029
  509DPPI    C1 7923  12.408  11.732  10.778  0.0488 -0.2090  0.0101
  509DPPI    C2 7924  12.764  11.824  10.934  0.0501 -0.1874 -0.0055
  509DPPI    C3 7925  12.430  11.906  11.137  0.0499 -0.1203 -0.0327
  509DPPI   PO4 7926  12.441  11.730  10.522  0.1549 -0.0365  0.0406
  509DPPI   GL1 7927  12.616  11.684  10.185 -0.1316 -0.2048  0.1567
  509DPPI   GL2 7928  12.397  11.908  10.022 -0.2422  0.0257  0.1392
  509DPPI   C1A 7929  12.601  11.386   9.873 -0.0187 -0.1967 -0.1414
  509DPPI   C2A 7930  12.553  11.293   9.454  0.4544  0.0966 -0.1940
  509DPPI   C3A 7931  12.586  11.214   9.005  0.0355  0.1293 -0.0842
  509DPPI   C4A 7932  12.610  11.136   8.584  0.0809  0.1007 -0.2199
  509DPPI   C1B 7933  12.507  11.835   9.558 -0.1343  0.1182  0.3111
  509DPPI   C2B 7934  12.489  11.761   9.114 -0.1490 -0.0107  0.1514
  509DPPI   C3B 7935  12.727  11.624   8.792  0.3011 -0.0985  0.0670
  509DPPI   C4B 7936  12.714  11.515   8.354  0.0774  0.2796  0.0147
  510DPPI    C1 7937  13.076   4.952  10.439 -0.1937  0.0166  0.1964
  510DPPI    C2 7938  13.352   5.057  10.708 -0.0629 -0.0386  0.0847
  510DPPI    C3 7939  13.074   5.321  10.594 -0.0154  0.0392  0.1474
  510DPPI   PO4 7940  13.092   4.646  10.523 -0.1378 -0.4659  0.1272
  510DPPI   GL1 7941  13.287   4.482  10.191  0.1787 -0.1682  0.2549
  510DPPI   GL2 7942  13.025   4.391  10.090 -0.1724 -0.2367  0.2744
  510DPPI   C1A 7943  13.508   4.504   9.815  0.0089  0.2548  0.0370
  510DPPI   C2A 7944  13.646   4.476   9.428  0.0270  0.0786  0.0403
  510DPPI   C3A 7945  13.749   4.240   9.137 -0.1054 -0.0710 -0.0419
  510DPPI   C4A 7946  13.842   4.286   8.808  0.2422  0.0117 -0.2848
  510DPPI   C1B 7947  12.830   4.670   9.769 -0.1766 -0.0720  0.3189
  510DPPI   C2B 7948  12.820   4.702   9.280 -0.0444  0.2500  0.1926
  510DPPI   C3B 7949  12.883   4.734   8.897  0.2656 -0.1870 -0.1554
  510DPPI   C4B 7950  13.043   4.804   8.451 -0.0052  0.0972 -0.0059
  511DPPI    C1 7951  15.988  15.670  10.326 -0.1588 -0.3865 -0.3284
  511DPPI    C2 7952  15.634  15.835  10.239 -0.1068 -0.0762  0.0218
  511DPPI    C3 7953  15.665  15.576  10.543  0.0118  0.0964  0.1588
  511DPPI   PO4 7954  16.079  15.666  10.054 -0.0027 -0.2101 -0.0376
  511DPPI   GL1 7955  16.031  15.705   9.716  0.0770  0.0889 -0.0166
  511DPPI   GL2 7956  15.959  15.315   9.683 -0.0074 -0.4049  0.0858
  511DPPI   C1A 7957  15.975  15.885   9.351 -0.0750  0.0872  0.1868
  511DPPI   C2A 7958  15.786  15.810   8.954  0.0960 -0.2027 -0.1762
  511DPPI   C3A 7959  15.811  15.662   8.517 -0.0501  0.1614 -0.1500
  511DPPI   C4A 7960  15.514  15.563   8.093 -0.1567 -0.2777  0.2180
  511DPPI   C1B 7961  15.895  15.327   9.186  0.0841 -0.1179 -0.0186
  511DPPI   C2B 7962  15.817  15.232   8.766  0.3388  0.3104 -0.0122
  511DPPI   C3B 7963  15.576  15.141   8.402  0.3954  0.1456  0.0468
  511DPPI   C4B 7964  15.380  14.884   8.119  0.1546 -0.0206 -0.2927
  512DPPI    C1 7965  12.565  16.862  11.012 -0.1899  0.0098  0.1333
  512DPPI    C2 7966  12.809  16.703  11.285  0.0328 -0.1364 -0.1455
  512DPPI    C3 7967  12.943  16.990  11.040 -0.1978  0.0721 -0.0321
  512DPPI   PO4 7968  12.452  16.529  10.798  0.2616  0.1059 -0.2689
  512DPPI   GL1 7969  12.497  16.387  10.350 -0.0605 -0.1112  0.0486
  512DPPI   GL2 7970  12.752  16.298  10.219 -0.0559 -0.0024 -0.0789
  512DPPI   C1A 7971  12.136  16.584  10.209 -0.0915  0.2051  0.0375
  512DPPI   C2A 7972  11.826  16.766   9.892  0.2785  0.3169  0.0206
  512DPPI   C3A 7973  11.608  16.927   9.514  0.2427 -0.0420 -0.0752
  512DPPI   C4A 7974  11.407  17.247   9.229  0.0478 -0.3277  0.1449
  512DPPI   C1B 7975  12.788  16.396   9.747  0.0891  0.2219  0.2965
  512DPPI   C2B 7976  12.910  16.877   9.636 -0.2517  0.3290  0.0095
  512DPPI   C3B 7977  13.276  17.063   9.349 -0.0626 -0.2256  0.1527
  512DPPI   C4B 7978  13.563  17.208   9.158  0.2820 -0.3412 -0.0004
  513PYPI    C1 7979   5.532  11.261  10.520 -0.1654 -0.1196 -0.1785
  513PYPI    C2 7980   5.733  11.010  10.282 -0.1513 -0.3039  0.0246
  513PYPI    C3 7981   5.932  11.247  10.537 -0.1714 -0.1774 -0.0760
  513PYPI   PO4 7982   5.353  11.353  10.349  0.1112  0.0118  0.1415
  513PYPI   GL1 7983   5.344  11.219   9.967  0.2426 -0.0510  0.0989
  513PYPI   GL2 7984   5.543  11.140   9.806  0.0381  0.2183 -0.1760
  513PYPI   C1A 7985   5.337  11.487   9.576  0.1529 -0.3240 -0.0723
  513PYPI   C2A 7986   5.451  11.489   9.077 -0.2879 -0.2423 -0.2059
  513PYPI   D3A 7987   5.442  11.540   8.659  0.3699 -0.1180  0.1222
  513PYPI   C4A 7988   5.431  11.466   8.244  0.0297  0.5851 -0.1252
  513PYPI   C1B 7989   5.606  11.011   9.380 -0.1678 -0.0757 -0.0229
  513PYPI   C2B 7990   5.779  11.057   8.990 -0.2147 -0.1573 -0.0845
  513PYPI   C3B 7991   5.896  11.309   8.606 -0.3068  0.2988 -0.0473
  513PYPI   C4B 7992   5.996  11.374   8.230 -0.1465 -0.2360  0.3668
  514PYPI    C1 7993   2.586  15.808  10.982  0.1503 -0.1426 -0.2351
  514PYPI    C2 7994   2.848  15.838  11.283  0.0647 -0.2623 -0.1478
  514PYPI    C3 7995   2.608  15.519  11.258  0.0920 -0.2676 -0.3601
  514PYPI   PO4 7996   2.777  15.931  10.788 -0.1677  0.1152 -0.0382
  514PYPI   GL1 7997   2.745  15.904  10.317 -0.2576  0.2453  0.0985
  514PYPI   GL2 7998   2.387  16.016  10.090 -0.0714 -0.0394 -0.1559
  514PYPI   C1A 7999   2.855  15.910   9.866  0.0809 -0.1543  0.1549
  514PYPI   C2A 8000   2.957  16.114   9.498  0.2530  0.1901 -0.0646
  514PYPI   D3A 8001   2.906  16.262   9.165 -0.2354  0.1447  0.0157
  514PYPI   C4A 8002   2.913  16.065   8.739 -0.1739  0.1801  0.0154
  514PYPI   C1B 8003   2.454  16.071   9.601  0.1729 -0.0302  0.2157
  514PYPI   C2B 8004   2.518  15.898   9.107 -0.0458 -0.2245  0.0712
  514PYPI   C3B 8005   2.603  15.674   8.729 -0.0780  0.0100  0.0421
  514PYPI   C4B 8006   2.247  15.745   8.489  0.2424 -0.1162  0.0068
  515PYPI    C1 8007   4.989   7.113   9.760  0.0640  0.0221 -0.0567
  515PYPI    C2 8008   4.839   7.032  10.122  0.2868 -0.0801  0.0144
  515PYPI    C3 8009   4.995   7.393  10.046 -0.1073  0.0712 -0.1000
  515PYPI   PO4 8010   4.834   7.069   9.557  0.3662  0.1479  0.1357
  515PYPI   GL1 8011   4.833   7.112   9.070  0.0083 -0.1586 -0.0981
  515PYPI   GL2 8012   4.533   7.162   9.085 -0.2532 -0.2114  0.1802
  515PYPI   C1A 8013   4.871   7.324   8.759  0.1279 -0.2121  0.0889
  515PYPI   C2A 8014   4.762   7.389   8.343 -0.2259  0.1340 -0.0056
  515PYPI   D3A 8015   4.531   7.451   7.968  0.1643  0.0270 -0.1828
  515PYPI   C4A 8016   4.554   7.742   7.729  0.0353 -0.1887  0.2555
  515PYPI   C1B 8017   4.354   7.276   8.737  0.0515  0.1202  0.1825
  515PYPI   C2B 8018   4.284   7.133   8.312 -0.0350 -0.0056  0.0894
  515PYPI   C3B 8019   4.141   7.204   7.864  0.1154 -0.3229 -0.3489
  515PYPI   C4B 8020   4.225   7.444   7.538  0.1069 -0.0886  0.0364
  516PYPI    C1 8021  16.872  11.346  10.285  0.3511  0.1151 -0.1704
  516PYPI    C2 8022  17.079  11.548  10.561  0.1994 -0.0074  0.0359
  516PYPI    C3 8023  16.991  11.162  10.620 -0.0239  0.0239 -0.0826
  516PYPI   PO4 8024  16.950  11.320  10.030 -0.1644 -0.0436  0.0114
  516PYPI   GL1 8025  16.657  11.211   9.777 -0.0229 -0.5151  0.2930
  516PYPI   GL2 8026  16.722  11.615   9.727  0.1675 -0.2039  0.3194
  516PYPI   C1A 8027  16.777  10.971   9.391  0.3643  0.0135  0.0390
  516PYPI   C2A 8028  16.684  10.896   9.054 -0.2274  0.2619  0.1590
  516PYPI   D3A 8029  16.557  10.959   8.604 -0.7887 -0.2930 -0.0423
  516PYPI   C4A 8030  16.866  10.966   8.259  0.1496 -0.0213  0.1965
  516PYPI   C1B 8031  16.911  11.775   9.369 -0.0199 -0.0624  0.0208
  516PYPI   C2B 8032  17.002  11.880   8.990  0.1692  0.0871  0.1003
  516PYPI   C3B 8033  17.146  11.858   8.515 -0.3866 -0.0077 -0.0077
  516PYPI   C4B 8034  17.136  11.914   8.090  0.0725  0.0054  0.1751
  517PYPI    C1 8035  14.531   4.498  10.503  0.0700 -0.0660  0.2323
  517PYPI    C2 8036  14.606   4.885  10.439 -0.0873 -0.0829 -0.0755
  517PYPI    C3 8037  14.628   4.735  10.809 -0.4595  0.3162  0.1184
  517PYPI   PO4 8038  14.700   4.411  10.341  0.0960 -0.2107  0.1922
  517PYPI   GL1 8039  14.858   4.272  10.038 -0.0656  0.0780 -0.0312
  517PYPI   GL2 8040  14.598   4.394   9.756  0.2202 -0.0177 -0.0058
  517PYPI   C1A 8041  15.114   4.121   9.661  0.0754 -0.5055 -0.1172
  517PYPI   C2A 8042  15.267   3.950   9.387  0.2267  0.2728  0.2932
  517PYPI   D3A 8043  15.271   3.923   8.941  0.2179  0.2183 -0.1576
  517PYPI   C4A 8044  15.576   4.159   8.721 -0.0990 -0.0631  0.0602
  517PYPI   C1B 8045  14.316   4.219   9.462 -0.0073  0.0298  0.0735
  517PYPI   C2B 8046  14.256   4.214   9.029  0.1448 -0.0433 -0.1018
  517PYPI   C3B 8047  14.210   4.002   8.638  0.1633  0.1962  0.0313
  517PYPI   C4B 8048  14.311   3.831   8.288 -0.4271  0.0083 -0.2044
  518PYPI    C1 8049  16.768   8.656  10.552  0.1302 -0.0879  0.0801
  518PYPI    C2 8050  16.566   8.326  10.654 -0.1942  0.0722 -0.0299
  518PYPI    C3 8051  16.603   8.627  10.915 -0.2385  0.1097 -0.0668
  518PYPI   PO4 8052  16.674   8.656  10.253  0.3168 -0.4284 -0.5763
  518PYPI   GL1 8053  16.516   8.700   9.891 -0.1848  0.1468  0.0091
  518PYPI   GL2 8054  16.145   8.856  10.048 -0.0463  0.1732 -0.1202
  518PYPI   C1A 8055  16.741   8.721   9.524  0.0248  0.3068  0.0042
  518PYPI   C2A 8056  17.027   8.488   9.315  0.0173  0.0951 -0.0956
  518PYPI   D3A 8057  17.156   8.501   8.846 -0.2557  0.2607 -0.2296
  518PYPI   C4A 8058  16.913   8.491   8.451 -0.1135 -0.0989 -0.0218
  518PYPI   C1B 8059  16.172   8.643   9.604  0.0119 -0.0436  0.1180
  518PYPI   C2B 8060  16.306   8.542   9.288  0.0508 -0.0268 -0.0177
  518PYPI   C3B 8061  16.571   8.308   9.135 -0.1314 -0.2592  0.0387
  518PYPI   C4B 8062  16.707   8.107   8.624  0.4727  0.0570  0.0892
  519PYPI    C1 8063   9.858  17.034  10.247 -0.0554 -0.2685  0.0339
  519PYPI    C2 8064  10.106  16.730  10.325  0.0369 -0.1815  0.0822
  519PYPI    C3 8065  10.251  17.078  10.192 -0.0657 -0.1497  0.0522
  519PYPI   PO4 8066   9.724  16.928  10.020  0.1850  0.1281 -0.1210
  519PYPI   GL1 8067   9.960  16.996   9.668  0.1670 -0.1563 -0.0294
  519PYPI   GL2 8068  10.208  16.747   9.832 -0.2522 -0.3276  0.0672
  519PYPI   C1A 8069  10.073  16.906   9.242  0.2008  0.0919 -0.0573
  519PYPI   C2A 8070  10.109  16.796   8.893  0.0416  0.1060  0.1671
  519PYPI   D3A 8071  10.231  16.608   8.499  0.0091  0.0311 -0.1281
  519PYPI   C4A 8072  10.475  16.825   8.241  0.1181  0.2974  0.0821
  519PYPI   C1B 8073  10.216  16.524   9.435  0.1304 -0.2073  0.1627
  519PYPI   C2B 8074  10.346  16.324   9.034 -0.2336 -0.0191  0.0209
  519PYPI   C3B 8075  10.461  15.973   8.928  0.0403 -0.0199 -0.0906
  519PYPI   C4B 8076  10.489  15.537   8.734 -0.2602  0.0714  0.0059
  520PYPI    C1 8077  18.127  17.097  10.814  0.2361  0.0538 -0.2227
  520PYPI    C2 8078  17.971  17.397  10.600  0.1875  0.1892 -0.0012
  520PYPI    C3 8079  18.245  17.473  10.881  0.3703 -0.0056 -0.1232
  520PYPI   PO4 8080  18.267  16.947  10.692  0.2849  0.2429 -0.0433
  520PYPI   GL1 8081  18.319  16.739  10.301  0.1739 -0.3831  0.2873
  520PYPI   GL2 8082  17.938  16.811  10.344  0.2994  0.0425  0.0712
  520PYPI   C1A 8083  18.334  16.706   9.796 -0.2492  0.1505 -0.1287
  520PYPI   C2A 8084  18.420  16.569   9.504  0.2367 -0.2333 -0.1439
  520PYPI   D3A 8085  18.319  16.505   9.084 -0.0149  0.2091  0.0825
  520PYPI   C4A 8086  18.425  16.496   8.661 -0.0124  0.0152 -0.5946
  520PYPI   C1B 8087  17.850  16.705   9.951  0.2182  0.0969 -0.1914
  520PYPI   C2B 8088  17.892  16.769   9.437  0.0223  0.0530  0.0050
  520PYPI   C3B 8089  17.866  16.864   9.011  0.0862  0.2415 -0.0759
  520PYPI   C4B 8090  18.241  16.955   8.699 -0.0300  0.3363  0.1230
  521PYPI    C1 8091   5.944   1.495  10.438 -0.0037 -0.1638 -0.0495
  521PYPI    C2 8092   6.329   1.469  10.543 -0.0437 -0.1510  0.1031
  521PYPI    C3 8093   6.057   1.587  10.811 -0.1539 -0.1589 -0.0046
  521PYPI   PO4 8094   6.025   1.506  10.121 -0.4252  0.0271 -0.0892
  521PYPI   GL1 8095   6.023   1.403   9.667 -0.1716  0.2155 -0.0501
  521PYPI   GL2 8096   6.273   1.603   9.695 -0.2215 -0.2173  0.0442
  521PYPI   C1A 8097   6.171   1.564   9.174 -0.0654  0.4560 -0.1592
  521PYPI   C2A 8098   6.136   1.675   8.792  0.0025 -0.1367  0.0786
  521PYPI   D3A 8099   6.285   1.812   8.349  0.0187  0.0152 -0.3217
  521PYPI   C4A 8100   6.336   2.112   8.102 -0.0758  0.0258  0.0313
  521PYPI   C1B 8101   6.430   1.852   9.493  0.3348  0.0852  0.1695
  521PYPI   C2B 8102   6.235   2.073   9.079 -0.1046 -0.0254 -0.2847
  521PYPI   C3B 8103   6.065   2.220   8.605  0.1307  0.1161 -0.2741
  521PYPI   C4B 8104   5.629   2.398   8.308 -0.3311  0.3626  0.4202
  522PYPI    C1 8105   3.891   5.010  10.361  0.0671 -0.0607  0.0014
  522PYPI    C2 8106   3.533   5.167  10.445  0.0041 -0.2365  0.0658
  522PYPI    C3 8107   3.860   5.308  10.627 -0.0250 -0.0427 -0.0291
  522PYPI   PO4 8108   3.766   4.739  10.339 -0.0542 -0.1390 -0.1037
  522PYPI   GL1 8109   3.483   4.809  10.044  0.1832  0.0492 -0.2772
  522PYPI   GL2 8110   3.461   5.095   9.925  0.2405 -0.2263  0.2489
  522PYPI   C1A 8111   3.373   4.680   9.687  0.0549 -0.3889 -0.1012
  522PYPI   C2A 8112   3.203   4.708   9.343 -0.1233  0.0235  0.0460
  522PYPI   D3A 8113   3.140   4.715   8.904 -0.3239 -0.1303 -0.1052
  522PYPI   C4A 8114   2.975   4.822   8.642  0.0434  0.0303  0.0263
  522PYPI   C1B 8115   3.651   5.014   9.478  0.0300 -0.0416 -0.0392
  522PYPI   C2B 8116   3.488   5.054   9.172  0.0902 -0.3687  0.0788
  522PYPI   C3B 8117   3.511   5.041   8.703  0.2715  0.3134  0.0965
  522PYPI   C4B 8118   3.820   5.331   8.420 -0.1439  0.0524 -0.0410
  523PYPI    C1 8119   4.410   6.105  10.040  0.0148  0.1939 -0.0655
  523PYPI    C2 8120   4.605   5.826  10.250  0.0893  0.2179 -0.1026
  523PYPI    C3 8121   4.366   6.087  10.437  0.1231  0.2131 -0.0524
  523PYPI   PO4 8122   4.530   6.245   9.851  0.1475  0.0626 -0.0653
  523PYPI   GL1 8123   4.300   6.375   9.520 -0.1450 -0.1128  0.0422
  523PYPI   GL2 8124   4.294   6.009   9.489 -0.2160  0.0183  0.0261
  523PYPI   C1A 8125   4.205   6.352   9.128 -0.0431  0.1216  0.4202
  523PYPI   C2A 8126   4.160   6.264   8.707  0.1376  0.0687  0.3412
  523PYPI   D3A 8127   4.288   6.293   8.362  0.0921 -0.0680  0.1774
  523PYPI   C4A 8128   4.106   6.243   7.938 -0.3300 -0.2038 -0.2701
  523PYPI   C1B 8129   4.191   5.830   9.018 -0.0354  0.1849 -0.3199
  523PYPI   C2B 8130   4.011   5.736   8.671  0.2379  0.1090 -0.0584
  523PYPI   C3B 8131   4.016   5.828   8.271  0.0774 -0.0141  0.4672
  523PYPI   C4B 8132   3.990   5.657   7.839  0.0611  0.2274  0.2976
  524PYPI    C1 8133  11.327   7.548  10.394 -0.1851 -0.1457  0.0564
  524PYPI    C2 8134  11.046   7.763  10.581 -0.2842 -0.0953 -0.1479
  524PYPI    C3 8135  10.946   7.529  10.272 -0.1042 -0.0892 -0.2120
  524PYPI   PO4 8136  11.487   7.738  10.330 -0.0816  0.1415 -0.0518
  524PYPI   GL1 8137  11.448   7.699   9.932  0.2332  0.1163 -0.0487
  524PYPI   GL2 8138  11.250   7.764   9.877 -0.0806  0.0868  0.0006
  524PYPI   C1A 8139  11.870   7.793   9.690 -0.0220  0.0536  0.2535
  524PYPI   C2A 8140  11.911   7.811   9.243  0.5222 -0.1870 -0.1075
  524PYPI   D3A 8141  11.760   7.831   8.765 -0.1023  0.1288  0.4361
  524PYPI   C4A 8142  11.875   8.186   8.580  0.3263 -0.0410 -0.0727
  524PYPI   C1B 8143  11.370   7.975   9.485 -0.0791 -0.1669  0.2325
  524PYPI   C2B 8144  11.607   8.209   9.139 -0.0559  0.3324 -0.0402
  524PYPI   C3B 8145  11.974   8.513   9.013 -0.2120 -0.1381 -0.0539
  524PYPI   C4B 8146  12.366   8.752   8.872  0.2008  0.1341  0.2122
  525PYPI    C1 8147   0.094   7.102  10.523 -0.0861  0.2020 -0.2604
  525PYPI    C2 8148   0.352   7.056  10.221  0.1677  0.1011 -0.0323
  525PYPI    C3 8149   0.487   7.127  10.591 -0.1287 -0.0343  0.1059
  525PYPI   PO4 8150  -0.070   7.333  10.405  0.3366 -0.1677 -0.1460
  525PYPI   GL1 8151   0.051   7.426   9.953 -0.3985  0.1073 -0.1130
  525PYPI   GL2 8152  -0.154   7.553   9.705 -0.2843 -0.0986 -0.1401
  525PYPI   C1A 8153   0.491   7.389   9.656 -0.0507 -0.1533 -0.0507
  525PYPI   C2A 8154   0.651   7.450   9.212  0.4061  0.0032  0.2005
  525PYPI   D3A 8155   0.738   7.575   8.857 -0.0340  0.3113  0.2146
  525PYPI   C4A 8156   0.904   7.855   8.587 -0.0593  0.0648 -0.0313
  525PYPI   C1B 8157  -0.263   7.491   9.243  0.0756  0.2107  0.4696
  525PYPI   C2B 8158  -0.226   7.446   8.820  0.4942  0.1523  0.1141
  525PYPI   C3B 8159  -0.261   7.433   8.462  0.1600  0.3835 -0.0118
  525PYPI   C4B 8160  -0.197   7.577   8.015 -0.0802  0.0372  0.0534
  526PYPI    C1 8161  16.177   1.238  10.634  0.2633  0.3312 -0.0055
  526PYPI    C2 8162  16.505   1.217  10.862  0.1844  0.2091  0.0983
  526PYPI    C3 8163  16.278   0.893  10.808  0.2999  0.1895 -0.3028
  526PYPI   PO4 8164  16.134   1.348  10.442  0.1827  0.1465 -0.4458
  526PYPI   GL1 8165  16.252   1.385  10.070 -0.1139  0.3490 -0.2450
  526PYPI   GL2 8166  16.509   1.570  10.115 -0.0027  0.2119  0.0058
  526PYPI   C1A 8167  16.094   1.292   9.730 -0.4983 -0.0437 -0.2306
  526PYPI   C2A 8168  16.050   1.188   9.334 -0.0639  0.2421 -0.0213
  526PYPI   D3A 8169  15.973   1.143   8.788 -0.0867 -0.0865  0.0982
  526PYPI   C4A 8170  15.841   0.704   8.642 -0.0237 -0.3096  0.1464
  526PYPI   C1B 8171  16.475   1.740   9.688  0.1054  0.1823 -0.0599
  526PYPI   C2B 8172  16.499   1.783   9.207  0.1875 -0.2047 -0.0801
  526PYPI   C3B 8173  16.750   1.772   8.875  0.0109 -0.0520 -0.0312
  526PYPI   C4B 8174  16.642   1.711   8.480 -0.4699 -0.0009 -0.2650
  527PYPI    C1 8175   5.235  10.864  10.292  0.1604  0.1258  0.0393
  527PYPI    C2 8176   5.362  10.751  10.654  0.0593 -0.2102 -0.0269
  527PYPI    C3 8177   4.981  10.692  10.548  0.0728 -0.0559 -0.1661
  527PYPI   PO4 8178   5.343  10.730  10.099  0.2049 -0.0758 -0.2918
  527PYPI   GL1 8179   5.220  10.517   9.665  0.0916  0.2553 -0.0175
  527PYPI   GL2 8180   4.935  10.821   9.796 -0.1246 -0.0342  0.2874
  527PYPI   C1A 8181   5.366  10.496   9.199 -0.0664 -0.2414  0.3576
  527PYPI   C2A 8182   5.512  10.580   8.854 -0.0040 -0.4033  0.2049
  527PYPI   D3A 8183   5.450  10.540   8.437 -0.0567  0.1888 -0.0482
  527PYPI   C4A 8184   5.738  10.553   7.966 -0.2159  0.4576 -0.1339
  527PYPI   C1B 8185   5.137  10.990   9.499  0.1890  0.1599  0.0912
  527PYPI   C2B 8186   5.276  10.947   9.047  0.1711  0.1321  0.1669
  527PYPI   C3B 8187   5.437  11.035   8.579  0.2091  0.0462  0.0304
  527PYPI   C4B 8188   5.467  10.979   8.124 -0.2650  0.1000  0.0725
  528PYPI    C1 8189  16.070  10.428  10.601  0.1623 -0.1391 -0.1332
  528PYPI    C2 8190  16.318  10.619  10.849 -0.0195  0.0232 -0.0736
  528PYPI    C3 8191  15.934  10.572  10.948 -0.0730  0.0068 -0.2834
  528PYPI   PO4 8192  16.130  10.437  10.413 -0.2079 -0.1395  0.0559
  528PYPI   GL1 8193  16.242  10.532  10.102  0.0769 -0.1498  0.1438
  528PYPI   GL2 8194  16.480  10.464   9.869 -0.2131  0.2697  0.0247
  528PYPI   C1A 8195  15.983  10.420   9.686  0.0355  0.2030  0.0210
  528PYPI   C2A 8196  15.908  10.608   9.293 -0.1475 -0.1583  0.2022
  528PYPI   D3A 8197  15.904  10.650   8.817 -0.0980  0.1245  0.0978
  528PYPI   C4A 8198  16.177  10.576   8.568  0.1864 -0.2798 -0.1898
  528PYPI   C1B 8199  16.518  10.438   9.503 -0.0351 -0.0464 -0.0598
  528PYPI   C2B 8200  16.422  10.478   9.116 -0.0307  0.2539 -0.1548
  528PYPI   C3B 8201  16.575  10.410   8.742  0.1047 -0.0744  0.0681
  528PYPI   C4B 8202  16.605  10.201   8.345 -0.0491 -0.2959  0.0574
  529PYPI    C1 8203   3.000  12.815  10.900 -0.1212  0.0195 -0.1857
  529PYPI    C2 8204   3.294  12.549  10.846  0.0024  0.1499 -0.1608
  529PYPI    C3 8205   2.915  12.424  10.877  0.0726 -0.0340 -0.0215
  529PYPI   PO4 8206   3.022  13.063  10.662  0.0182  0.2586  0.0972
  529PYPI   GL1 8207   2.893  13.043  10.231 -0.3799 -0.1838  0.1007
  529PYPI   GL2 8208   3.201  13.034  10.133 -0.2595 -0.3483  0.2382
  529PYPI   C1A 8209   2.690  12.695  10.066  0.0721 -0.0950 -0.1606
  529PYPI   C2A 8210   2.579  12.498   9.816  0.0549  0.0563 -0.0617
  529PYPI   D3A 8211   2.462  12.032   9.668 -0.0595 -0.1048 -0.0161
  529PYPI   C4A 8212   2.108  11.917   9.461 -0.1167 -0.0960 -0.1247
  529PYPI   C1B 8213   3.150  13.107   9.562  0.1586  0.0914 -0.0672
  529PYPI   C2B 8214   3.081  13.070   9.187  0.2644  0.0446  0.1655
  529PYPI   C3B 8215   2.903  12.940   8.723  0.1599 -0.2743  0.1004
  529PYPI   C4B 8216   2.720  12.895   8.310  0.0931 -0.0080  0.1053
  530PYPI    C1 8217  12.902  17.925  10.608  0.1066  0.0255  0.2678
  530PYPI    C2 8218  12.665  17.905  10.929  0.0046  0.1530  0.2017
  530PYPI    C3 8219  12.570  17.703  10.597 -0.0515  0.2627  0.1505
  530PYPI   PO4 8220  12.937  18.217  10.571  0.1505 -0.2332 -0.1634
  530PYPI   GL1 8221  12.876  18.383  10.175 -0.1155 -0.0530  0.1132
  530PYPI   GL2 8222  13.097  18.049  10.100  0.0164 -0.0445  0.1193
  530PYPI   C1A 8223  12.941  18.487   9.764  0.1785  0.0071 -0.1113
  530PYPI   C2A 8224  12.854  18.867   9.583 -0.1301 -0.0601 -0.1383
  530PYPI   D3A 8225  13.211  19.228   9.615 -0.1433 -0.1636 -0.0455
  530PYPI   C4A 8226  13.095  19.428   9.831  0.0955  0.0906  0.1984
  530PYPI   C1B 8227  13.345  18.193   9.701 -0.0071  0.0661  0.0881
  530PYPI   C2B 8228  13.462  18.232   9.254 -0.0761  0.0910 -0.0325
  530PYPI   C3B 8229  13.526  18.249   8.829 -0.0538 -0.0791 -0.0105
  530PYPI   C4B 8230  13.421  18.329   8.412 -0.4130  0.2792 -0.2228
  531PYPI    C1 8231   7.115   2.286  10.490  0.1458  0.0954  0.1070
  531PYPI    C2 8232   7.420   2.090  10.658  0.2827  0.0054 -0.2386
  531PYPI    C3 8233   7.415   2.490  10.660  0.3192  0.0061 -0.0881
  531PYPI   PO4 8234   6.955   1.974  10.306 -0.1118  0.1038 -0.0635
  531PYPI   GL1 8235   6.940   1.887   9.873  0.1735 -0.0432  0.1130
  531PYPI   GL2 8236   7.016   2.188   9.728  0.0988  0.1359 -0.1994
  531PYPI   C1A 8237   7.049   1.834   9.372 -0.2760 -0.0510  0.0895
  531PYPI   C2A 8238   7.159   1.639   9.101  0.4512  0.0319 -0.2706
  531PYPI   D3A 8239   6.979   1.326   8.756 -0.2176  0.1308 -0.3841
  531PYPI   C4A 8240   6.626   1.529   8.619 -0.2256  0.1979  0.0616
  531PYPI   C1B 8241   6.771   2.235   9.426  0.0463  0.1486  0.0969
  531PYPI   C2B 8242   6.543   2.482   9.218 -0.3526  0.3585 -0.0799
  531PYPI   C3B 8243   6.449   2.459   8.860 -0.0278 -0.0362 -0.0285
  531PYPI   C4B 8244   6.364   2.577   8.448 -0.1831 -0.3745  0.0954
  532PYPI    C1 8245  17.343   6.282  10.460  0.1105  0.1820 -0.2886
  532PYPI    C2 8246  17.067   6.544  10.337 -0.1055  0.0163 -0.1628
  532PYPI    C3 8247  17.338   6.653  10.611  0.0600  0.2297 -0.4062
  532PYPI   PO4 8248  17.393   6.159  10.247 -0.1196  0.2808 -0.1250
  532PYPI   GL1 8249  17.217   6.092   9.870  0.1016  0.3158 -0.0851
  532PYPI   GL2 8250  17.174   6.391   9.828  0.1092  0.0785 -0.1340
  532PYPI   C1A 8251  17.305   6.019   9.372  0.2468  0.0236  0.1664
  532PYPI   C2A 8252  17.563   6.118   9.002  0.1566 -0.1104 -0.0321
  532PYPI   D3A 8253  17.492   5.987   8.581  0.1569  0.2019  0.1363
  532PYPI   C4A 8254  17.490   5.807   8.219  0.3356  0.3299  0.1617
  532PYPI   C1B 8255  17.030   6.449   9.469  0.3946  0.1305  0.2055
  532PYPI   C2B 8256  17.212   6.467   9.130 -0.0013 -0.0126  0.2817
  532PYPI   C3B 8257  17.332   6.530   8.659 -0.0624 -0.0566 -0.1179
  532PYPI   C4B 8258  17.327   6.598   8.181  0.0339 -0.2963  0.1337
  533PYPI    C1 8259   5.700  14.473  10.589 -0.1002  0.0222  0.0135
  533PYPI    C2 8260   5.699  14.873  10.611  0.1745  0.0312 -0.1076
  533PYPI    C3 8261   5.840  14.656  10.917 -0.1758  0.0176  0.0486
  533PYPI   PO4 8262   5.753  14.450  10.347  0.0067 -0.0107 -0.2187
  533PYPI   GL1 8263   5.658  14.435   9.959 -0.0516  0.0167  0.0294
  533PYPI   GL2 8264   5.972  14.577   9.744 -0.0872  0.1113 -0.0598
  533PYPI   C1A 8265   5.600  14.214   9.544 -0.1340  0.0433 -0.0096
  533PYPI   C2A 8266   5.601  13.859   9.469  0.2302  0.1643 -0.0141
  533PYPI   D3A 8267   5.545  13.466   9.362  0.1805  0.1253 -0.2155
  533PYPI   C4A 8268   5.199  13.225   9.513 -0.1723 -0.3001  0.0886
  533PYPI   C1B 8269   6.219  14.198   9.596  0.0789 -0.4096  0.1634
  533PYPI   C2B 8270   6.526  13.908   9.265  0.1536  0.1560 -0.2232
  533PYPI   C3B 8271   6.803  13.682   9.004 -0.1449  0.0375  0.5833
  533PYPI   C4B 8272   7.001  13.606   8.515  0.1463  0.0525 -0.1985
  534PYPI    C1 8273   8.963  10.170   9.874 -0.0284 -0.0850 -0.0477
  534PYPI    C2 8274   9.286   9.937   9.851  0.2275  0.2748 -0.1987
  534PYPI    C3 8275   9.204  10.132  10.191 -0.0064 -0.0542 -0.0607
  534PYPI   PO4 8276   8.977  10.256   9.492 -0.0837 -0.1073 -0.0489
  534PYPI   GL1 8277   9.314  10.355   9.367 -0.0123  0.0388 -0.2313
  534PYPI   GL2 8278   9.453  10.684   9.295  0.2035 -0.0269  0.2899
  534PYPI   C1A 8279   9.562  10.286   8.998  0.0302  0.0500 -0.0843
  534PYPI   C2A 8280   9.848  10.281   8.707 -0.2037  0.0418  0.2594
  534PYPI   D3A 8281  10.108  10.397   8.364  0.2285  0.2258 -0.1859
  534PYPI   C4A 8282   9.934  10.352   7.973  0.0599  0.3428  0.0498
  534PYPI   C1B 8283   9.258  10.685   8.897  0.1204 -0.2317 -0.0358
  534PYPI   C2B 8284   9.232  10.812   8.417 -0.0847  0.1476  0.2908
  534PYPI   C3B 8285   9.119  10.817   7.910  0.3249 -0.2329 -0.0337
  534PYPI   C4B 8286   9.193  11.035   7.493 -0.3850 -0.0613  0.1751
  535PYPI    C1 8287  12.981  16.568  10.795 -0.2088 -0.0400  0.2012
  535PYPI    C2 8288  13.239  16.263  10.805  0.0191  0.1371 -0.1103
  535PYPI    C3 8289  13.349  16.622  10.941 -0.0599  0.2148 -0.2495
  535PYPI   PO4 8290  12.934  16.622  10.552  0.0720 -0.0972  0.1811
  535PYPI   GL1 8291  12.887  16.785  10.195 -0.1269  0.0416  0.0131
  535PYPI   GL2 8292  13.091  17.024  10.192 -0.1944  0.1245 -0.1453
  535PYPI   C1A 8293  12.534  16.809   9.943  0.2322 -0.0146  0.0703
  535PYPI   C2A 8294  12.481  16.763   9.435 -0.0227 -0.2306  0.0849
  535PYPI   D3A 8295  12.441  16.798   8.926 -0.2695  0.0750  0.3320
  535PYPI   C4A 8296  12.198  17.129   8.775 -0.0842  0.4008  0.0594
  535PYPI   C1B 8297  13.298  17.203   9.894  0.1444 -0.0887 -0.2267
  535PYPI   C2B 8298  13.326  17.580   9.591  0.3892 -0.4481 -0.0995
  535PYPI   C3B 8299  13.485  17.747   9.249  0.0777 -0.0502  0.0795
  535PYPI   C4B 8300  13.480  17.648   8.854  0.1790 -0.2841 -0.2192
  536PYPI    C1 8301   9.973   4.752  10.384 -0.3258  0.2200  0.2260
  536PYPI    C2 8302  10.039   5.119  10.239  0.0814 -0.0608 -0.3360
  536PYPI    C3 8303  10.152   5.028  10.612 -0.1281  0.4089 -0.1497
  536PYPI   PO4 8304  10.197   4.593  10.220  0.3146 -0.1707 -0.3714
  536PYPI   GL1 8305  10.385   4.320   9.900 -0.0568  0.2239  0.3032
  536PYPI   GL2 8306  10.527   4.576   9.861  0.0278  0.1331  0.1692
  536PYPI   C1A 8307  10.385   4.242   9.511  0.2929  0.0957  0.0602
  536PYPI   C2A 8308  10.545   4.259   9.033  0.2033 -0.2630 -0.0147
  536PYPI   D3A 8309  10.761   4.202   8.678  0.0202  0.1031  0.2806
  536PYPI   C4A 8310  10.665   4.019   8.354  0.1407 -0.1158  0.1732
  536PYPI   C1B 8311  10.614   4.690   9.368 -0.0257  0.1372 -0.2308
  536PYPI   C2B 8312  10.618   4.702   8.859 -0.3239 -0.4481  0.0583
  536PYPI   C3B 8313  10.856   4.839   8.425  0.2004 -0.1840 -0.1476
  536PYPI   C4B 8314  11.239   4.815   8.208 -0.0110 -0.2517  0.0879
  537PYPI    C1 8315   5.797  12.915  10.360  0.0559 -0.0138 -0.0073
  537PYPI    C2 8316   5.916  12.543  10.273  0.3041  0.0199  0.1781
  537PYPI    C3 8317   5.958  12.685  10.645  0.0355  0.1690  0.1540
  537PYPI   PO4 8318   5.859  13.059  10.201  0.1023 -0.1515 -0.0718
  537PYPI   GL1 8319   5.837  13.210   9.737 -0.2433  0.1075  0.0250
  537PYPI   GL2 8320   6.106  13.065   9.703  0.0038 -0.2002 -0.0997
  537PYPI   C1A 8321   6.017  13.603   9.448  0.0145  0.2546 -0.1091
  537PYPI   C2A 8322   5.964  13.934   9.123  0.1737 -0.1791  0.0847
  537PYPI   D3A 8323   5.931  14.388   9.204  0.1172  0.0625 -0.4372
  537PYPI   C4A 8324   6.281  14.638   9.325  0.2020 -0.0522 -0.2960
  537PYPI   C1B 8325   6.152  13.136   9.244  0.2667  0.0223 -0.1909
  537PYPI   C2B 8326   6.274  13.496   9.039  0.2769  0.0403  0.1305
  537PYPI   C3B 8327   6.340  13.851   8.807 -0.0387  0.0644  0.2115
  537PYPI   C4B 8328   6.406  14.253   8.925  0.4724  0.2229  0.2526
  538PYPI    C1 8329   2.421   7.759  10.291 -0.2239  0.2278 -0.0541
  538PYPI    C2 8330   2.329   7.974  10.615 -0.1099  0.1218  0.0497
  538PYPI    C3 8331   2.189   7.602  10.577 -0.0675  0.1099  0.0094
  538PYPI   PO4 8332   2.297   7.820  10.061 -0.0236 -0.1581  0.1588
  538PYPI   GL1 8333   2.494   7.808   9.702 -0.1556  0.3289  0.2660
  538PYPI   GL2 8334   2.549   7.623   9.487 -0.0340  0.2323  0.0810
  538PYPI   C1A 8335   2.470   8.130   9.577 -0.2429 -0.0374  0.0053
  538PYPI   C2A 8336   2.625   8.307   9.153 -0.2326  0.4316 -0.1025
  538PYPI   D3A 8337   2.801   8.338   8.896 -0.1058  0.2043 -0.0433
  538PYPI   C4A 8338   3.103   8.628   8.775  0.1430 -0.2728  0.2283
  538PYPI   C1B 8339   2.626   7.819   9.107  0.1362 -0.1075 -0.0485
  538PYPI   C2B 8340   2.668   7.881   8.689  0.2514  0.0666 -0.0371
  538PYPI   C3B 8341   2.643   8.044   8.387 -0.0804  0.0122 -0.0023
  538PYPI   C4B 8342   2.979   8.380   8.307  0.2321 -0.2232 -0.1605
  539PYPI    C1 8343  15.987  13.332  10.919 -0.1631  0.1081 -0.3472
  539PYPI    C2 8344  16.023  12.942  10.836 -0.2773  0.0509 -0.1359
  539PYPI    C3 8345  15.812  13.060  11.155 -0.0436  0.2752 -0.0611
  539PYPI   PO4 8346  15.900  13.349  10.584  0.0663  0.0330 -0.2551
  539PYPI   GL1 8347  15.978  13.332  10.172 -0.0106  0.1407  0.0617
  539PYPI   GL2 8348  16.344  13.277  10.173 -0.0383 -0.0881  0.0927
  539PYPI   C1A 8349  16.107  13.513   9.769  0.0231  0.0200 -0.2574
  539PYPI   C2A 8350  16.146  13.504   9.241  0.0272 -0.0789  0.4418
  539PYPI   D3A 8351  16.085  13.438   8.845  0.1622 -0.0693 -0.1473
  539PYPI   C4A 8352  16.441  13.763   8.835 -0.1192  0.0120  0.0811
  539PYPI   C1B 8353  16.649  13.254   9.823  0.0710 -0.1572  0.0226
  539PYPI   C2B 8354  16.537  13.296   9.460  0.0311  0.0069 -0.1190
  539PYPI   C3B 8355  16.568  13.319   9.016  0.1231 -0.1152 -0.1725
  539PYPI   C4B 8356  16.516  13.267   8.619  0.0850  0.1433  0.3115
  540ERGO   ROH 8357   3.205   6.841   9.634 -0.0471  0.0616 -0.0296
  540ERGO    R1 8358   3.266   6.960   9.385  0.0426 -0.0066 -0.0407
  540ERGO    R2 8359   3.305   6.812   9.155  0.0065 -0.0619 -0.0118
  540ERGO    R3 8360   3.113   6.976   9.055  0.0959  0.0106 -0.0648
  540ERGO    R4 8361   3.251   6.870   8.819  0.0031 -0.1865 -0.0327
  540ERGO    R5 8362   3.217   7.080   8.865  0.1387 -0.1422 -0.1265
  540ERGO    C1 8363   3.040   7.057   8.529  0.0850 -0.1909 -0.0947
  540ERGO    C2 8364   2.824   6.954   8.234  0.2947  0.1003  0.2501
  541ERGO   ROH 8365   1.688  10.411   9.826  0.0584  0.1459 -0.0553
  541ERGO    R1 8366   1.513  10.362   9.608 -0.0359  0.1379  0.0224
  541ERGO    R2 8367   1.269  10.490   9.582  0.0125  0.2327  0.0567
  541ERGO    R3 8368   1.367  10.556   9.337 -0.0434  0.0959 -0.0047
  541ERGO    R4 8369   1.082  10.622   9.323  0.0090  0.3862  0.1362
  541ERGO    R5 8370   1.193  10.495   9.185 -0.1890  0.2486  0.0948
  541ERGO    C1 8371   1.064  10.762   8.943 -0.0456  0.3472  0.1249
  541ERGO    C2 8372   1.045  10.958   8.723 -0.0203  0.2578  0.0985
  542ERGO   ROH 8373   8.532  11.675   9.593  0.0125  0.0299 -0.1496
  542ERGO    R1 8374   8.589  11.787   9.340 -0.1112  0.0986 -0.1477
  542ERGO    R2 8375   8.697  11.639   9.133  0.1387  0.2406 -0.1206
  542ERGO    R3 8376   8.482  11.732   8.996  0.0195 -0.0824 -0.1614
  542ERGO    R4 8377   8.661  11.626   8.790  0.1938  0.1278 -0.1230
  542ERGO    R5 8378   8.574  11.826   8.796 -0.0876  0.0129 -0.1677
  542ERGO    C1 8379   8.437  11.706   8.461  0.1138 -0.2410 -0.1627
  542ERGO    C2 8380   8.370  11.762   8.103 -0.0432 -0.2587 -0.1287
  543ERGO   ROH 8381   7.805  16.631   9.629  0.1009 -0.0888 -0.1180
  543ERGO    R1 8382   7.881  16.783   9.402  0.0315 -0.1158 -0.1599
  543ERGO    R2 8383   8.001  16.670   9.181 -0.0208 -0.1398 -0.1767
  543ERGO    R3 8384   7.796  16.792   9.049 -0.0638 -0.1709 -0.1387
  543ERGO    R4 8385   7.993  16.728   8.840 -0.0044  0.0379 -0.1482
  543ERGO    R5 8386   7.905  16.923   8.880 -0.1069 -0.0268 -0.0551
  543ERGO    C1 8387   7.796  16.875   8.517 -0.0352  0.1123 -0.0957
  543ERGO    C2 8388   7.715  16.931   8.233 -0.1005  0.0746 -0.1378
  544ERGO   ROH 8389  13.826   0.890   9.985  0.3611 -0.1981 -0.0973
  544ERGO    R1 8390  13.860   0.795   9.721  0.1175 -0.2501 -0.1125
  544ERGO    R2 8391  13.648   0.715   9.562 -0.0503 -0.0770  0.0219
  544ERGO    R3 8392  13.753   0.895   9.388  0.0027 -0.1823 -0.0561
  544ERGO    R4 8393  13.635   0.688   9.218 -0.0971 -0.2002  0.0331
  544ERGO    R5 8394  13.840   0.761   9.209 -0.0680 -0.2837 -0.0159
  544ERGO    C1 8395  13.725   0.840   8.854 -0.0745 -0.3708 -0.0338
  544ERGO    C2 8396  13.630   1.062   8.547 -0.0498  0.2826 -0.0385
  545ERGO   ROH 8397   2.616   6.205   9.924  0.2594  0.0988  0.0269
  545ERGO    R1 8398   2.696   6.121   9.666  0.0407 -0.0265 -0.0021
  545ERGO    R2 8399   2.527   5.987   9.494 -0.1809  0.1017  0.1147
  545ERGO    R3 8400   2.595   6.187   9.323 -0.0819  0.0056  0.0397
  545ERGO    R4 8401   2.497   5.972   9.150 -0.2513  0.0133  0.1238
  545ERGO    R5 8402   2.689   6.074   9.133 -0.1870 -0.1143  0.0574
  545ERGO    C1 8403   2.544   6.150   8.789 -0.1994 -0.1283  0.0587
  545ERGO    C2 8404   2.404   6.061   8.474 -0.4402 -0.1614  0.0399
  546ERGO   ROH 8405  12.202  12.785   9.665 -0.0798 -0.0656 -0.0501
  546ERGO    R1 8406  12.230  12.926   9.421 -0.0848  0.0090 -0.0091
  546ERGO    R2 8407  12.396  12.841   9.218 -0.0125  0.1200 -0.0062
  546ERGO    R3 8408  12.170  12.859   9.069  0.0041  0.0750 -0.0351
  546ERGO    R4 8409  12.387  12.847   8.872  0.0002 -0.1130 -0.0115
  546ERGO    R5 8410  12.231  12.999   8.884  0.0427 -0.0704 -0.1267
  546ERGO    C1 8411  12.169  12.868   8.531  0.0231 -0.2911 -0.0418
  546ERGO    C2 8412  12.215  12.912   8.098 -0.0144 -0.0287 -0.3419
  547ERGO   ROH 8413  15.178  13.622  10.170  0.0925  0.3099  0.1182
  547ERGO    R1 8414  15.087  13.700   9.913 -0.0002  0.4709  0.2012
  547ERGO    R2 8415  15.172  13.932   9.790  0.6104  0.1400 -0.0234
  547ERGO    R3 8416  15.236  13.763   9.587 -0.2128 -0.1979 -0.0457
  547ERGO    R4 8417  15.137  14.006   9.454  0.8158  0.3198 -0.0094
  547ERGO    R5 8418  15.066  13.802   9.423 -0.1425  0.5857  0.0134
  547ERGO    C1 8419  15.177  13.890   9.068  0.1626  0.1073 -0.0224
  547ERGO    C2 8420  15.199  13.950   8.769 -0.0075 -0.1371 -0.0982
  548ERGO   ROH 8421   8.594   1.057   9.511 -0.1517  0.2004  0.0503
  548ERGO    R1 8422   8.549   0.981   9.242  0.0957 -0.0120  0.0626
  548ERGO    R2 8423   8.471   1.162   9.048 -0.3261 -0.2579 -0.0240
  548ERGO    R3 8424   8.689   1.066   8.917 -0.0333  0.2406  0.0729
  548ERGO    R4 8425   8.505   1.150   8.704 -0.2042 -0.3468 -0.0080
  548ERGO    R5 8426   8.598   0.953   8.726  0.3067 -0.0976  0.1069
  548ERGO    C1 8427   8.729   1.052   8.381  0.1417  0.0695  0.0921
  548ERGO    C2 8428   8.754   1.127   8.062  0.0502 -0.2564  0.1422
  549ERGO   ROH 8429   0.923  14.402   9.896 -0.1517 -0.2520  0.1091
  549ERGO    R1 8430   1.027  14.437   9.635 -0.1035 -0.1257  0.1435
  549ERGO    R2 8431   1.131  14.228   9.488 -0.0634 -0.0553  0.0641
  549ERGO    R3 8432   0.952  14.312   9.302 -0.0353  0.0225  0.0727
  549ERGO    R4 8433   1.129  14.129   9.157 -0.0977 -0.0112  0.0515
  549ERGO    R5 8434   1.080  14.334   9.101 -0.0325  0.0070  0.0766
  549ERGO    C1 8435   0.959  14.149   8.790 -0.0914  0.0876  0.0524
  549ERGO    C2 8436   0.986  13.900   8.559 -0.1875 -0.1013 -0.0890
  550ERGO   ROH 8437   5.065  16.089   9.550 -0.1514  0.1643  0.0378
  550ERGO    R1 8438   4.833  16.101   9.388 -0.0982 -0.0425 -0.0570
  550ERGO    R2 8439   4.756  16.331   9.256 -0.3116 -0.0755  0.0068
  550ERGO    R3 8440   4.758  16.167   9.039 -0.0244  0.0145 -0.0626
  550ERGO    R4 8441   4.725  16.437   8.928 -0.2105  0.0334  0.0319
  550ERGO    R5 8442   4.598  16.265   8.890 -0.0266 -0.0734 -0.1192
  550ERGO    C1 8443   4.709  16.346   8.534  0.1181  0.1809 -0.0186
  550ERGO    C2 8444   4.969  16.365   8.254 -0.2109  0.0374  0.3932
  551ERGO   ROH 8445  14.017  17.694  10.205  0.1031  0.1666  0.1343
  551ERGO    R1 8446  14.130  17.818   9.977  0.0927  0.0177  0.0479
  551ERGO    R2 8447  14.376  17.745   9.874  0.0984 -0.0313  0.1025
  551ERGO    R3 8448  14.234  17.714   9.644  0.1053 -0.2046  0.1192
  551ERGO    R4 8449  14.504  17.779   9.555  0.0556 -0.0317  0.0844
  551ERGO    R5 8450  14.321  17.881   9.497 -0.0249 -0.1821  0.0643
  551ERGO    C1 8451  14.445  17.771   9.154  0.0371 -0.1946  0.0895
  551ERGO    C2 8452  14.413  17.712   8.707  0.2576  0.0724 -0.0271
  552ERGO   ROH 8453   1.893   7.986   9.558  0.0154 -0.0189  0.0170
  552ERGO    R1 8454   2.009   8.109   9.331  0.1540 -0.1748  0.0031
  552ERGO    R2 8455   2.152   7.967   9.142 -0.2714 -0.4151 -0.1423
  552ERGO    R3 8456   1.976   8.083   8.969 -0.1253  0.0552  0.0066
  552ERGO    R4 8457   2.214   8.028   8.807 -0.2425 -0.2088 -0.1018
  552ERGO    R5 8458   2.113   8.220   8.828  0.0861 -0.0401  0.1054
  552ERGO    C1 8459   2.085   8.171   8.451 -0.0886  0.3529  0.0616
  552ERGO    C2 8460   2.191   8.009   8.116  0.1714 -0.1584 -0.1518
  553ERGO   ROH 8461   8.980  11.860   9.545 -0.1401 -0.0726 -0.0240
  553ERGO    R1 8462   9.135  11.882   9.310 -0.0397 -0.0714  0.0409
  553ERGO    R2 8463   9.197  11.664   9.151  0.1090 -0.0869  0.1150
  553ERGO    R3 8464   9.087  11.816   8.955  0.1434 -0.1677  0.0334
  553ERGO    R4 8465   9.228  11.602   8.813  0.1967 -0.2047  0.1445
  553ERGO    R5 8466   9.251  11.816   8.781  0.1846 -0.2151  0.0734
  553ERGO    C1 8467   9.143  11.709   8.431  0.2801 -0.3491  0.0849
  553ERGO    C2 8468   8.888  11.632   8.263  0.3646 -0.1540  0.0808
  554ERGO   ROH 8469   0.362  11.564   9.780 -0.0478  0.1491  0.1857
  554ERGO    R1 8470   0.268  11.424   9.553  0.2932 -0.1462  0.2177
  554ERGO    R2 8471   0.116  11.545   9.356 -0.0799 -0.5779  0.2315
  554ERGO    R3 8472   0.309  11.447   9.192  0.1727 -0.0735  0.2060
  554ERGO    R4 8473   0.076  11.486   9.018  0.0405 -0.6214  0.2236
  554ERGO    R5 8474   0.192  11.302   9.042  0.5123 -0.3542  0.1892
  554ERGO    C1 8475   0.234  11.359   8.667  0.3478 -0.1731  0.1949
  554ERGO    C2 8476   0.214  11.423   8.228 -0.1410  0.0987 -0.2269
  555ERGO   ROH 8477  13.173   7.351   9.596 -0.1311  0.1503  0.2361
  555ERGO    R1 8478  13.212   7.595   9.458 -0.2028  0.0818  0.0935
  555ERGO    R2 8479  13.433   7.642   9.299 -0.1278  0.1167  0.2140
  555ERGO    R3 8480  13.245   7.701   9.112 -0.0392 -0.1350  0.0393
  555ERGO    R4 8481  13.495   7.812   9.004 -0.0826  0.2551  0.3012
  555ERGO    R5 8482  13.307   7.918   9.032 -0.2783 -0.0243  0.1379
  555ERGO    C1 8483  13.354   7.966   8.657  0.0268  0.0993  0.1881
  555ERGO    C2 8484  13.325   8.001   8.290  0.0578  0.1081  0.3178
  556ERGO   ROH 8485   1.605  12.605   9.958 -0.0403  0.2489 -0.1046
  556ERGO    R1 8486   1.642  12.593   9.678 -0.0784  0.0675 -0.1029
  556ERGO    R2 8487   1.773  12.382   9.555 -0.0722 -0.0004  0.0177
  556ERGO    R3 8488   1.544  12.369   9.408 -0.0914 -0.1236  0.0576
  556ERGO    R4 8489   1.745  12.234   9.244  0.0202  0.2137 -0.0949
  556ERGO    R5 8490   1.616  12.398   9.182 -0.1667  0.1316  0.0627
  556ERGO    C1 8491   1.514  12.135   8.925  0.0560  0.2228 -0.1230
  556ERGO    C2 8492   1.561  12.030   8.700 -0.1074  0.1060  0.2217
  557ERGO   ROH 8493  14.608  16.051   9.636  0.1557  0.1412  0.0210
  557ERGO    R1 8494  14.653  16.108   9.363  0.0984 -0.0277 -0.0242
  557ERGO    R2 8495  14.591  15.929   9.161 -0.2317 -0.0302  0.0782
  557ERGO    R3 8496  14.451  16.140   9.062 -0.0075  0.1146  0.0598
  557ERGO    R4 8497  14.517  15.978   8.827 -0.1278  0.0453  0.0655
  557ERGO    R5 8498  14.558  16.191   8.854  0.0810  0.0098  0.0760
  557ERGO    C1 8499  14.343  16.205   8.539  0.1433  0.2253  0.0410
  557ERGO    C2 8500  14.157  16.238   8.086  0.2194 -0.0493 -0.0004
  558ERGO   ROH 8501  13.400   4.996  10.008 -0.0109  0.1934 -0.0070
  558ERGO    R1 8502  13.257   5.000   9.764  0.0404 -0.0594 -0.0435
  558ERGO    R2 8503  13.306   5.186   9.566 -0.1635 -0.0395 -0.0734
  558ERGO    R3 8504  13.337   4.966   9.410  0.1723 -0.0384 -0.0173
  558ERGO    R4 8505  13.330   5.190   9.221 -0.2120 -0.0865 -0.0775
  558ERGO    R5 8506  13.204   5.011   9.216  0.0682 -0.2970 -0.0146
  558ERGO    C1 8507  13.372   4.984   8.874  0.0750 -0.1128 -0.0274
  558ERGO    C2 8508  13.389   5.146   8.616 -0.1603 -0.2358  0.2348
  559ERGO   ROH 8509  18.282   0.943  10.121 -0.0056 -0.0981 -0.1480
  559ERGO    R1 8510  18.170   0.755   9.942 -0.0484 -0.0456 -0.1775
  559ERGO    R2 8511  17.904   0.761   9.866 -0.0409  0.0472 -0.2051
  559ERGO    R3 8512  18.009   0.763   9.616 -0.0122  0.0387 -0.1927
  559ERGO    R4 8513  17.784   0.577   9.600  0.0553 -0.0381 -0.1894
  559ERGO    R5 8514  17.990   0.537   9.541  0.0737  0.0211 -0.1574
  559ERGO    C1 8515  17.813   0.471   9.209  0.1384 -0.0958 -0.1687
  559ERGO    C2 8516  17.751   0.458   8.899 -0.0703 -0.0216  0.1111
  560ERGO   ROH 8517   9.256  16.949   9.633  0.0944  0.1498 -0.1183
  560ERGO    R1 8518   9.282  16.971   9.352 -0.1172 -0.0423 -0.1544
  560ERGO    R2 8519   9.527  16.973   9.225 -0.2140 -0.0396 -0.3297
  560ERGO    R3 8520   9.419  16.769   9.083 -0.2373 -0.1830 -0.1132
  560ERGO    R4 8521   9.643  16.862   8.919 -0.4100 -0.1616 -0.3623
  560ERGO    R5 8522   9.436  16.839   8.855 -0.4622 -0.3047 -0.1763
  560ERGO    C1 8523   9.608  16.605   8.607 -0.5460 -0.3674 -0.1781
  560ERGO    C2 8524   9.692  16.363   8.331 -0.0734  0.0372 -0.1010
  561ERGO   ROH 8525  15.457  12.909   9.954 -0.0836  0.1002 -0.2138
  561ERGO    R1 8526  15.648  12.847   9.754 -0.0928  0.0158 -0.1972
  561ERGO    R2 8527  15.638  12.615   9.604 -0.1022 -0.0466 -0.1018
  561ERGO    R3 8528  15.646  12.789   9.395 -0.1097 -0.1316 -0.1733
  561ERGO    R4 8529  15.731  12.532   9.282  0.1875 -0.1092 -0.0049
  561ERGO    R5 8530  15.838  12.721   9.270  0.0342 -0.0230 -0.0142
  561ERGO    C1 8531  15.793  12.647   8.898  0.3492 -0.2255 -0.0156
  561ERGO    C2 8532  15.850  12.434   8.626 -0.1020 -0.0337 -0.0634
  562ERGO   ROH 8533   6.747   7.879   9.427  0.5205  0.0109  0.2049
  562ERGO    R1 8534   6.703   7.982   9.166  0.3442 -0.4006  0.0637
  562ERGO    R2 8535   6.746   8.248   9.102 -0.3763 -0.3296 -0.2106
  562ERGO    R3 8536   6.903   8.141   8.908  0.0268 -0.1144 -0.0136
  562ERGO    R4 8537   6.827   8.404   8.805 -0.3967 -0.2993 -0.2003
  562ERGO    R5 8538   6.803   8.213   8.703  0.0752 -0.4017 -0.1440
  562ERGO    C1 8539   7.022   8.395   8.449 -0.0302 -0.0797 -0.0093
  562ERGO    C2 8540   7.058   8.470   8.162 -0.1307 -0.1481  0.1467
  563ERGO   ROH 8541  17.100  13.538  10.023  0.0326  0.1024 -0.1396
  563ERGO    R1 8542  17.206  13.730   9.844  0.0975  0.0974 -0.1069
  563ERGO    R2 8543  17.367  13.661   9.630  0.1089  0.0839 -0.0927
  563ERGO    R3 8544  17.182  13.801   9.488  0.1586  0.1393 -0.1032
  563ERGO    R4 8545  17.423  13.804   9.320  0.0978 -0.1544 -0.2066
  563ERGO    R5 8546  17.307  13.977   9.385  0.2578 -0.0209 -0.2652
  563ERGO    C1 8547  17.282  14.018   9.006  0.1378 -0.2410 -0.2827
  563ERGO    C2 8548  17.448  14.030   8.777 -0.3345 -0.4686  0.1396
  564ERGO   ROH 8549   9.161  12.975   9.609  0.0869 -0.1303  0.1053
  564ERGO    R1 8550   9.194  13.023   9.332  0.0538 -0.1068  0.1042
  564ERGO    R2 8551   9.373  12.882   9.176  0.0861 -0.0514  0.0800
  564ERGO    R3 8552   9.154  12.833   9.024  0.0848 -0.1052  0.1014
  564ERGO    R4 8553   9.381  12.759   8.854  0.0816  0.1214  0.0139
  564ERGO    R5 8554   9.220  12.897   8.802 -0.0083  0.0466  0.1215
  564ERGO    C1 8555   9.180  12.642   8.522  0.0779  0.1715 -0.0045
  564ERGO    C2 8556   9.117  12.559   8.157  0.1549 -0.0288  0.1623
  565ERGO   ROH 8557  10.402   1.859   9.871  0.1093  0.5114  0.0972
  565ERGO    R1 8558  10.348   1.793   9.601 -0.0320  0.2801  0.1808
  565ERGO    R2 8559  10.291   1.983   9.410 -0.0212  0.1222  0.0297
  565ERGO    R3 8560  10.496   1.865   9.276 -0.1341 -0.0973  0.0424
  565ERGO    R4 8561  10.329   1.986   9.066  0.1801  0.4108  0.0491
  565ERGO    R5 8562  10.394   1.777   9.077 -0.1786  0.2726 -0.1138
  565ERGO    C1 8563  10.544   1.876   8.741  0.1914  0.3728  0.0724
  565ERGO    C2 8564  10.451   1.968   8.432 -0.1449 -0.0083 -0.0585
  566ERGO   ROH 8565  14.970   9.489   9.724 -0.0417  0.1498 -0.0574
  566ERGO    R1 8566  14.799   9.400   9.516 -0.0653  0.1015 -0.0165
  566ERGO    R2 8567  14.806   9.508   9.262  0.0464 -0.0980 -0.0953
  566ERGO    R3 8568  14.839   9.248   9.188 -0.1131 -0.1782  0.1028
  566ERGO    R4 8569  14.790   9.393   8.937  0.4449 -0.2463 -0.0690
  566ERGO    R5 8570  14.681   9.218   9.010  0.1308 -0.0951 -0.1393
  566ERGO    C1 8571  14.811   9.082   8.678  0.5271 -0.4081  0.1324
  566ERGO    C2 8572  14.964   9.016   8.348  0.0015 -0.1080  0.0626
  567ERGO   ROH 8573   0.604  14.622  10.111 -0.1875 -0.1852  0.0715
  567ERGO    R1 8574   0.564  14.732   9.854 -0.0847 -0.0659  0.1050
  567ERGO    R2 8575   0.772  14.785   9.680 -0.0326 -0.1919  0.1278
  567ERGO    R3 8576   0.626  14.631   9.510 -0.1642 -0.0108  0.0740
  567ERGO    R4 8577   0.745  14.840   9.340  0.1466 -0.1410  0.1212
  567ERGO    R5 8578   0.533  14.788   9.354  0.0751  0.1123  0.0494
  567ERGO    C1 8579   0.593  14.727   8.982  0.1274  0.0585  0.0668
  567ERGO    C2 8580   0.817  14.684   8.735  0.1111  0.0000 -0.0485
  568ERGO   ROH 8581   5.991   0.931   9.395  0.0624 -0.1949 -0.0224
  568ERGO    R1 8582   6.044   1.051   9.144  0.0464 -0.1867 -0.0219
  568ERGO    R2 8583   6.291   1.038   9.022  0.0468 -0.1574 -0.0243
  568ERGO    R3 8584   6.147   0.940   8.813  0.0562 -0.1721 -0.0239
  568ERGO    R4 8585   6.326   1.138   8.693 -0.0351 -0.0792 -0.0095
  568ERGO    R5 8586   6.109   1.130   8.672 -0.0353 -0.1583  0.0182
  568ERGO    C1 8587   6.211   1.104   8.306 -0.0740 -0.0476 -0.0005
  568ERGO    C2 8588   6.327   1.131   7.952 -0.1446  0.0128 -0.3520
  569ERGO   ROH 8589   3.399   3.596   9.769  0.2720 -0.0277 -0.3374
  569ERGO    R1 8590   3.201   3.622   9.569  0.1868  0.0024 -0.2508
  569ERGO    R2 8591   2.941   3.699   9.625  0.2040 -0.0195 -0.1281
  569ERGO    R3 8592   2.991   3.888   9.437  0.1194  0.0189 -0.1108
  569ERGO    R4 8593   2.718   3.797   9.381  0.0979  0.0245 -0.0134
  569ERGO    R5 8594   2.883   3.805   9.240  0.0374  0.0567 -0.0817
  569ERGO    C1 8595   2.634   4.032   9.061 -0.0433  0.0862  0.0697
  569ERGO    C2 8596   2.349   4.138   8.796  0.1038  0.1370  0.4639
  570ERGO   ROH 8597  17.186  16.509  10.312  0.1738 -0.0142  0.1992
  570ERGO    R1 8598  17.380  16.553  10.110  0.0978 -0.0732  0.1125
  570ERGO    R2 8599  17.429  16.370   9.908 -0.0563 -0.0829  0.0830
  570ERGO    R3 8600  17.382  16.585   9.748 -0.0558 -0.0610  0.1121
  570ERGO    R4 8601  17.407  16.359   9.563  0.0385 -0.0214  0.0746
  570ERGO    R5 8602  17.518  16.546   9.555  0.0044  0.0030  0.1405
  570ERGO    C1 8603  17.350  16.553   9.212  0.0941  0.0351  0.0969
  570ERGO    C2 8604  17.216  16.492   8.891  0.1304 -0.0927  0.1328
  571ERGO   ROH 8605   1.159   1.895   9.664 -0.2238  0.1892  0.0754
  571ERGO    R1 8606   1.055   1.953   9.407  0.0364  0.1137 -0.0501
  571ERGO    R2 8607   1.197   1.905   9.174  0.1717 -0.2013  0.0926
  571ERGO    R3 8608   0.974   1.766   9.106  0.0783 -0.0207  0.0218
  571ERGO    R4 8609   1.153   1.737   8.875  0.1702 -0.2474  0.1184
  571ERGO    R5 8610   0.947   1.808   8.872  0.2337 -0.0619 -0.0047
  571ERGO    C1 8611   0.918   1.509   8.637  0.0817 -0.1047  0.0669
  571ERGO    C2 8612   0.686   1.264   8.520 -0.0037 -0.3087 -0.0985
  572ERGO   ROH 8613   7.707  13.881   9.698  0.0032 -0.0265 -0.1222
  572ERGO    R1 8614   7.853  13.836   9.460  0.0371 -0.1152 -0.0855
  572ERGO    R2 8615   7.872  13.587   9.341 -0.1062 -0.1240 -0.0969
  572ERGO    R3 8616   7.781  13.721   9.123  0.0452 -0.0431 -0.1111
  572ERGO    R4 8617   7.912  13.482   9.014 -0.0799 -0.1131 -0.0969
  572ERGO    R5 8618   7.951  13.689   8.958  0.0705 -0.1353 -0.0644
  572ERGO    C1 8619   7.849  13.547   8.619  0.0776 -0.0308 -0.1103
  572ERGO    C2 8620   7.699  13.394   8.305 -0.0193 -0.1737 -0.1455
  573ERGO   ROH 8621  15.783   1.409  10.086 -0.0258  0.0394 -0.0772
  573ERGO    R1 8622  15.614   1.433   9.860 -0.0755  0.0205 -0.0411
  573ERGO    R2 8623  15.647   1.630   9.669 -0.1036 -0.0114 -0.0745
  573ERGO    R3 8624  15.652   1.419   9.498 -0.1621 -0.0345 -0.0492
  573ERGO    R4 8625  15.602   1.651   9.327  0.0185 -0.0217 -0.0920
  573ERGO    R5 8626  15.483   1.469   9.336 -0.0849  0.0412 -0.1099
  573ERGO    C1 8627  15.581   1.465   8.968  0.0345 -0.0493 -0.0787
  573ERGO    C2 8628  15.610   1.573   8.514 -0.2560  0.2103 -0.2933
  574ERGO   ROH 8629   7.370  15.720   9.667  0.1275  0.0896 -0.1743
  574ERGO    R1 8630   7.222  15.846   9.460 -0.0081 -0.0015 -0.1358
  574ERGO    R2 8631   7.335  15.916   9.218 -0.0907  0.1578 -0.1361
  574ERGO    R3 8632   7.130  15.769   9.117  0.0374 -0.0167 -0.1427
  574ERGO    R4 8633   7.276  15.863   8.881 -0.0455  0.1015 -0.1346
  574ERGO    R5 8634   7.063  15.887   8.920 -0.0614 -0.0805 -0.1420
  574ERGO    C1 8635   7.048  15.695   8.591  0.1010 -0.0949 -0.1398
  574ERGO    C2 8636   6.941  15.776   8.260 -0.0593  0.1926 -0.2397
  575ERGO   ROH 8637  12.308  14.149   9.786 -0.1736  0.0498 -0.0577
  575ERGO    R1 8638  12.390  14.090   9.521 -0.1763  0.0790 -0.0654
  575ERGO    R2 8639  12.339  14.258   9.307  0.0162  0.2116 -0.0108
  575ERGO    R3 8640  12.608  14.241   9.272  0.0100 -0.0173  0.0364
  575ERGO    R4 8641  12.504  14.304   9.007  0.1205  0.2312  0.0493
  575ERGO    R5 8642  12.634  14.139   9.058 -0.0419  0.0792 -0.0167
  575ERGO    C1 8643  12.852  14.315   8.800  0.1754  0.0278  0.1287
  575ERGO    C2 8644  13.099  14.433   8.486 -0.1728  0.1124 -0.0569
  576ERGO   ROH 8645   9.956  10.610   9.414  0.1104 -0.0968  0.2301
  576ERGO    R1 8646   9.969  10.620   9.131 -0.0895 -0.1803  0.2165
  576ERGO    R2 8647   9.802  10.781   8.980 -0.0071 -0.0085  0.3070
  576ERGO    R3 8648  10.036  10.874   8.878  0.0352 -0.3209  0.1068
  576ERGO    R4 8649   9.874  10.807   8.643 -0.3500  0.1013  0.2381
  576ERGO    R5 8650  10.075  10.736   8.686 -0.4076 -0.2605 -0.0386
  576ERGO    C1 8651  10.136  10.909   8.351 -0.5100 -0.1280  0.0102
  576ERGO    C2 8652  10.082  10.831   7.989  0.1526  0.3091 -0.2223
  577ERGO   ROH 8653   5.089  15.302   9.751 -0.3910  0.1590 -0.1417
  577ERGO    R1 8654   5.116  15.111   9.544 -0.0851  0.1108 -0.0631
  577ERGO    R2 8655   4.958  15.114   9.317 -0.0367 -0.1856 -0.1077
  577ERGO    R3 8656   5.199  15.115   9.190 -0.0009  0.0856 -0.0435
  577ERGO    R4 8657   5.005  15.050   8.980  0.1158  0.0084 -0.1247
  577ERGO    R5 8658   5.183  14.936   9.031  0.2026  0.1437 -0.1296
  577ERGO    C1 8659   5.258  15.014   8.665  0.2382  0.3760 -0.0741
  577ERGO    C2 8660   5.367  14.966   8.354  0.0030  0.0521 -0.1450
  578ERGO   ROH 8661   1.680   3.966   9.798  0.1681  0.1087 -0.1399
  578ERGO    R1 8662   1.567   3.810   9.591  0.1653  0.0037 -0.0608
  578ERGO    R2 8663   1.424   3.921   9.382 -0.0291 -0.1200  0.0003
  578ERGO    R3 8664   1.602   3.784   9.229 -0.0108 -0.0103 -0.0771
  578ERGO    R4 8665   1.402   3.882   9.039 -0.1254 -0.1000  0.0042
  578ERGO    R5 8666   1.468   3.676   9.063 -0.0085 -0.0649 -0.0400
  578ERGO    C1 8667   1.557   3.730   8.696 -0.1643  0.0146 -0.0663
  578ERGO    C2 8668   1.615   3.836   8.371  0.3469 -0.0770 -0.1219
  579ERGO   ROH 8669  10.951   5.593   9.867  0.1488 -0.0017 -0.2254
  579ERGO    R1 8670  11.047   5.459   9.637  0.1576  0.0332 -0.2422
  579ERGO    R2 8671  11.020   5.561   9.382  0.1445  0.0594 -0.2299
  579ERGO    R3 8672  11.290   5.525   9.374  0.1475  0.0848 -0.2390
  579ERGO    R4 8673  11.207   5.539   9.092  0.1025 -0.1483 -0.2420
  579ERGO    R5 8674  11.324   5.380   9.186  0.1356 -0.0618 -0.1310
  579ERGO    C1 8675  11.569   5.492   8.916  0.0810 -0.2453 -0.2578
  579ERGO    C2 8676  11.860   5.650   8.841 -0.0471  0.0767 -0.0440
  580ERGO   ROH 8677   3.531   2.498   9.831 -0.2231 -0.1365  0.1093
  580ERGO    R1 8678   3.487   2.620   9.580 -0.1921 -0.1382  0.1034
  580ERGO    R2 8679   3.681   2.633   9.384 -0.1568 -0.1071  0.1418
  580ERGO    R3 8680   3.490   2.516   9.231 -0.1108 -0.1308  0.1016
  580ERGO    R4 8681   3.690   2.614   9.039 -0.1411  0.0011  0.1352
  580ERGO    R5 8682   3.476   2.656   9.037 -0.1572 -0.0761  0.1436
  580ERGO    C1 8683   3.515   2.492   8.694 -0.0888  0.0419  0.0938
  580ERGO    C2 8684   3.651   2.418   8.306  0.0465 -0.1706 -0.0978
  581ERGO   ROH 8685  16.731   5.030  10.095 -0.1476 -0.2071  0.0462
  581ERGO    R1 8686  16.880   5.043   9.855 -0.0831 -0.1645  0.0866
  581ERGO    R2 8687  16.855   4.855   9.654 -0.1059 -0.0765 -0.0026
  581ERGO    R3 8688  16.807   5.074   9.500  0.0108  0.0089  0.0836
  581ERGO    R4 8689  16.849   4.857   9.308  0.1169  0.1236 -0.0073
  581ERGO    R5 8690  16.953   5.048   9.312  0.1253  0.1084  0.1639
  581ERGO    C1 8691  16.801   5.063   8.963  0.3562  0.3202  0.0708
  581ERGO    C2 8692  16.752   5.039   8.696 -0.0428 -0.1110 -0.1369
  582ERGO   ROH 8693  16.540   4.315   9.689  0.1485  0.0152 -0.0624
  582ERGO    R1 8694  16.617   4.475   9.468  0.1705 -0.0018 -0.0665
  582ERGO    R2 8695  16.669   4.368   9.218 -0.0042  0.0028 -0.1035
  582ERGO    R3 8696  16.484   4.551   9.138  0.0902  0.1457 -0.0019
  582ERGO    R4 8697  16.558   4.408   8.893 -0.1036  0.1270 -0.0555
  582ERGO    R5 8698  16.561   4.624   8.923  0.0593  0.1236 -0.0226
  582ERGO    C1 8699  16.320   4.603   8.629 -0.0729  0.3334  0.0678
  582ERGO    C2 8700  16.100   4.643   8.362 -0.0889  0.0329 -0.2840
  583ERGO   ROH 8701  13.549   5.960  10.159 -0.2829  0.0649 -0.1542
  583ERGO    R1 8702  13.517   6.023   9.885 -0.1719 -0.0396 -0.1937
  583ERGO    R2 8703  13.726   6.113   9.728 -0.1640  0.1812 -0.0749
  583ERGO    R3 8704  13.653   5.905   9.569  0.1973  0.0455 -0.0685
  583ERGO    R4 8705  13.774   6.099   9.386 -0.1823  0.2573 -0.0799
  583ERGO    R5 8706  13.577   6.008   9.367 -0.0151 -0.1011 -0.0580
  583ERGO    C1 8707  13.734   5.895   9.038  0.1462  0.1742 -0.0767
  583ERGO    C2 8708  13.853   5.915   8.757  0.0433  0.0608 -0.0606
  584ERGO   ROH 8709   8.833  13.264   9.745  0.2586  0.2100 -0.0607
  584ERGO    R1 8710   8.749  13.287   9.475  0.0989  0.2323 -0.0096
  584ERGO    R2 8711   8.923  13.354   9.270  0.0306  0.0053 -0.1399
  584ERGO    R3 8712   8.829  13.124   9.159 -0.2821  0.0747 -0.0317
  584ERGO    R4 8713   8.887  13.298   8.931  0.3029 -0.2188 -0.1361
  584ERGO    R5 8714   8.699  13.197   8.972  0.0543  0.1675 -0.2434
  584ERGO    C1 8715   8.778  13.050   8.629  0.1680 -0.2842 -0.0322
  584ERGO    C2 8716   8.895  13.027   8.335 -0.0235 -0.0899 -0.1434
  585ERGO   ROH 8717   5.792   7.129   9.335 -0.1431  0.1826 -0.0629
  585ERGO    R1 8718   5.680   7.162   9.077 -0.1692 -0.0569 -0.0823
  585ERGO    R2 8719   5.799   7.317   8.882 -0.3938  0.0755 -0.1071
  585ERGO    R3 8720   5.780   7.090   8.734 -0.0275  0.0113 -0.0568
  585ERGO    R4 8721   5.817   7.305   8.537 -0.6273  0.0789 -0.1221
  585ERGO    R5 8722   5.657   7.156   8.539 -0.3210 -0.2653  0.0229
  585ERGO    C1 8723   5.811   7.085   8.197 -0.4193  0.0205 -0.0836
  585ERGO    C2 8724   5.991   7.041   7.834 -0.1712  0.1462 -0.0289
  586ERGO   ROH 8725   9.101   4.632   9.814  0.0361  0.0142 -0.0012
  586ERGO    R1 8726   9.065   4.784   9.578 -0.1127 -0.0554 -0.0243
  586ERGO    R2 8727   9.250   4.971   9.491 -0.2525  0.0494 -0.0995
  586ERGO    R3 8728   9.240   4.826   9.261 -0.2053 -0.0028 -0.0689
  586ERGO    R4 8729   9.303   5.098   9.174 -0.0765 -0.0455 -0.1093
  586ERGO    R5 8730   9.140   4.974   9.102 -0.0885 -0.0074 -0.1472
  586ERGO    C1 8731   9.325   5.036   8.774  0.0703 -0.1498 -0.0864
  586ERGO    C2 8732   9.403   4.984   8.469 -0.0179 -0.0465  0.1298
  587ERGO   ROH 8733   4.075   1.546   9.739 -0.0772  0.2646  0.1612
  587ERGO    R1 8734   4.105   1.673   9.488 -0.0992  0.1408  0.0952
  587ERGO    R2 8735   4.317   1.619   9.319 -0.0782  0.1061  0.1337
  587ERGO    R3 8736   4.118   1.570   9.139 -0.0575 -0.0392  0.1490
  587ERGO    R4 8737   4.354   1.629   8.975 -0.1114  0.1235  0.1301
  587ERGO    R5 8738   4.159   1.725   8.961 -0.1812 -0.0146  0.1416
  587ERGO    C1 8739   4.190   1.588   8.607 -0.1112 -0.0028  0.1422
  587ERGO    C2 8740   4.085   1.398   8.287  0.0207  0.2972 -0.2664
  588ERGO   ROH 8741   8.311   2.086   9.647 -0.0339 -0.2784 -0.0623
  588ERGO    R1 8742   8.427   2.116   9.390 -0.0693 -0.2090 -0.0702
  588ERGO    R2 8743   8.276   2.153   9.162 -0.0950 -0.0220 -0.0219
  588ERGO    R3 8744   8.435   2.371   9.132  0.0069 -0.0844  0.0532
  588ERGO    R4 8745   8.399   2.268   8.860 -0.0288  0.0130  0.0176
  588ERGO    R5 8746   8.588   2.310   8.959 -0.0125 -0.1036  0.0410
  588ERGO    C1 8747   8.620   2.539   8.656  0.1055 -0.0252  0.1112
  588ERGO    C2 8748   8.769   2.745   8.461  0.2121 -0.0634  0.1505
  589ERGO   ROH 8749   7.595  10.021   9.317  0.1868  0.0317 -0.0935
  589ERGO    R1 8750   7.535   9.883   9.077  0.1900 -0.1354 -0.0002
  589ERGO    R2 8751   7.524  10.009   8.832 -0.1376 -0.2378 -0.0468
  589ERGO    R3 8752   7.702   9.817   8.761  0.0566 -0.0443 -0.0897
  589ERGO    R4 8753   7.642   9.959   8.511 -0.3519 -0.2717 -0.1215
  589ERGO    R5 8754   7.628   9.744   8.545 -0.0372 -0.2714  0.0195
  589ERGO    C1 8755   7.878   9.749   8.257 -0.2944 -0.1099 -0.2053
  589ERGO    C2 8756   8.056   9.686   7.912  0.1637  0.1225  0.1295
  590ERGO   ROH 8757   6.545   8.294   9.529  0.2159  0.2135 -0.1722
  590ERGO    R1 8758   6.348   8.249   9.331  0.2111 -0.0744 -0.1062
  590ERGO    R2 8759   6.331   8.401   9.101  0.0266 -0.2195 -0.1880
  590ERGO    R3 8760   6.343   8.159   8.978  0.2122 -0.2799 -0.0559
  590ERGO    R4 8761   6.386   8.354   8.763 -0.3492 -0.3306 -0.2387
  590ERGO    R5 8762   6.238   8.194   8.766 -0.1250 -0.5513  0.0548
  590ERGO    C1 8763   6.430   8.098   8.451 -0.3937 -0.4521 -0.1442
  590ERGO    C2 8764   6.631   8.124   8.230  0.3952  0.3270 -0.2114
  591ERGO   ROH 8765   1.493  15.415  10.288  0.0381 -0.0800 -0.1016
  591ERGO    R1 8766   1.595  15.413  10.024  0.0285  0.0438 -0.1062
  591ERGO    R2 8767   1.504  15.238   9.831  0.1295  0.0324 -0.1404
  591ERGO    R3 8768   1.463  15.467   9.689 -0.0174  0.0389 -0.0898
  591ERGO    R4 8769   1.550  15.269   9.490 -0.1770  0.0541 -0.1827
  591ERGO    R5 8770   1.637  15.466   9.525 -0.1607  0.0617 -0.2475
  591ERGO    C1 8771   1.538  15.501   9.158 -0.4935  0.0728 -0.1598
  591ERGO    C2 8772   1.502  15.284   8.963  0.1552 -0.0140  0.0062
  592ERGO   ROH 8773   9.892   5.627   9.999  0.0666  0.0042  0.0233
  592ERGO    R1 8774   9.867   5.552   9.728  0.2353 -0.1395  0.0446
  592ERGO    R2 8775   9.761   5.720   9.536  0.0027 -0.3706 -0.0418
  592ERGO    R3 8776   9.995   5.668   9.407  0.1160 -0.0526  0.0291
  592ERGO    R4 8777   9.805   5.734   9.193  0.0799 -0.3654 -0.0310
  592ERGO    R5 8778   9.929   5.555   9.207  0.3378 -0.1836  0.0309
  592ERGO    C1 8779  10.051   5.693   8.874  0.2312 -0.0637  0.0419
  592ERGO    C2 8780  10.025   5.812   8.632  0.0675  0.0955 -0.3984
  593ERGO   ROH 8781   8.781   6.608   9.745  0.3613  0.2968  0.2582
  593ERGO    R1 8782   8.946   6.546   9.524  0.1360  0.2231  0.1087
  593ERGO    R2 8783   8.859   6.392   9.312 -0.0959  0.1952  0.2285
  593ERGO    R3 8784   8.940   6.605   9.165 -0.2008  0.1466  0.0964
  593ERGO    R4 8785   8.946   6.377   8.978 -0.0247  0.0076  0.2529
  593ERGO    R5 8786   9.110   6.515   9.021 -0.1139  0.1445  0.1918
  593ERGO    C1 8787   9.073   6.569   8.645 -0.0819 -0.1473  0.1430
  593ERGO    C2 8788   9.182   6.461   8.301  0.1964  0.0419  0.1188
  594ERGO   ROH 8789  16.180   0.351  10.126  0.2172 -0.1098 -0.0012
  594ERGO    R1 8790  15.960   0.322   9.951  0.1772 -0.3045  0.0752
  594ERGO    R2 8791  15.889   0.516   9.766 -0.2336 -0.2267  0.2799
  594ERGO    R3 8792  15.910   0.309   9.591  0.0443 -0.0407  0.0875
  594ERGO    R4 8793  15.716   0.491   9.469 -0.0494 -0.1314  0.1646
  594ERGO    R5 8794  15.687   0.279   9.508  0.1292 -0.1831 -0.0583
  594ERGO    C1 8795  15.634   0.283   9.130  0.3189  0.0987 -0.0831
  594ERGO    C2 8796  15.664   0.220   8.813  0.1746 -0.3525 -0.1416
  595ERGO   ROH 8797   8.308   7.621   9.532 -0.2830  0.1702 -0.1330
  595ERGO    R1 8798   8.475   7.650   9.305 -0.1036  0.2734  0.0084
  595ERGO    R2 8799   8.496   7.455   9.110  0.2266  0.2593  0.0471
  595ERGO    R3 8800   8.431   7.661   8.944  0.2027  0.1865 -0.0334
  595ERGO    R4 8801   8.620   7.499   8.791  0.2357  0.1679  0.0383
  595ERGO    R5 8802   8.635   7.712   8.830  0.1965  0.1814 -0.0406
  595ERGO    C1 8803   8.632   7.717   8.449  0.2185  0.0464 -0.0423
  595ERGO    C2 8804   8.767   7.765   8.158  0.0685  0.2037  0.2940
  596ERGO   ROH 8805   8.937  15.165   9.779 -0.2313  0.0237  0.0368
  596ERGO    R1 8806   8.903  15.143   9.499  0.0764  0.0185 -0.0039
  596ERGO    R2 8807   8.659  15.183   9.376  0.1258 -0.3441 -0.2333
  596ERGO    R3 8808   8.800  15.362   9.227 -0.0065 -0.0904 -0.0610
  596ERGO    R4 8809   8.552  15.317   9.076  0.0715 -0.2088 -0.1545
  596ERGO    R5 8810   8.756  15.298   9.000  0.1102  0.0448 -0.1232
  596ERGO    C1 8811   8.622  15.563   8.762 -0.0845  0.1082  0.0531
  596ERGO    C2 8812   8.555  15.663   8.588 -0.0918 -0.0039  0.0988
  597ERGO   ROH 8813   5.278   6.314   9.503  0.0664 -0.1092  0.0478
  597ERGO    R1 8814   5.345   6.157   9.277 -0.1257 -0.1143 -0.0090
  597ERGO    R2 8815   5.195   6.159   9.044 -0.0792  0.2232 -0.0488
  597ERGO    R3 8816   5.434   6.219   8.929  0.0451 -0.0875  0.0408
  597ERGO    R4 8817   5.271   6.116   8.710 -0.0616  0.2985 -0.0537
  597ERGO    R5 8818   5.468   6.046   8.768 -0.1870 -0.0463 -0.0487
  597ERGO    C1 8819   5.539   6.147   8.407  0.0653  0.0506  0.0275
  597ERGO    C2 8820   5.652   6.044   8.075  0.2133  0.5581  0.1996
  598ERGO   ROH 8821   4.453  12.687  10.059  0.0507 -0.0550 -0.0565
  598ERGO    R1 8822   4.246  12.668   9.866  0.1023 -0.1865 -0.1001
  598ERGO    R2 8823   4.135  12.890   9.744 -0.1874 -0.2367  0.0630
  598ERGO    R3 8824   4.202  12.758   9.516  0.0308  0.0346 -0.0356
  598ERGO    R4 8825   3.988  12.943   9.436 -0.2507 -0.2253  0.0950
  598ERGO    R5 8826   3.993  12.728   9.402  0.0807 -0.1985 -0.0690
  598ERGO    C1 8827   3.965  12.850   9.042 -0.0827  0.0362  0.0210
  598ERGO    C2 8828   3.860  12.885   8.759 -0.0316 -0.0546  0.3834
  599ERGO   ROH 8829  18.095  17.273  10.108  0.0386 -0.1029  0.0839
  599ERGO    R1 8830  18.112  17.144   9.857  0.0542 -0.1427  0.1051
  599ERGO    R2 8831  18.085  17.279   9.617  0.0465 -0.1838  0.0816
  599ERGO    R3 8832  18.326  17.165   9.563  0.0574 -0.1718  0.1058
  599ERGO    R4 8833  18.212  17.228   9.300 -0.0197 -0.3899  0.0872
  599ERGO    R5 8834  18.286  17.034   9.366  0.0381 -0.3250  0.2113
  599ERGO    C1 8835  18.511  17.091   9.064 -0.0482 -0.4984  0.1133
  599ERGO    C2 8836  18.712  17.382   8.844 -0.0685  0.0643 -0.0797
  600ERGO   ROH 8837   7.176  10.994   9.635  0.1647 -0.0084  0.1643
  600ERGO    R1 8838   7.106  11.004   9.361 -0.0391 -0.1435  0.2074
  600ERGO    R2 8839   7.275  11.108   9.168 -0.3107  0.0744  0.0713
  600ERGO    R3 8840   7.236  10.866   9.049 -0.0503 -0.0043  0.1426
  600ERGO    R4 8841   7.285  11.052   8.827 -0.2502 -0.0278  0.0907
  600ERGO    R5 8842   7.115  10.917   8.849 -0.1025 -0.2024  0.1278
  600ERGO    C1 8843   7.254  10.792   8.517  0.0295 -0.1613  0.1690
  600ERGO    C2 8844   7.205  10.930   8.223 -0.2640 -0.0181 -0.0518
  601ERGO   ROH 8845   9.262  17.852   9.573 -0.2059  0.0767  0.0099
  601ERGO    R1 8846   9.395  17.957   9.346 -0.2809  0.0875 -0.0294
  601ERGO    R2 8847   9.620  17.840   9.237 -0.1601  0.2398  0.0515
  601ERGO    R3 8848   9.472  17.845   9.009 -0.1442 -0.0097  0.0334
  601ERGO    R4 8849   9.745  17.783   8.920 -0.0777  0.1832  0.0940
  601ERGO    R5 8850   9.618  17.944   8.846 -0.2143  0.0346 -0.0033
  601ERGO    C1 8851   9.679  17.754   8.521 -0.0148 -0.0839  0.1018
  601ERGO    C2 8852   9.651  17.639   8.317  0.2649  0.3416  0.2612
  602ERGO   ROH 8853  11.202   6.710   9.919 -0.1373  0.2098  0.0075
  602ERGO    R1 8854  11.086   6.789   9.673 -0.1250  0.1022 -0.0327
  602ERGO    R2 8855  11.206   6.972   9.504 -0.1910  0.1443 -0.0327
  602ERGO    R3 8856  11.178   6.773   9.321 -0.0320  0.0969 -0.0085
  602ERGO    R4 8857  11.167   7.021   9.164 -0.1297  0.0621 -0.0526
  602ERGO    R5 8858  11.020   6.860   9.163 -0.0394 -0.0196 -0.0653
  602ERGO    C1 8859  11.118   6.863   8.795  0.0552 -0.0301 -0.0415
  602ERGO    C2 8860  11.214   6.694   8.493 -0.4977  0.1679  0.1326
  603ERGO   ROH 8861   8.292  15.031   9.821  0.0452  0.2100  0.0275
  603ERGO    R1 8862   8.132  15.109   9.600  0.1137  0.1953 -0.0280
  603ERGO    R2 8863   8.225  15.104   9.340  0.1460  0.0334 -0.0151
  603ERGO    R3 8864   8.004  14.952   9.298  0.0736  0.1274  0.0243
  603ERGO    R4 8865   8.126  14.981   9.033  0.1051 -0.0251  0.0216
  603ERGO    R5 8866   7.920  15.028   9.087  0.1242  0.0953 -0.0071
  603ERGO    C1 8867   7.861  14.767   8.814  0.0134  0.0290  0.0798
  603ERGO    C2 8868   7.905  14.625   8.496  0.1249  0.1183  0.1933
  604ERGO   ROH 8869   3.949   9.546   9.638 -0.3023  0.0636  0.0588
  604ERGO    R1 8870   3.906   9.617   9.367 -0.2583 -0.0172  0.0317
  604ERGO    R2 8871   4.075   9.788   9.230 -0.2870  0.0087  0.0383
  604ERGO    R3 8872   4.086   9.581   9.053 -0.1660 -0.0268  0.0841
  604ERGO    R4 8873   4.168   9.816   8.898  0.0024 -0.0615  0.1095
  604ERGO    R5 8874   4.010   9.675   8.847  0.0219 -0.0495 -0.0010
  604ERGO    C1 8875   4.233   9.639   8.539  0.2845 -0.1355  0.1940
  604ERGO    C2 8876   4.495   9.781   8.386 -0.2198 -0.1063  0.2782
  605ERGO   ROH 8877  15.664  17.653  10.099 -0.2843 -0.3697  0.1089
  605ERGO    R1 8878  15.771  17.694   9.840 -0.0146 -0.3875  0.2146
  605ERGO    R2 8879  15.829  17.485   9.668 -0.3747 -0.3810  0.0786
  605ERGO    R3 8880  15.669  17.625   9.498  0.0466  0.1366  0.0818
  605ERGO    R4 8881  15.829  17.454   9.324 -0.4930 -0.4025  0.0802
  605ERGO    R5 8882  15.807  17.669   9.308  0.1938 -0.3104  0.0722
  605ERGO    C1 8883  15.680  17.566   8.964 -0.1664  0.0706  0.0841
  605ERGO    C2 8884  15.715  17.517   8.661 -0.2602 -0.2207  0.0168
  606ERGO   ROH 8885  14.946   6.152   9.837  0.2273 -0.3003  0.0629
  606ERGO    R1 8886  14.858   5.988   9.624 -0.0209 -0.0546 -0.0295
  606ERGO    R2 8887  14.659   6.066   9.448  0.2635  0.4522 -0.1464
  606ERGO    R3 8888  14.847   6.009   9.261  0.2648  0.0551 -0.0335
  606ERGO    R4 8889  14.594   5.926   9.139  0.1335  0.7050 -0.2363
  606ERGO    R5 8890  14.773   5.804   9.162 -0.1687  0.2572 -0.1484
  606ERGO    C1 8891  14.733   5.791   8.783  0.0589  0.4795 -0.1826
  606ERGO    C2 8892  14.684   5.640   8.449 -0.1176 -0.1370  0.2979
  607ERGO   ROH 8893  15.287  17.231  10.118 -0.0322 -0.0793  0.1312
  607ERGO    R1 8894  15.342  17.349   9.867 -0.2107 -0.0036  0.1271
  607ERGO    R2 8895  15.478  17.216   9.666 -0.0969  0.1601  0.1003
  607ERGO    R3 8896  15.259  17.282   9.519 -0.1969 -0.0784  0.1364
  607ERGO    R4 8897  15.466  17.216   9.321 -0.0381  0.4539  0.0947
  607ERGO    R5 8898  15.348  17.399   9.330 -0.3625  0.2552  0.2527
  607ERGO    C1 8899  15.253  17.277   8.981 -0.0979  0.4010  0.1254
  607ERGO    C2 8900  15.298  17.097   8.655 -0.0009 -0.1440  0.1586
  608ERGO   ROH 8901  10.320  16.280   9.879 -0.0650  0.0260  0.1631
  608ERGO    R1 8902  10.228  16.069   9.714 -0.1402  0.0813  0.1338
  608ERGO    R2 8903  10.006  16.093   9.551  0.0028  0.2610 -0.0389
  608ERGO    R3 8904  10.179  16.013   9.358  0.0765  0.0618  0.1063
  608ERGO    R4 8905   9.919  15.914   9.269  0.0356  0.3446 -0.1027
  608ERGO    R5 8906  10.101  15.797   9.293 -0.1098  0.1437  0.0530
  608ERGO    C1 8907  10.031  15.734   8.923  0.1238  0.2063 -0.0035
  608ERGO    C2 8908   9.969  15.555   8.574  0.2723  0.0697 -0.0466
  609ERGO   ROH 8909  16.638  12.647   9.931  0.0616  0.0724  0.0370
  609ERGO    R1 8910  16.708  12.801   9.704 -0.1159  0.1112  0.0072
  609ERGO    R2 8911  16.867  12.704   9.501 -0.0007  0.2547  0.0266
  609ERGO    R3 8912  16.658  12.780   9.344 -0.0913 -0.0157  0.0108
  609ERGO    R4 8913  16.873  12.717   9.155 -0.0216  0.1777  0.0232
  609ERGO    R5 8914  16.759  12.903   9.165 -0.2301  0.0553 -0.0200
  609ERGO    C1 8915  16.680  12.797   8.808 -0.1186 -0.1212  0.0066
  609ERGO    C2 8916  16.697  12.706   8.452  0.1023 -0.1210  0.1758
  610ERGO   ROH 8917  14.226  13.294   9.785  0.1588 -0.1269  0.0164
  610ERGO    R1 8918  14.270  13.214   9.517  0.2022 -0.0339 -0.0057
  610ERGO    R2 8919  14.074  13.231   9.323  0.1914 -0.0855 -0.0053
  610ERGO    R3 8920  14.263  13.373   9.190  0.1191  0.0514  0.0379
  610ERGO    R4 8921  14.083  13.276   8.981  0.1248  0.0998  0.0169
  610ERGO    R5 8922  14.299  13.250   8.988  0.1323  0.1731 -0.0320
  610ERGO    C1 8923  14.266  13.435   8.656  0.0181  0.3362  0.0703
  610ERGO    C2 8924  14.281  13.505   8.352 -0.0520 -0.1362  0.0825
  611ERGO   ROH 8925   4.899   9.127   9.334 -0.0531 -0.0356 -0.1623
  611ERGO    R1 8926   5.083   9.180   9.125 -0.0138 -0.0597 -0.1345
  611ERGO    R2 8927   5.133   8.999   8.922  0.0259 -0.0847 -0.1044
  611ERGO    R3 8928   5.069   9.209   8.763  0.0533 -0.1041 -0.1406
  611ERGO    R4 8929   5.211   9.023   8.586  0.2181 -0.0565 -0.0587
  611ERGO    R5 8930   5.258   9.233   8.618  0.1321 -0.0422 -0.0283
  611ERGO    C1 8931   5.197   9.235   8.241  0.3557 -0.0583 -0.0658
  611ERGO    C2 8932   5.266   9.444   7.945  0.0086  0.0644  0.2301
  612ERGO   ROH 8933  10.877  17.737  10.058 -0.2715 -0.1598 -0.0354
  612ERGO    R1 8934  10.991  17.665   9.809 -0.1679 -0.1575  0.0111
  612ERGO    R2 8935  10.877  17.478   9.641 -0.1869 -0.0348 -0.1117
  612ERGO    R3 8936  10.892  17.679   9.459  0.0494  0.0094 -0.0465
  612ERGO    R4 8937  10.911  17.434   9.300 -0.0788  0.0363 -0.1107
  612ERGO    R5 8938  11.051  17.601   9.298  0.0578 -0.0705 -0.0024
  612ERGO    C1 8939  10.946  17.597   8.931  0.2060  0.1194 -0.0487
  612ERGO    C2 8940  10.845  17.391   8.705 -0.0389 -0.0824 -0.1168
  613ERGO   ROH 8941   0.201  10.378   9.538 -0.1420 -0.0347 -0.0156
  613ERGO    R1 8942   0.213  10.203   9.315  0.0781  0.0340 -0.0586
  613ERGO    R2 8943   0.001  10.167   9.142  0.0583 -0.3196  0.0369
  613ERGO    R3 8944   0.185  10.233   8.954 -0.1466  0.0642 -0.0413
  613ERGO    R4 8945  -0.043  10.132   8.801  0.0063 -0.4799  0.0587
  613ERGO    R5 8946   0.163  10.064   8.786  0.1677 -0.0266 -0.0014
  613ERGO    C1 8947   0.105  10.174   8.426 -0.2164 -0.2131 -0.0021
  613ERGO    C2 8948   0.135  10.304   8.108  0.0305  0.2317  0.0737
  614ERGO   ROH 8949   0.340   3.068  10.326  0.0150 -0.0199  0.0633
  614ERGO    R1 8950   0.328   3.189  10.071 -0.0155  0.0173  0.0823
  614ERGO    R2 8951   0.553   3.272   9.935 -0.0344  0.0713  0.0832
  614ERGO    R3 8952   0.451   3.116   9.737 -0.0212  0.0866  0.0646
  614ERGO    R4 8953   0.668   3.267   9.609 -0.1151  0.2153  0.0518
  614ERGO    R5 8954   0.461   3.254   9.541 -0.1286  0.1492  0.1021
  614ERGO    C1 8955   0.639   3.117   9.233 -0.1498  0.3135  0.0161
  614ERGO    C2 8956   0.892   3.044   8.906 -0.0304  0.1599 -0.2087
  615ERGO   ROH 8957  16.335   9.985   9.707  0.0427 -0.1247  0.0056
  615ERGO    R1 8958  16.152   9.959   9.493  0.0090  0.0052  0.0165
  615ERGO    R2 8959  16.121  10.153   9.299  0.1244  0.0363  0.0209
  615ERGO    R3 8960  16.169   9.945   9.130 -0.0216  0.0068  0.0165
  615ERGO    R4 8961  16.103  10.170   8.954  0.0302  0.0180  0.0256
  615ERGO    R5 8962  16.009   9.973   8.954 -0.0572  0.0654  0.0634
  615ERGO    C1 8963  16.138   9.985   8.595 -0.1615 -0.0205  0.0240
  615ERGO    C2 8964  16.112  10.055   8.229 -0.1049  0.2531 -0.0711
  616ERGO   ROH 8965  17.186   7.887   9.875 -0.0575  0.0817  0.1370
  616ERGO    R1 8966  17.060   7.826   9.629  0.0088  0.0827  0.1017
  616ERGO    R2 8967  16.982   8.021   9.449  0.0847  0.0835  0.0651
  616ERGO    R3 8968  17.132   7.876   9.275  0.1222  0.0557  0.1212
  616ERGO    R4 8969  17.006   8.082   9.110 -0.0157 -0.1107  0.0220
  616ERGO    R5 8970  17.000   7.867   9.076  0.0869 -0.1329  0.1531
  616ERGO    C1 8971  17.162   7.981   8.749 -0.0390 -0.2496  0.0497
  616ERGO    C2 8972  17.214   8.054   8.474 -0.1937 -0.0114 -0.0523
  617ERGO   ROH 8973   9.753  11.786   9.843  0.1700 -0.1048  0.0776
  617ERGO    R1 8974   9.663  11.741   9.578  0.2090 -0.0649  0.0575
  617ERGO    R2 8975   9.599  11.947   9.406  0.1376 -0.0399  0.1120
  617ERGO    R3 8976   9.777  11.823   9.243  0.2025  0.0799  0.0906
  617ERGO    R4 8977   9.591  11.956   9.060  0.2402  0.1566  0.1129
  617ERGO    R5 8978   9.646  11.745   9.059  0.2698  0.1668  0.0065
  617ERGO    C1 8979   9.753  11.844   8.706  0.3610  0.3835  0.0933
  617ERGO    C2 8980   9.685  11.744   8.361  0.0482  0.2183 -0.2634
  618ERGO   ROH 8981   4.619  10.443   9.664  0.0081  0.1565 -0.0949
  618ERGO    R1 8982   4.608  10.490   9.385  0.0315  0.1726 -0.0937
  618ERGO    R2 8983   4.683  10.730   9.271  0.1937  0.1280 -0.0871
  618ERGO    R3 8984   4.844  10.572   9.121  0.0835  0.0187 -0.0971
  618ERGO    R4 8985   4.795  10.808   8.954  0.0850 -0.0243 -0.1638
  618ERGO    R5 8986   4.763  10.600   8.897 -0.0041 -0.0395 -0.0748
  618ERGO    C1 8987   5.012  10.705   8.628 -0.0817 -0.2156 -0.2180
  618ERGO    C2 8988   4.970  10.866   8.321  0.1507 -0.2503 -0.1048
  619ERGO   ROH 8989   1.948  13.986   9.871 -0.3057  0.2477  0.0132
  619ERGO    R1 8990   1.991  14.077   9.606  0.0045  0.2176  0.0504
  619ERGO    R2 8991   2.218  14.012   9.462 -0.0011 -0.1194  0.1848
  619ERGO    R3 8992   2.036  13.926   9.278 -0.0264  0.1881  0.0596
  619ERGO    R4 8993   2.296  13.847   9.169 -0.0751 -0.2047  0.2123
  619ERGO    R5 8994   2.143  13.964   9.067  0.1668  0.0525  0.1302
  619ERGO    C1 8995   2.172  13.670   8.826 -0.1420  0.0342  0.1108
  619ERGO    C2 8996   2.225  13.681   8.490  0.0274 -0.0229 -0.0296
  620ERGO   ROH 8997  15.803   8.987   9.708 -0.1038  0.2309  0.0957
  620ERGO    R1 8998  15.899   9.073   9.456  0.0228 -0.0828  0.0319
  620ERGO    R2 8999  15.894   8.912   9.231 -0.4101 -0.1695  0.0969
  620ERGO    R3 9000  15.760   9.123   9.123  0.0292  0.1018  0.0550
  620ERGO    R4 9001  15.834   8.957   8.893 -0.4788 -0.2157  0.1022
  620ERGO    R5 9002  15.876   9.169   8.919  0.0437 -0.2868 -0.0341
  620ERGO    C1 9003  15.674   9.181   8.596 -0.1063  0.0122  0.0659
  620ERGO    C2 9004  15.604   9.287   8.342 -0.1097 -0.0212 -0.2569
  621ERGO   ROH 9005   5.557  16.595   9.707  0.0392 -0.0403  0.2258
  621ERGO    R1 9006   5.382  16.477   9.519  0.0955 -0.1927  0.2683
  621ERGO    R2 9007   5.303  16.605   9.288 -0.3407 -0.1156  0.4528
  621ERGO    R3 9008   5.396  16.379   9.169 -0.0174  0.1593  0.1607
  621ERGO    R4 9009   5.147  16.441   9.027 -0.3305 -0.2200  0.5115
  621ERGO    R5 9010   5.199  16.252   9.122  0.1718 -0.2043  0.3037
  621ERGO    C1 9011   5.143  16.133   8.763 -0.0210 -0.0228  0.2714
  621ERGO    C2 9012   5.151  16.004   8.514 -0.0767 -0.0333 -0.1895
  622ERGO   ROH 9013  14.903   2.753  10.205 -0.0575 -0.1324 -0.0054
  622ERGO    R1 9014  14.923   2.669   9.935  0.2218 -0.0469 -0.0141
  622ERGO    R2 9015  14.761   2.771   9.735  0.1139 -0.3109 -0.0644
  622ERGO    R3 9016  14.998   2.825   9.615  0.0752  0.1620  0.0507
  622ERGO    R4 9017  14.799   2.851   9.401  0.1120 -0.1253 -0.0216
  622ERGO    R5 9018  14.978   2.727   9.397  0.3437  0.1964  0.0071
  622ERGO    C1 9019  15.044   2.948   9.094  0.0745  0.4267  0.1115
  622ERGO    C2 9020  14.966   3.201   8.814  0.0324 -0.0410 -0.0806
  623ERGO   ROH 9021   5.322  17.020   9.478 -0.1861 -0.0707  0.1604
  623ERGO    R1 9022   5.294  17.038   9.197 -0.2468 -0.1045  0.1641
  623ERGO    R2 9023   5.511  17.037   9.026 -0.2631  0.1999  0.1390
  623ERGO    R3 9024   5.376  16.832   8.908  0.0068  0.0113  0.1503
  623ERGO    R4 9025   5.429  17.021   8.690 -0.2876  0.1027  0.1492
  623ERGO    R5 9026   5.235  16.939   8.747 -0.1688 -0.1754  0.1742
  623ERGO    C1 9027   5.255  16.820   8.385 -0.0485 -0.1310  0.1657
  623ERGO    C2 9028   5.223  16.770   8.053 -0.0381 -0.3667  0.0875
  624ERGO   ROH 9029   7.173   5.084   9.713 -0.1187 -0.2819 -0.0730
  624ERGO    R1 9030   7.073   5.091   9.448  0.0285 -0.2457 -0.1278
  624ERGO    R2 9031   7.058   5.324   9.301 -0.0405 -0.2010 -0.0417
  624ERGO    R3 9032   7.200   5.181   9.119  0.1569 -0.0336 -0.0243
  624ERGO    R4 9033   7.047   5.373   8.959 -0.1077 -0.2457 -0.0468
  624ERGO    R5 9034   7.051   5.156   8.933  0.1825 -0.2516 -0.0239
  624ERGO    C1 9035   7.174   5.267   8.589  0.0384 -0.1146 -0.0335
  624ERGO    C2 9036   7.181   5.447   8.304 -0.0973  0.1037  0.2196
  625ERGO   ROH 9037   7.266   0.380   8.914  0.0752  0.0903  0.1975
  625ERGO    R1 9038   7.160   0.332   8.655  0.2460 -0.0816  0.1570
  625ERGO    R2 9039   7.000   0.515   8.524 -0.1411 -0.3993  0.1672
  625ERGO    R3 9040   7.185   0.487   8.327 -0.0156  0.0709  0.2066
  625ERGO    R4 9041   6.943   0.579   8.189 -0.2276 -0.5187  0.1584
  625ERGO    R5 9042   7.060   0.402   8.140  0.2306 -0.2329  0.1729
  625ERGO    C1 9043   7.083   0.590   7.809 -0.1602 -0.1469  0.1903
  625ERGO    C2 9044   7.219   0.931   7.603 -0.3876  0.0237  0.4681
  626ERGO   ROH 9045   3.988   4.638   9.732 -0.0390 -0.2428 -0.0336
  626ERGO    R1 9046   3.933   4.519   9.482 -0.2879 -0.2420  0.0176
  626ERGO    R2 9047   3.676   4.486   9.385 -0.3675  0.2357  0.0402
  626ERGO    R3 9048   3.774   4.619   9.170 -0.0980 -0.0467 -0.0190
  626ERGO    R4 9049   3.572   4.437   9.060 -0.3729  0.2089  0.0462
  626ERGO    R5 9050   3.780   4.454   8.996 -0.3236 -0.1652  0.0806
  626ERGO    C1 9051   3.603   4.534   8.667 -0.1230 -0.0720 -0.0060
  626ERGO    C2 9052   3.331   4.421   8.515  0.1265  0.4089 -0.2220
  627ERGO   ROH 9053  17.875   1.765  10.094  0.0941 -0.3119 -0.1723
  627ERGO    R1 9054  17.966   1.877   9.851  0.0814 -0.1882 -0.1231
  627ERGO    R2 9055  17.916   1.761   9.606  0.2350 -0.1747 -0.1762
  627ERGO    R3 9056  17.814   2.006   9.546  0.0649 -0.2353 -0.1301
  627ERGO    R4 9057  17.892   1.892   9.287  0.1724 -0.0901 -0.1356
  627ERGO    R5 9058  17.953   2.086   9.367  0.0157 -0.0780 -0.0851
  627ERGO    C1 9059  17.782   2.197   9.045 -0.0233 -0.0976 -0.0688
  627ERGO    C2 9060  17.787   2.213   8.696 -0.2287  0.3480  0.3218
  628ERGO   ROH 9061   6.119   6.243   9.542  0.0177 -0.2037 -0.1893
  628ERGO    R1 9062   6.107   6.146   9.277  0.0289 -0.1750 -0.2012
  628ERGO    R2 9063   5.888   6.186   9.113  0.0119 -0.2013 -0.1894
  628ERGO    R3 9064   6.075   6.289   8.944 -0.0138 -0.1399 -0.1821
  628ERGO    R4 9065   5.880   6.159   8.768 -0.0329 -0.0967 -0.1960
  628ERGO    R5 9066   6.095   6.126   8.770 -0.0293 -0.0872 -0.2346
  628ERGO    C1 9067   6.049   6.241   8.409 -0.0833  0.0219 -0.1931
  628ERGO    C2 9068   6.051   6.333   8.160 -0.2588 -0.1597  0.0938
  629ERGO   ROH 9069   5.898   3.780   9.460  0.4395  0.1059  0.0243
  629ERGO    R1 9070   6.078   3.766   9.242  0.2717  0.2159 -0.1272
  629ERGO    R2 9071   6.007   3.659   8.997  0.1811  0.0029 -0.0253
  629ERGO    R3 9072   6.095   3.899   8.904 -0.1938  0.0746 -0.2091
  629ERGO    R4 9073   6.229   3.699   8.736  0.5194  0.1413  0.2764
  629ERGO    R5 9074   6.325   3.860   8.848 -0.0113  0.5081  0.2128
  629ERGO    C1 9075   6.441   3.947   8.495  0.3646  0.2891  0.2795
  629ERGO    C2 9076   6.483   3.821   8.145 -0.1293 -0.1239 -0.0224
  630ERGO   ROH 9077  11.451  11.165   9.783  0.0259  0.1160  0.0330
  630ERGO    R1 9078  11.595  11.265   9.561  0.0526 -0.0337 -0.0184
  630ERGO    R2 9079  11.722  11.099   9.379 -0.1832 -0.1692 -0.0661
  630ERGO    R3 9080  11.574  11.238   9.199 -0.1059 -0.0127 -0.0111
  630ERGO    R4 9081  11.771  11.093   9.037 -0.3002 -0.2001 -0.0825
  630ERGO    R5 9082  11.732  11.308   9.033 -0.0903 -0.1599 -0.0582
  630ERGO    C1 9083  11.660  11.220   8.668 -0.2958 -0.0710 -0.0406
  630ERGO    C2 9084  11.757  11.106   8.343 -0.0464 -0.1819  0.3026
  631ERGO   ROH 9085  17.130  11.365   9.508 -0.0003  0.1663  0.0657
  631ERGO    R1 9086  17.096  11.272   9.243  0.0341  0.0831  0.0908
  631ERGO    R2 9087  16.891  11.357   9.080  0.0028 -0.0370  0.0688
  631ERGO    R3 9088  17.094  11.417   8.910 -0.0205 -0.0074  0.0509
  631ERGO    R4 9089  16.864  11.362   8.736 -0.0464  0.0148  0.0731
  631ERGO    R5 9090  17.060  11.269   8.724 -0.0448  0.0187  0.0326
  631ERGO    C1 9091  17.038  11.421   8.375 -0.0970  0.0728  0.0590
  631ERGO    C2 9092  17.106  11.387   8.041 -0.0052 -0.0157 -0.0739
  632ERGO   ROH 9093   0.964   8.397   9.420 -0.2538 -0.0868 -0.0856
  632ERGO    R1 9094   1.099   8.452   9.177 -0.1089 -0.1772 -0.0264
  632ERGO    R2 9095   1.112   8.269   8.970 -0.1979 -0.1617 -0.0438
  632ERGO    R3 9096   1.010   8.475   8.825  0.0480 -0.0459 -0.0589
  632ERGO    R4 9097   1.077   8.271   8.626 -0.4389 -0.2591 -0.0217
  632ERGO    R5 9098   1.142   8.479   8.625 -0.0811 -0.3617 -0.1574
  632ERGO    C1 9099   0.960   8.465   8.290 -0.3484 -0.2070 -0.0233
  632ERGO    C2 9100   0.873   8.249   7.965  0.0048  0.0811  0.1473
  633ERGO   ROH 9101   7.416   0.368   9.356  0.0330  0.0334  0.0395
  633ERGO    R1 9102   7.668   0.381   9.230  0.0323  0.0177  0.0361
  633ERGO    R2 9103   7.869   0.197   9.279  0.0343  0.0246  0.0597
  633ERGO    R3 9104   7.864   0.168   9.008  0.0311 -0.0116  0.0637
  633ERGO    R4 9105   8.140   0.103   9.086  0.0247 -0.0213  0.0684
  633ERGO    R5 9106   8.078   0.250   8.937  0.0353 -0.0379  0.0501
  633ERGO    C1 9107   8.294   0.022   8.720  0.0161 -0.0820  0.0772
  633ERGO    C2 9108   8.380  -0.028   8.401  0.0925  0.1129  0.0336
  634ERGO   ROH 9109  16.601   1.197   9.669 -0.2269 -0.1952  0.0056
  634ERGO    R1 9110  16.548   1.319   9.418 -0.1709 -0.1233  0.0288
  634ERGO    R2 9111  16.719   1.293   9.202 -0.1197 -0.0551  0.0627
  634ERGO    R3 9112  16.494   1.206   9.076 -0.0871 -0.0238 -0.0183
  634ERGO    R4 9113  16.684   1.261   8.860 -0.0337  0.0502  0.0431
  634ERGO    R5 9114  16.481   1.340   8.878 -0.0422  0.0389  0.0190
  634ERGO    C1 9115  16.452   1.160   8.542  0.0466  0.1410 -0.0444
  634ERGO    C2 9116  16.501   0.916   8.224  0.0404  0.3528  0.0322
  635ERGO   ROH 9117  12.291   0.453  10.079  0.1740  0.2739 -0.1501
  635ERGO    R1 9118  12.456   0.273   9.936  0.2808  0.3748 -0.1534
  635ERGO    R2 9119  12.358   0.045   9.814  0.4683  0.1228  0.1535
  635ERGO    R3 9120  12.479   0.150   9.594  0.1010  0.1001 -0.0690
  635ERGO    R4 9121  12.412  -0.126   9.519  0.2995 -0.0221  0.2034
  635ERGO    R5 9122  12.608  -0.031   9.506  0.1891  0.1769 -0.0955
  635ERGO    C1 9123  12.557  -0.127   9.140 -0.1435 -0.1278  0.0236
  635ERGO    C2 9124  12.390  -0.241   8.871 -0.0819  0.3127  0.3210
  636ERGO   ROH 9125  16.018   3.565   9.904 -0.0313  0.2022 -0.0497
  636ERGO    R1 9126  16.065   3.788   9.737 -0.1584  0.1435 -0.1667
  636ERGO    R2 9127  16.319   3.872   9.668 -0.1932  0.4004 -0.0040
  636ERGO    R3 9128  16.223   3.850   9.415  0.0469  0.1015 -0.0755
  636ERGO    R4 9129  16.496   3.952   9.382  0.0608  0.1047  0.0656
  636ERGO    R5 9130  16.314   4.039   9.300  0.1225 -0.0133 -0.2055
  636ERGO    C1 9131  16.509   3.977   8.978  0.4344 -0.3481  0.0390
  636ERGO    C2 9132  16.641   3.993   8.639  0.2207 -0.1023 -0.4035
  637ERGO   ROH 9133  17.419   9.917   9.683 -0.3003  0.0651  0.1722
  637ERGO    R1 9134  17.365   9.832   9.419 -0.1577 -0.0779  0.1873
  637ERGO    R2 9135  17.110   9.827   9.313 -0.0936 -0.0649  0.0283
  637ERGO    R3 9136  17.223   9.979   9.118  0.0751 -0.2149  0.0066
  637ERGO    R4 9137  17.006   9.834   8.984 -0.2389  0.1750  0.0765
  637ERGO    R5 9138  17.215   9.840   8.923 -0.2517 -0.1682 -0.0191
  637ERGO    C1 9139  17.051   9.980   8.608 -0.1650  0.1740  0.0842
  637ERGO    C2 9140  17.002   9.892   8.282 -0.2866 -0.2085 -0.0302
  638ERGO   ROH 9141  15.895   2.603   9.753  0.0240 -0.1686 -0.0159
  638ERGO    R1 9142  15.884   2.514   9.484  0.0472 -0.1018 -0.0385
  638ERGO    R2 9143  15.822   2.683   9.274  0.1107 -0.0406 -0.0048
  638ERGO    R3 9144  16.056   2.589   9.173  0.1077 -0.0608  0.0040
  638ERGO    R4 9145  15.930   2.730   8.949  0.0709 -0.1498 -0.0354
  638ERGO    R5 9146  16.003   2.525   8.948  0.0863 -0.1472  0.0317
  638ERGO    C1 9147  16.214   2.671   8.666  0.0449 -0.2325 -0.0451
  638ERGO    C2 9148  16.249   2.734   8.319  0.4943  0.0506  0.1057
  639ERGO   ROH 9149  11.124   0.544  10.032  0.0491 -0.1973 -0.0549
  639ERGO    R1 9150  11.095   0.430   9.775 -0.0180 -0.0910 -0.0952
  639ERGO    R2 9151  10.925   0.534   9.584  0.0163  0.0548 -0.0469
  639ERGO    R3 9152  11.149   0.536   9.431  0.0077  0.0102 -0.0603
  639ERGO    R4 9153  10.931   0.486   9.242 -0.0166  0.0672 -0.0494
  639ERGO    R5 9154  11.111   0.366   9.267 -0.0416  0.0250 -0.0649
  639ERGO    C1 9155  11.146   0.460   8.899 -0.0439  0.0326 -0.0632
  639ERGO    C2 9156  11.198   0.733   8.620  0.1271  0.1419 -0.1381
  640ERGO   ROH 9157   9.867  14.395   9.924  0.0827 -0.0006  0.0370
  640ERGO    R1 9158  10.041  14.386   9.701  0.1531 -0.2055  0.0978
  640ERGO    R2 9159  10.110  14.150   9.576 -0.2525 -0.2767 -0.0105
  640ERGO    R3 9160  10.021  14.278   9.354  0.0704  0.0299  0.0281
  640ERGO    R4 9161  10.158  14.038   9.252 -0.4570 -0.2479 -0.0517
  640ERGO    R5 9162  10.196  14.245   9.193  0.0259 -0.2995  0.0432
  640ERGO    C1 9163  10.102  14.094   8.855 -0.2732  0.0567 -0.0393
  640ERGO    C2 9164  10.067  14.020   8.547 -0.1125 -0.2391 -0.2398
  641ERGO   ROH 9165   2.829   7.236   9.750  0.0989 -0.0581 -0.0392
  641ERGO    R1 9166   2.789   7.110   9.500 -0.1356 -0.1886  0.0615
  641ERGO    R2 9167   2.537   7.043   9.406 -0.2842  0.3433  0.0518
  641ERGO    R3 9168   2.616   7.187   9.189  0.1448 -0.0333 -0.0589
  641ERGO    R4 9169   2.489   6.949   9.077 -0.5657  0.2350  0.1206
  641ERGO    R5 9170   2.689   7.023   9.031 -0.3313 -0.3766  0.0561
  641ERGO    C1 9171   2.535   7.031   8.682 -0.3269 -0.1816  0.0568
  641ERGO    C2 9172   2.303   7.006   8.331  0.1207 -0.4171 -0.0695
  642ERGO   ROH 9173   3.577   0.871   9.511  0.0438 -0.1003 -0.0288
  642ERGO    R1 9174   3.428   0.923   9.276  0.0641 -0.0588 -0.0323
  642ERGO    R2 9175   3.370   1.179   9.191  0.1353 -0.0431 -0.0317
  642ERGO    R3 9176   3.485   1.093   8.960  0.1181 -0.0717 -0.0300
  642ERGO    R4 9177   3.253   1.251   8.873  0.1393 -0.0401 -0.0326
  642ERGO    R5 9178   3.300   1.046   8.815  0.1073 -0.0508 -0.0239
  642ERGO    C1 9179   3.293   1.213   8.472  0.1255 -0.0653 -0.0317
  642ERGO    C2 9180   3.123   1.098   8.136  0.0794 -0.2036 -0.0344
  643ERGO   ROH 9181   4.788  14.263   9.896 -0.0435 -0.2025  0.0017
  643ERGO    R1 9182   4.690  14.282   9.631 -0.0903 -0.2140  0.0192
  643ERGO    R2 9183   4.855  14.260   9.410 -0.1215 -0.1465 -0.0022
  643ERGO    R3 9184   4.678  14.066   9.338 -0.0720 -0.1947  0.0015
  643ERGO    R4 9185   4.774  14.177   9.084 -0.0262 -0.2209 -0.0082
  643ERGO    R5 9186   4.566  14.156   9.146 -0.0441 -0.2452 -0.0463
  643ERGO    C1 9187   4.561  13.947   8.827  0.0758 -0.3094 -0.0080
  643ERGO    C2 9188   4.578  13.892   8.492  0.0647  0.5716 -0.1460
  644ERGO   ROH 9189  14.550   5.075   9.971  0.2727 -0.0892  0.0452
  644ERGO    R1 9190  14.548   4.892   9.754  0.2131 -0.0198 -0.0129
  644ERGO    R2 9191  14.315   4.811   9.630  0.1714 -0.0533  0.0894
  644ERGO    R3 9192  14.442   4.896   9.406  0.0211  0.0593  0.0441
  644ERGO    R4 9193  14.245   4.701   9.311  0.1078 -0.0627  0.1061
  644ERGO    R5 9194  14.459   4.699   9.270  0.0941  0.0844  0.0145
  644ERGO    C1 9195  14.324   4.716   8.914 -0.0702  0.0374  0.0734
  644ERGO    C2 9196  14.308   4.497   8.579  0.0411 -0.3127  0.1392
  645ERGO   ROH 9197  10.747   5.186   9.827 -0.3206  0.1170 -0.1346
  645ERGO    R1 9198  10.746   5.081   9.564 -0.1212 -0.0661 -0.0647
  645ERGO    R2 9199  10.757   5.242   9.340 -0.1932 -0.2076 -0.1714
  645ERGO    R3 9200  10.970   5.085   9.278 -0.0159 -0.0477  0.0179
  645ERGO    R4 9201  10.909   5.228   9.029 -0.0442 -0.2637 -0.0974
  645ERGO    R5 9202  10.928   5.013   9.054  0.1501 -0.2314  0.0447
  645ERGO    C1 9203  11.198   5.073   8.791  0.2091 -0.1463  0.1235
  645ERGO    C2 9204  11.240   5.301   8.562  0.2490 -0.2220 -0.0266
  646ERGO   ROH 9205  12.565   6.257   9.878  0.1138 -0.0267 -0.0973
  646ERGO    R1 9206  12.593   6.381   9.625 -0.0009  0.1001 -0.0503
  646ERGO    R2 9207  12.681   6.244   9.402  0.1666  0.2753 -0.0991
  646ERGO    R3 9208  12.451   6.339   9.293  0.0674  0.0660 -0.0745
  646ERGO    R4 9209  12.631   6.297   9.064  0.0402  0.1352 -0.1027
  646ERGO    R5 9210  12.524   6.481   9.114 -0.0875  0.0676 -0.1354
  646ERGO    C1 9211  12.385   6.418   8.765 -0.1264 -0.1428 -0.0817
  646ERGO    C2 9212  12.218   6.473   8.365  0.0826 -0.0915 -0.1305
  647ERGO   ROH 9213  17.794   4.711   9.429  0.2040 -0.0453 -0.0475
  647ERGO    R1 9214  17.745   4.799   9.164  0.0267 -0.0958 -0.0323
  647ERGO    R2 9215  17.804   4.645   8.943 -0.0039 -0.0855 -0.0453
  647ERGO    R3 9216  17.543   4.689   8.882 -0.0579 -0.2266  0.0770
  647ERGO    R4 9217  17.660   4.583   8.635 -0.0247  0.1649 -0.0884
  647ERGO    R5 9218  17.547   4.769   8.656 -0.1759  0.0525  0.1662
  647ERGO    C1 9219  17.330   4.588   8.399 -0.0874  0.1783  0.0016
  647ERGO    C2 9220  17.301   4.522   8.071 -0.0278 -0.0130  0.2932
  648ERGO   ROH 9221   0.623   4.280   9.868 -0.3638  0.2325  0.1466
  648ERGO    R1 9222   0.452   4.232   9.648 -0.2968  0.3972  0.0571
  648ERGO    R2 9223   0.375   4.432   9.473  0.2054  0.4247 -0.1479
  648ERGO    R3 9224   0.472   4.260   9.286  0.0265  0.0998  0.0471
  648ERGO    R4 9225   0.302   4.447   9.136  0.4273  0.2760 -0.2051
  648ERGO    R5 9226   0.289   4.229   9.134  0.0564  0.2888 -0.0305
  648ERGO    C1 9227   0.350   4.295   8.763  0.3885 -0.1156 -0.0554
  648ERGO    C2 9228   0.367   4.175   8.462 -0.1457 -0.0028 -0.0653
  649ERGO   ROH 9229   1.552   1.068   9.757 -0.1122 -0.0493 -0.0409
  649ERGO    R1 9230   1.656   1.138   9.503 -0.1048  0.0018 -0.0226
  649ERGO    R2 9231   1.813   0.966   9.354 -0.1030  0.0343 -0.0493
  649ERGO    R3 9232   1.626   1.015   9.162 -0.0933  0.0731 -0.0507
  649ERGO    R4 9233   1.811   0.824   9.039 -0.1737 -0.0344 -0.0196
  649ERGO    R5 9234   1.751   1.017   8.958 -0.0976 -0.0218 -0.0583
  649ERGO    C1 9235   1.635   0.788   8.675 -0.2056 -0.0380 -0.0037
  649ERGO    C2 9236   1.700   0.548   8.593  0.3048 -0.0642  0.3315
  650ERGO   ROH 9237   7.936   3.611   9.526  0.1370 -0.0393 -0.1614
  650ERGO    R1 9238   7.771   3.736   9.333  0.0859 -0.0332 -0.1132
  650ERGO    R2 9239   7.858   3.945   9.176  0.0630 -0.0695 -0.1699
  650ERGO    R3 9240   7.776   3.784   8.973 -0.0444 -0.0764 -0.1222
  650ERGO    R4 9241   7.755   4.056   8.865  0.0201 -0.0814 -0.1604
  650ERGO    R5 9242   7.597   3.906   8.869 -0.0321 -0.0300 -0.0941
  650ERGO    C1 9243   7.617   3.970   8.494 -0.1059 -0.0948 -0.1101
  650ERGO    C2 9244   7.468   4.019   8.196  0.2278 -0.4118 -0.1797
  651ERGO   ROH 9245   3.731   7.075   9.359  0.2563 -0.1866  0.0279
  651ERGO    R1 9246   3.632   7.153   9.105  0.2375  0.0534  0.1060
  651ERGO    R2 9247   3.797   7.234   8.900  0.2599 -0.1421  0.0404
  651ERGO    R3 9248   3.667   7.040   8.761 -0.1296  0.1014  0.0493
  651ERGO    R4 9249   3.800   7.203   8.556  0.2881 -0.2323  0.0489
  651ERGO    R5 9250   3.588   7.151   8.564  0.1660  0.2308  0.0009
  651ERGO    C1 9251   3.679   7.002   8.225 -0.0612 -0.0562  0.0622
  651ERGO    C2 9252   3.740   6.905   7.906  0.3101 -0.0696 -0.2646
  652ERGO   ROH 9253  14.311  15.676   9.775  0.3401 -0.1689 -0.1531
  652ERGO    R1 9254  14.422  15.672   9.515  0.2770 -0.2333 -0.1803
  652ERGO    R2 9255  14.441  15.441   9.365 -0.0276 -0.2244 -0.2469
  652ERGO    R3 9256  14.306  15.588   9.180  0.0978 -0.0165 -0.1738
  652ERGO    R4 9257  14.392  15.348   9.035 -0.2189 -0.0730 -0.2618
  652ERGO    R5 9258  14.429  15.555   8.977  0.0066 -0.1009 -0.2118
  652ERGO    C1 9259  14.237  15.433   8.670 -0.2126  0.2103 -0.2020
  652ERGO    C2 9260  14.078  15.459   8.330  0.1253  0.0696 -0.3007
  653ERGO   ROH 9261  17.640   4.278   9.734  0.0282  0.2315 -0.0099
  653ERGO    R1 9262  17.549   4.170   9.489 -0.0566  0.1334  0.0640
  653ERGO    R2 9263  17.576   4.305   9.249 -0.0685  0.0027 -0.0068
  653ERGO    R3 9264  17.699   4.075   9.171 -0.1554 -0.0738  0.0765
  653ERGO    R4 9265  17.619   4.206   8.920  0.1660  0.0292  0.0133
  653ERGO    R5 9266  17.572   4.001   8.981 -0.0371  0.0472 -0.0568
  653ERGO    C1 9267  17.759   3.933   8.656  0.2211 -0.0273  0.1032
  653ERGO    C2 9268  17.703   4.065   8.262  0.0376 -0.2524 -0.1831
  654ERGO   ROH 9269  10.106   6.912  10.085 -0.2504  0.1558  0.0735
  654ERGO    R1 9270  10.228   6.856   9.836 -0.0376  0.1180  0.1827
  654ERGO    R2 9271  10.131   6.664   9.663  0.1488  0.0383  0.1543
  654ERGO    R3 9272  10.131   6.869   9.485  0.2299 -0.0065  0.1038
  654ERGO    R4 9273  10.150   6.629   9.319  0.2481 -0.0348  0.1676
  654ERGO    R5 9274  10.284   6.801   9.314  0.2676 -0.0599  0.1660
  654ERGO    C1 9275  10.161   6.802   8.953  0.3820 -0.1195  0.1279
  654ERGO    C2 9276  10.213   6.826   8.541  0.1285 -0.1445  0.1587
  655ERGO   ROH 9277   7.037   6.683   9.274  0.1807  0.0210  0.1042
  655ERGO    R1 9278   7.138   6.832   9.056  0.1308  0.0115  0.0733
  655ERGO    R2 9279   7.327   6.730   8.881  0.0080 -0.0394 -0.0370
  655ERGO    R3 9280   7.143   6.799   8.693 -0.0617  0.0558  0.0659
  655ERGO    R4 9281   7.401   6.816   8.555 -0.1127  0.1523 -0.0146
  655ERGO    R5 9282   7.249   6.972   8.567 -0.1189  0.1347  0.1273
  655ERGO    C1 9283   7.271   6.930   8.188 -0.2484  0.3533  0.0952
  655ERGO    C2 9284   7.353   6.986   7.883  0.1031 -0.1399  0.3385
  656ERGO   ROH 9285   8.904   0.912   9.797 -0.0593 -0.2390  0.0082
  656ERGO    R1 9286   9.051   0.906   9.555  0.0307 -0.2644  0.0642
  656ERGO    R2 9287   9.062   0.682   9.393 -0.1373 -0.1901 -0.0419
  656ERGO    R3 9288   8.977   0.856   9.202  0.1206 -0.0051  0.0044
  656ERGO    R4 9289   9.052   0.614   9.055 -0.1026 -0.0432 -0.0742
  656ERGO    R5 9290   9.123   0.816   9.017  0.1448 -0.0976  0.0358
  656ERGO    C1 9291   8.967   0.737   8.678  0.1598  0.2161 -0.0497
  656ERGO    C2 9292   8.906   0.569   8.437 -0.0730 -0.2083  0.0491
  657ERGO   ROH 9293   7.647  11.898   9.574 -0.0020 -0.3915  0.0983
  657ERGO    R1 9294   7.518  11.899   9.322  0.0177 -0.5046  0.0857
  657ERGO    R2 9295   7.542  12.109   9.143 -0.4077 -0.3218  0.2188
  657ERGO    R3 9296   7.620  11.911   8.973  0.0403 -0.0597  0.1040
  657ERGO    R4 9297   7.479  12.103   8.804 -0.3175 -0.2417  0.2012
  657ERGO    R5 9298   7.438  11.890   8.819  0.1178 -0.3397  0.0525
  657ERGO    C1 9299   7.514  11.915   8.447  0.1557  0.0509  0.0831
  657ERGO    C2 9300   7.517  12.003   8.208 -0.0522 -0.3660 -0.0184
  658ERGO   ROH 9301   5.926  17.389   9.550 -0.1081  0.0252 -0.0810
  658ERGO    R1 9302   5.815  17.304   9.303  0.1284 -0.2624 -0.0940
  658ERGO    R2 9303   5.764  17.478   9.094 -0.4210 -0.3525 -0.0480
  658ERGO    R3 9304   5.917  17.303   8.954  0.1203  0.1335 -0.1019
  658ERGO    R4 9305   5.776  17.456   8.750 -0.5684 -0.3833 -0.0519
  658ERGO    R5 9306   5.781  17.240   8.768  0.2011 -0.3875  0.0000
  658ERGO    C1 9307   5.927  17.278   8.418 -0.1460  0.0547 -0.1045
  658ERGO    C2 9308   6.018  17.216   8.065  0.2598  0.3893 -0.1859
  659ERGO   ROH 9309   8.390   3.450   9.661  0.0822  0.0385 -0.0008
  659ERGO    R1 9310   8.383   3.625   9.438  0.0113 -0.0592 -0.0772
  659ERGO    R2 9311   8.458   3.546   9.184 -0.2119 -0.2150 -0.1006
  659ERGO    R3 9312   8.211   3.639   9.118 -0.2147 -0.1215  0.0411
  659ERGO    R4 9313   8.365   3.657   8.870 -0.3272 -0.0714 -0.0164
  659ERGO    R5 9314   8.253   3.818   8.965 -0.2385 -0.0785  0.0900
  659ERGO    C1 9315   8.079   3.810   8.626 -0.3969  0.1000  0.1655
  659ERGO    C2 9316   7.990   3.675   8.346  0.0479 -0.0255 -0.2031
  660ERGO   ROH 9317  15.914  16.191   9.987 -0.1050  0.1648  0.0609
  660ERGO    R1 9318  15.870  16.223   9.709  0.1935 -0.0520 -0.0150
  660ERGO    R2 9319  15.777  16.459   9.600 -0.1153 -0.2780 -0.2420
  660ERGO    R3 9320  15.999  16.437   9.445  0.1361  0.0690  0.0518
  660ERGO    R4 9321  15.810  16.587   9.280  0.0157 -0.4054 -0.2813
  660ERGO    R5 9322  15.915  16.405   9.223  0.4633 -0.2432 -0.0428
  660ERGO    C1 9323  16.037  16.641   8.949  0.3278 -0.1537 -0.0285
  660ERGO    C2 9324  16.106  16.848   8.586 -0.1367 -0.1798  0.0100
  661ERGO   ROH 9325  12.922   5.179  10.077 -0.0445  0.1143  0.0902
  661ERGO    R1 9326  12.802   5.118   9.828  0.1279 -0.0684  0.0499
  661ERGO    R2 9327  12.713   5.314   9.654 -0.1253 -0.2002  0.0332
  661ERGO    R3 9328  12.873   5.183   9.477  0.1372  0.0556  0.0728
  661ERGO    R4 9329  12.733   5.383   9.316 -0.2427 -0.2319  0.0187
  661ERGO    R5 9330  12.743   5.169   9.277  0.1636 -0.2354  0.0675
  661ERGO    C1 9331  12.895   5.301   8.953 -0.0646 -0.0103  0.0475
  661ERGO    C2 9332  12.882   5.238   8.651  0.1773  0.0089 -0.3576
  662ERGO   ROH 9333  13.314  15.805   9.998  0.1450 -0.0866 -0.0610
  662ERGO    R1 9334  13.158  15.778   9.763  0.2110 -0.2179 -0.0905
  662ERGO    R2 9335  12.990  15.978   9.671 -0.2431 -0.4969  0.0945
  662ERGO    R3 9336  13.133  15.947   9.442 -0.1538  0.0368  0.0656
  662ERGO    R4 9337  12.875  16.052   9.354 -0.3446 -0.3298  0.1693
  662ERGO    R5 9338  12.973  15.872   9.281 -0.0016 -0.0708 -0.0382
  662ERGO    C1 9339  12.942  16.066   8.955 -0.3197  0.2687  0.1858
  662ERGO    C2 9340  12.888  16.264   8.674 -0.1227 -0.1703  0.0960
  663ERGO   ROH 9341   7.065  17.219   9.419  0.2109 -0.3374 -0.0092
  663ERGO    R1 9342   6.970  17.099   9.181  0.0579 -0.1514 -0.0437
  663ERGO    R2 9343   6.774  17.215   9.023  0.0959  0.0674  0.0686
  663ERGO    R3 9344   6.960  17.185   8.828  0.0191  0.0312  0.0004
  663ERGO    R4 9345   6.707  17.213   8.685 -0.0558 -0.1287  0.0981
  663ERGO    R5 9346   6.851  17.052   8.662 -0.0109 -0.0917  0.1163
  663ERGO    C1 9347   6.842  17.182   8.304 -0.2163 -0.2769  0.0512
  663ERGO    C2 9348   6.722  17.302   7.993  0.2627  0.0384  0.1813
  664ERGO   ROH 9349   5.662  12.744   9.834  0.2535  0.0012 -0.1920
  664ERGO    R1 9350   5.513  12.831   9.610  0.1352 -0.1654 -0.1796
  664ERGO    R2 9351   5.629  12.960   9.395 -0.0243 -0.0463 -0.1960
  664ERGO    R3 9352   5.508  12.762   9.253  0.1722 -0.1826 -0.1769
  664ERGO    R4 9353   5.575  12.966   9.053 -0.0204 -0.1381 -0.1984
  664ERGO    R5 9354   5.379  12.877   9.088  0.0632 -0.3265 -0.1943
  664ERGO    C1 9355   5.430  12.784   8.721  0.1662 -0.3195 -0.1820
  664ERGO    C2 9356   5.379  12.700   8.374 -0.2065  0.2832  0.1671
  665ERGO   ROH 9357  14.381  11.497   9.594  0.0222 -0.1776 -0.0537
  665ERGO    R1 9358  14.230  11.669   9.427 -0.2021 -0.2419  0.0779
  665ERGO    R2 9359  14.346  11.824   9.231 -0.3871  0.1318  0.2516
  665ERGO    R3 9360  14.164  11.700   9.071 -0.1606  0.0013  0.0905
  665ERGO    R4 9361  14.274  11.916   8.905 -0.2534  0.1490  0.2264
  665ERGO    R5 9362  14.063  11.878   8.946 -0.2461 -0.0632  0.0707
  665ERGO    C1 9363  14.062  11.852   8.566  0.0368  0.0367  0.0606
  665ERGO    C2 9364  13.998  11.956   8.286  0.0013 -0.0002 -0.2982
  666ERGO   ROH 9365   1.314   6.531   9.903  0.0934 -0.1557  0.0522
  666ERGO    R1 9366   1.217   6.508   9.638  0.0615 -0.1896  0.0677
  666ERGO    R2 9367   1.133   6.726   9.491  0.0324 -0.2147  0.0582
  666ERGO    R3 9368   1.313   6.632   9.310  0.0101 -0.2217  0.0382
  666ERGO    R4 9369   1.143   6.816   9.157 -0.0502 -0.2506  0.0454
  666ERGO    R5 9370   1.186   6.608   9.108 -0.0359 -0.2607  0.0645
  666ERGO    C1 9371   1.317   6.779   8.793 -0.1192 -0.2779  0.0193
  666ERGO    C2 9372   1.522   6.940   8.614  0.4396  0.1025 -0.0965
  667ERGO   ROH 9373   0.161   7.907   9.801 -0.1239 -0.0399 -0.0568
  667ERGO    R1 9374   0.284   7.875   9.548  0.0307  0.1515 -0.0084
  667ERGO    R2 9375   0.200   7.686   9.364  0.3376  0.0825 -0.0839
  667ERGO    R3 9376   0.181   7.901   9.200  0.1563  0.0935 -0.0501
  667ERGO    R4 9377   0.199   7.672   9.019  0.2809  0.1335 -0.0860
  667ERGO    R5 9378   0.325   7.849   9.016  0.1570  0.2211 -0.0855
  667ERGO    C1 9379   0.181   7.866   8.663  0.0777  0.1735 -0.0556
  667ERGO    C2 9380   0.051   7.842   8.373 -0.1633  0.1427  0.0832
  668ERGO   ROH 9381   7.753  14.392   9.735 -0.2674  0.4841 -0.1765
  668ERGO    R1 9382   7.701  14.330   9.464 -0.2109  0.4759 -0.1866
  668ERGO    R2 9383   7.816  14.468   9.255  0.1520  0.2158 -0.1730
  668ERGO    R3 9384   7.895  14.221   9.176 -0.2132  0.0484 -0.0336
  668ERGO    R4 9385   7.805  14.353   8.929  0.4573  0.2471 -0.1953
  668ERGO    R5 9386   7.738  14.160   9.006 -0.0654  0.3730 -0.2985
  668ERGO    C1 9387   7.874  14.053   8.665  0.2923  0.1083 -0.0773
  668ERGO    C2 9388   7.955  14.153   8.257 -0.1580  0.1191 -0.0184
  669ERGO   ROH 9389   7.999  17.289   9.585  0.0158 -0.0104  0.0130
  669ERGO    R1 9390   7.818  17.225   9.377 -0.0571  0.0306  0.0641
  669ERGO    R2 9391   7.557  17.312   9.375 -0.0585  0.0206  0.1800
  669ERGO    R3 9392   7.624  17.408   9.130 -0.1550  0.0786  0.1745
  669ERGO    R4 9393   7.379  17.254   9.085 -0.1904  0.1059  0.2417
  669ERGO    R5 9394   7.568  17.230   8.980 -0.2337  0.1177  0.1534
  669ERGO    C1 9395   7.339  17.310   8.685 -0.3577  0.2102  0.2725
  669ERGO    C2 9396   7.314  17.213   8.474 -0.1618  0.0859 -0.1804
  670ERGO   ROH 9397  13.587  11.111  10.028  0.0250  0.0410 -0.2365
  670ERGO    R1 9398  13.480  11.038   9.776 -0.0459  0.1897 -0.2518
  670ERGO    R2 9399  13.409  11.224   9.585  0.1331  0.2988 -0.2220
  670ERGO    R3 9400  13.575  11.078   9.427 -0.0022  0.1653 -0.2414
  670ERGO    R4 9401  13.387  11.205   9.241  0.0214  0.2283 -0.2108
  670ERGO    R5 9402  13.432  10.992   9.255 -0.1005  0.2088 -0.1777
  670ERGO    C1 9403  13.530  11.056   8.892 -0.1706  0.0618 -0.2223
  670ERGO    C2 9404  13.723  11.027   8.632 -0.1019 -0.1583 -0.0770
  671ERGO   ROH 9405  14.135  13.814   9.723 -0.2648  0.0165 -0.0813
  671ERGO    R1 9406  14.204  13.742   9.458 -0.3870  0.0002 -0.1088
  671ERGO    R2 9407  14.032  13.776   9.245 -0.3258  0.3995 -0.0982
  671ERGO    R3 9408  14.242  13.912   9.139 -0.0720  0.0705 -0.0384
  671ERGO    R4 9409  14.098  13.803   8.907 -0.4021  0.5908 -0.0992
  671ERGO    R5 9410  14.310  13.779   8.951 -0.4232  0.0993 -0.1976
  671ERGO    C1 9411  14.333  13.948   8.610 -0.2081  0.3933 -0.0435
  671ERGO    C2 9412  14.134  14.100   8.278  0.2374 -0.0112  0.0629
  672ERGO   ROH 9413   8.287  17.999   9.282  0.2214  0.0302  0.1370
  672ERGO    R1 9414   8.458  17.887   9.086  0.1225  0.0015  0.0671
  672ERGO    R2 9415   8.363  17.783   8.849  0.0011 -0.0513  0.1410
  672ERGO    R3 9416   8.542  17.956   8.739 -0.0670 -0.0643  0.0064
  672ERGO    R4 9417   8.514  17.741   8.540  0.0007 -0.2253  0.1627
  672ERGO    R5 9418   8.700  17.815   8.627 -0.0198 -0.0919  0.1029
  672ERGO    C1 9419   8.769  17.879   8.257 -0.0634 -0.3390  0.0490
  672ERGO    C2 9420   8.761  18.052   7.879  0.0444 -0.0316 -0.1599
  673ERGO   ROH 9421   0.121   5.988   9.652 -0.0451  0.1858  0.0640
  673ERGO    R1 9422   0.268   6.017   9.412 -0.0174  0.1530  0.0763
  673ERGO    R2 9423   0.286   5.816   9.223 -0.0127  0.1330  0.0937
  673ERGO    R3 9424   0.196   6.010   9.055  0.0178  0.1262  0.0704
  673ERGO    R4 9425   0.362   5.838   8.886  0.0166  0.1040  0.0988
  673ERGO    R5 9426   0.381   6.054   8.910  0.0310  0.1016  0.0831
  673ERGO    C1 9427   0.322   6.034   8.534  0.0624  0.0807  0.0800
  673ERGO    C2 9428   0.461   5.986   8.307  0.1365  0.0099  0.1109
  674ERGO   ROH 9429   4.587   6.684   9.261  0.1323 -0.2815  0.1326
  674ERGO    R1 9430   4.676   6.672   8.992 -0.0240 -0.3196  0.0824
  674ERGO    R2 9431   4.505   6.622   8.782 -0.1931 -0.0940  0.1645
  674ERGO    R3 9432   4.608   6.853   8.684  0.0013 -0.1815  0.1566
  674ERGO    R4 9433   4.542   6.694   8.446 -0.2984 -0.0659  0.1579
  674ERGO    R5 9434   4.735   6.785   8.492 -0.1734 -0.2797  0.0728
  674ERGO    C1 9435   4.661   6.954   8.158 -0.1772 -0.1317  0.1465
  674ERGO    C2 9436   4.582   6.995   7.815 -0.2251 -0.0970 -0.0025
  675PSPI    C1 9437   5.917  14.164   5.632 -0.3405 -0.1637 -0.0088
  675PSPI    C2 9438   5.866  13.865   5.371 -0.1655 -0.0019 -0.2320
  675PSPI    C3 9439   5.854  14.245   5.246 -0.3014  0.0845  0.0350
  675PSPI   PO4 9440   5.684  14.025   5.852  0.1812  0.0309 -0.0498
  675PSPI   GL1 9441   5.462  14.003   6.200 -0.0592 -0.3890  0.0191
  675PSPI   GL2 9442   5.723  13.983   6.317 -0.2460 -0.1947 -0.2704
  675PSPI   C1A 9443   5.365  14.215   6.580 -0.1311 -0.0748  0.0115
  675PSPI   C2A 9444   5.235  14.483   6.893  0.1939  0.0463 -0.0927
  675PSPI   C3A 9445   5.040  14.494   7.303  0.0339  0.2536 -0.1287
  675PSPI   C4A 9446   5.111  14.391   7.637 -0.0384  0.1672 -0.1829
  675PSPI   C1B 9447   5.604  13.792   6.834  0.3174 -0.2242 -0.1208
  675PSPI   C2B 9448   5.549  14.066   7.190 -0.0468  0.1915  0.0519
  675PSPI   C3B 9449   5.513  14.480   7.421 -0.0131 -0.4248  0.1427
  675PSPI   C4B 9450   5.449  14.705   7.854 -0.0827 -0.0160  0.0853
  676PSPI    C1 9451  17.870   0.785   6.317 -0.3501 -0.0385  0.1191
  676PSPI    C2 9452  17.585   0.855   6.044  0.0542  0.1445 -0.2682
  676PSPI    C3 9453  17.749   0.491   6.074 -0.0289  0.1100 -0.2313
  676PSPI   PO4 9454  18.136   1.079   6.268  0.1800  0.0835  0.1364
  676PSPI   GL1 9455  18.221   1.362   6.562 -0.0713  0.0865  0.3660
  676PSPI   GL2 9456  18.156   1.653   6.551  0.1436 -0.1173  0.1441
  676PSPI   C1A 9457  18.359   1.326   6.972 -0.4015  0.1152 -0.0423
  676PSPI   C2A 9458  18.438   1.387   7.365  0.0593 -0.0529 -0.2401
  676PSPI   C3A 9459  18.214   1.348   7.764 -0.1951 -0.3134 -0.0917
  676PSPI   C4A 9460  18.035   1.055   8.075 -0.2828  0.1454 -0.6834
  676PSPI   C1B 9461  17.887   1.663   6.829 -0.0141  0.1016  0.1308
  676PSPI   C2B 9462  17.528   1.616   7.159 -0.0667  0.1544 -0.2576
  676PSPI   C3B 9463  17.051   1.525   7.278 -0.0378  0.2236 -0.1546
  676PSPI   C4B 9464  16.829   1.104   7.236  0.2720  0.1787 -0.1569
  677PSPI    C1 9465  13.207   0.282   5.980 -0.1554  0.0625  0.2141
  677PSPI    C2 9466  13.234   0.652   6.130 -0.1003  0.0580  0.2154
  677PSPI    C3 9467  13.423   0.559   5.789 -0.2913  0.0904  0.0995
  677PSPI   PO4 9468  13.256   0.119   6.221 -0.1700 -0.0773 -0.2900
  677PSPI   GL1 9469  13.144  -0.187   6.527 -0.0425 -0.0123 -0.1504
  677PSPI   GL2 9470  12.973  -0.493   6.424  0.3133 -0.0552  0.1748
  677PSPI   C1A 9471  13.192  -0.008   6.912 -0.0657  0.1244 -0.1493
  677PSPI   C2A 9472  13.390   0.078   7.233 -0.0639 -0.3343  0.0055
  677PSPI   C3A 9473  13.526   0.079   7.607 -0.2616 -0.2656 -0.1613
  677PSPI   C4A 9474  13.582  -0.172   7.938 -0.1046  0.2511 -0.0301
  677PSPI   C1B 9475  13.047  -0.640   6.856 -0.1212  0.1189  0.0574
  677PSPI   C2B 9476  13.212  -0.870   7.170  0.0640  0.3518 -0.0235
  677PSPI   C3B 9477  13.639  -0.911   7.409  0.1350 -0.0460  0.0676
  677PSPI   C4B 9478  14.051  -1.071   7.500 -0.1002  0.2169  0.0966
  678PSPI    C1 9479   7.022  14.433   5.711 -0.0347 -0.0162 -0.0975
  678PSPI    C2 9480   6.912  14.739   5.944  0.2431  0.0551 -0.0558
  678PSPI    C3 9481   7.009  14.804   5.561 -0.2239 -0.0635 -0.2006
  678PSPI   PO4 9482   7.246  14.327   5.881 -0.3312 -0.2893  0.1519
  678PSPI   GL1 9483   7.205  14.553   6.289  0.4187  0.4757 -0.0343
  678PSPI   GL2 9484   7.355  14.792   6.475  0.1675  0.3205  0.3098
  678PSPI   C1A 9485   6.831  14.848   6.431 -0.2025  0.0607 -0.0440
  678PSPI   C2A 9486   6.732  14.931   6.934 -0.1421  0.2440  0.5032
  678PSPI   C3A 9487   6.539  14.924   7.276 -0.1422 -0.0130 -0.2483
  678PSPI   C4A 9488   6.509  14.983   7.778 -0.0056 -0.1780  0.2147
  678PSPI   C1B 9489   7.293  14.792   6.842  0.0325  0.2187 -0.1308
  678PSPI   C2B 9490   7.156  15.028   7.075 -0.0896  0.2076  0.0086
  678PSPI   C3B 9491   6.933  15.170   7.517  0.1236 -0.0805  0.0678
  678PSPI   C4B 9492   6.611  15.359   7.438  0.1004 -0.3786 -0.2173
  679PSPI    C1 9493   7.524   2.692   5.433 -0.2633 -0.1554 -0.0142
  679PSPI    C2 9494   7.285   2.500   5.176 -0.0611 -0.3416 -0.0661
  679PSPI    C3 9495   7.672   2.552   5.089 -0.1082  0.0775 -0.0444
  679PSPI   PO4 9496   7.502   2.626   5.629 -0.2927  0.2300 -0.3128
  679PSPI   GL1 9497   7.566   2.796   6.042  0.0696  0.0132 -0.0450
  679PSPI   GL2 9498   7.323   3.026   6.003 -0.1987  0.1634  0.1882
  679PSPI   C1A 9499   7.734   2.550   6.420 -0.0165  0.3240  0.1668
  679PSPI   C2A 9500   7.669   2.528   6.892 -0.0320 -0.0137  0.1462
  679PSPI   C3A 9501   7.564   2.458   7.338  0.1352  0.0391  0.0870
  679PSPI   C4A 9502   7.509   2.531   7.798  0.0279  0.1582 -0.1633
  679PSPI   C1B 9503   7.045   3.181   6.286 -0.0080  0.0999 -0.0034
  679PSPI   C2B 9504   6.883   3.025   6.666 -0.0353 -0.1463  0.0808
  679PSPI   C3B 9505   6.886   2.982   7.044  0.5044  0.2656 -0.3287
  679PSPI   C4B 9506   6.821   3.206   7.367 -0.0596 -0.0210  0.3790
  680PSPI    C1 9507   9.471  15.211   5.724 -0.1450  0.1353 -0.1505
  680PSPI    C2 9508   9.083  15.151   5.802 -0.0824 -0.1287 -0.0334
  680PSPI    C3 9509   9.261  14.952   5.503  0.0494 -0.2899  0.1497
  680PSPI   PO4 9510   9.603  15.219   6.013 -0.0146 -0.2811 -0.0169
  680PSPI   GL1 9511   9.541  15.518   6.415 -0.1919 -0.0102 -0.1093
  680PSPI   GL2 9512   9.435  15.644   6.551  0.1881  0.3749 -0.0939
  680PSPI   C1A 9513   9.846  15.471   6.751  0.1874 -0.0372  0.0275
  680PSPI   C2A 9514  10.003  15.533   7.177  0.2385 -0.0320 -0.2002
  680PSPI   C3A 9515   9.984  15.414   7.517 -0.1109 -0.0159  0.0496
  680PSPI   C4A 9516  10.158  15.172   7.835 -0.2516 -0.1338 -0.1059
  680PSPI   C1B 9517   9.518  15.774   7.015 -0.4544  0.1811  0.1252
  680PSPI   C2B 9518   9.420  15.595   7.393 -0.3906  0.1564  0.0057
  680PSPI   C3B 9519   9.201  15.548   7.721 -0.1433  0.2299 -0.1331
  680PSPI   C4B 9520   9.115  15.229   8.045  0.1801 -0.3435 -0.0702
  681PSPI    C1 9521   2.231   0.480   5.817 -0.0056  0.0134  0.2741
  681PSPI    C2 9522   2.554   0.323   5.993  0.0740  0.2051  0.3011
  681PSPI    C3 9523   2.446   0.200   5.628  0.1229  0.0735  0.3302
  681PSPI   PO4 9524   2.274   0.733   5.891 -0.1099 -0.2877  0.2665
  681PSPI   GL1 9525   2.533   0.809   6.150  0.1065 -0.0372 -0.0669
  681PSPI   GL2 9526   2.360   1.159   6.175 -0.0203 -0.2769 -0.0221
  681PSPI   C1A 9527   2.604   0.878   6.525  0.3230 -0.0402  0.1326
  681PSPI   C2A 9528   2.417   0.686   6.810 -0.1460  0.2125 -0.5409
  681PSPI   C3A 9529   1.985   0.728   6.936  0.1204  0.1330  0.0059
  681PSPI   C4A 9530   1.890   0.980   7.392  0.1229 -0.1854 -0.1517
  681PSPI   C1B 9531   2.483   1.372   6.500 -0.2904  0.0036 -0.0416
  681PSPI   C2B 9532   2.683   1.384   6.852 -0.0476 -0.0146 -0.2849
  681PSPI   C3B 9533   2.723   1.396   7.301 -0.0106  0.1090  0.2963
  681PSPI   C4B 9534   2.700   1.075   7.603  0.0510 -0.1163  0.0640
  682PSPI    C1 9535  16.224   8.103   5.677  0.0000  0.3110  0.1293
  682PSPI    C2 9536  16.471   8.340   5.469  0.1153  0.0310 -0.0595
  682PSPI    C3 9537  16.554   7.951   5.510 -0.2199 -0.0381  0.0008
  682PSPI   PO4 9538  16.081   8.227   5.912  0.2164 -0.3126  0.0873
  682PSPI   GL1 9539  15.915   8.075   6.247 -0.1160 -0.0044 -0.1299
  682PSPI   GL2 9540  15.784   8.313   6.383  0.0965  0.1623 -0.2276
  682PSPI   C1A 9541  16.134   8.155   6.713 -0.1715  0.2160 -0.0389
  682PSPI   C2A 9542  16.257   7.994   7.117 -0.0684 -0.1322  0.0526
  682PSPI   C3A 9543  16.554   7.989   7.338  0.0205  0.0355  0.1648
  682PSPI   C4A 9544  16.799   7.677   7.434  0.1854 -0.2600  0.0849
  682PSPI   C1B 9545  15.402   8.339   6.520 -0.2310 -0.2069 -0.2290
  682PSPI   C2B 9546  15.161   8.312   6.920  0.0439  0.0833  0.4194
  682PSPI   C3B 9547  15.081   8.443   7.379  0.0142  0.2471 -0.1884
  682PSPI   C4B 9548  15.007   8.633   7.769  0.1044  0.4737  0.1427
  683PSPI    C1 9549   5.819  15.031   5.538 -0.0569  0.1603  0.1046
  683PSPI    C2 9550   6.197  15.121   5.443 -0.0007 -0.0598  0.1154
  683PSPI    C3 9551   5.912  15.132   5.163  0.0401 -0.0347  0.0746
  683PSPI   PO4 9552   5.899  15.101   5.872  0.3136  0.1668 -0.0069
  683PSPI   GL1 9553   5.851  15.312   6.257  0.1761 -0.0385 -0.1735
  683PSPI   GL2 9554   5.725  15.216   6.607  0.1313  0.2121  0.1623
  683PSPI   C1A 9555   5.968  15.648   6.577 -0.1505  0.4204 -0.1569
  683PSPI   C2A 9556   5.953  15.725   7.026  0.3346  0.1427 -0.1082
  683PSPI   C3A 9557   5.996  15.851   7.366  0.4214 -0.3489 -0.3082
  683PSPI   C4A 9558   6.220  15.663   7.712 -0.0652  0.0277 -0.0970
  683PSPI   C1B 9559   5.683  15.320   7.076  0.0372  0.2467  0.1676
  683PSPI   C2B 9560   5.668  15.491   7.396  0.0034 -0.0697  0.0435
  683PSPI   C3B 9561   5.736  15.570   7.817  0.3521 -0.2014 -0.2715
  683PSPI   C4B 9562   5.901  15.473   8.188  0.0608  0.0819  0.1879
  684PSPI    C1 9563  10.135   5.435   5.619  0.1144 -0.1529 -0.0773
  684PSPI    C2 9564   9.761   5.334   5.522  0.0206  0.1232 -0.0126
  684PSPI    C3 9565  10.062   5.244   5.276 -0.0823 -0.1309 -0.0490
  684PSPI   PO4 9566  10.155   5.401   5.916  0.0027 -0.1787  0.1892
  684PSPI   GL1 9567   9.954   5.432   6.292 -0.0640  0.2646  0.0906
  684PSPI   GL2 9568  10.127   5.164   6.399 -0.0262  0.1015 -0.3023
  684PSPI   C1A 9569   9.747   5.618   6.616 -0.2587  0.0427  0.2367
  684PSPI   C2A 9570   9.611   5.995   6.872 -0.2869  0.3339  0.2310
  684PSPI   C3A 9571   9.699   6.088   7.266 -0.0006  0.0928  0.0783
  684PSPI   C4A 9572   9.860   6.215   7.709 -0.0006  0.0865  0.1580
  684PSPI   C1B 9573  10.196   5.348   6.780 -0.1070 -0.0358  0.2384
  684PSPI   C2B 9574  10.455   5.499   7.110 -0.2422 -0.3267 -0.2446
  684PSPI   C3B 9575  10.461   5.569   7.541 -0.0891  0.1722 -0.2250
  684PSPI   C4B 9576  10.637   5.440   7.848 -0.0095 -0.0945  0.1146
  685PSPI    C1 9577   8.948   7.471   5.498 -0.1684 -0.4409 -0.1671
  685PSPI    C2 9578   8.972   7.658   5.146 -0.3462  0.0873  0.0901
  685PSPI    C3 9579   8.704   7.366   5.199 -0.1474 -0.1718 -0.2818
  685PSPI   PO4 9580   8.819   7.638   5.741  0.0702  0.1447  0.1805
  685PSPI   GL1 9581   8.625   7.512   6.071 -0.1196 -0.0763  0.2245
  685PSPI   GL2 9582   8.330   7.287   6.135 -0.0513  0.1246  0.1363
  685PSPI   C1A 9583   8.705   7.572   6.524  0.2029 -0.2831  0.0165
  685PSPI   C2A 9584   8.588   7.621   6.869 -0.0579 -0.2793  0.3071
  685PSPI   C3A 9585   8.615   7.491   7.321  0.1029  0.2754 -0.0952
  685PSPI   C4A 9586   8.431   7.569   7.750  0.1520  0.1702  0.0531
  685PSPI   C1B 9587   8.286   7.290   6.573  0.1425  0.2741 -0.0584
  685PSPI   C2B 9588   8.346   7.235   6.984 -0.0280 -0.2210  0.0762
  685PSPI   C3B 9589   8.173   7.184   7.386  0.1523  0.3114 -0.0344
  685PSPI   C4B 9590   8.205   7.118   7.839 -0.0122 -0.2558 -0.1138
  686PSPI    C1 9591   0.847   4.717   5.697  0.1146  0.0809 -0.1497
  686PSPI    C2 9592   0.780   4.517   5.357 -0.1170  0.0361 -0.0798
  686PSPI    C3 9593   0.718   4.912   5.372 -0.2961  0.0070 -0.0367
  686PSPI   PO4 9594   0.822   4.504   5.959  0.0877  0.1682  0.1449
  686PSPI   GL1 9595   0.905   4.644   6.361  0.0521 -0.1241  0.0534
  686PSPI   GL2 9596   1.183   4.882   6.279 -0.0621 -0.1772 -0.3309
  686PSPI   C1A 9597   0.917   4.588   6.822  0.1758 -0.0440  0.0020
  686PSPI   C2A 9598   1.102   4.562   7.184 -0.0541 -0.1387 -0.0335
  686PSPI   C3A 9599   1.406   4.558   7.536 -0.0298 -0.4059  0.0239
  686PSPI   C4A 9600   1.654   5.014   7.622  0.2237 -0.0605 -0.0877
  686PSPI   C1B 9601   1.153   4.993   6.726  0.1003 -0.0429  0.2205
  686PSPI   C2B 9602   0.805   5.073   7.061 -0.1035  0.2798  0.0005
  686PSPI   C3B 9603   0.768   4.867   7.423  0.2329 -0.3230  0.2496
  686PSPI   C4B 9604   0.528   4.603   7.638 -0.0330 -0.0647 -0.3854
  687PSPI    C1 9605   3.751  16.705   6.022 -0.0447 -0.1434  0.0233
  687PSPI    C2 9606   3.647  16.625   5.644  0.1724 -0.0505 -0.0575
  687PSPI    C3 9607   3.978  16.836   5.720  0.0489  0.0614  0.1802
  687PSPI   PO4 9608   3.537  16.836   6.142 -0.5899 -0.1990 -0.0624
  687PSPI   GL1 9609   3.524  17.243   6.346 -0.3915  0.1653  0.2815
  687PSPI   GL2 9610   3.871  17.514   6.415  0.3185  0.1521 -0.1244
  687PSPI   C1A 9611   3.483  17.346   6.802 -0.3384  0.0502  0.2194
  687PSPI   C2A 9612   3.705  17.327   7.255 -0.1206 -0.0466  0.1769
  687PSPI   C3A 9613   3.597  17.447   7.752 -0.0459 -0.1045  0.1034
  687PSPI   C4A 9614   3.589  17.772   8.122  0.1200  0.1929 -0.1933
  687PSPI   C1B 9615   3.926  17.676   6.819  0.1589 -0.1499 -0.0705
  687PSPI   C2B 9616   3.952  17.749   7.262  0.1447 -0.1693 -0.1553
  687PSPI   C3B 9617   3.986  17.997   7.748 -0.0567 -0.2088 -0.0892
  687PSPI   C4B 9618   4.184  17.911   8.134 -0.1634 -0.1050  0.0381
  688PSPI    C1 9619  11.791   0.370   6.188 -0.2492  0.1501 -0.1961
  688PSPI    C2 9620  12.052   0.323   5.889  0.0737 -0.1389  0.1206
  688PSPI    C3 9621  11.966   0.690   6.023  0.3349 -0.0404  0.0266
  688PSPI   PO4 9622  11.824   0.130   6.331  0.2457 -0.2058 -0.2630
  688PSPI   GL1 9623  11.637   0.012   6.734  0.0692 -0.1961  0.0560
  688PSPI   GL2 9624  11.246   0.141   6.867 -0.0980 -0.0653 -0.1609
  688PSPI   C1A 9625  11.673   0.064   7.149  0.0362  0.0191  0.0776
  688PSPI   C2A 9626  11.829  -0.003   7.559  0.0894  0.1884  0.2077
  688PSPI   C3A 9627  12.130  -0.152   7.818 -0.0025  0.2468 -0.0545
  688PSPI   C4A 9628  12.569  -0.220   7.902 -0.0111 -0.2507 -0.2811
  688PSPI   C1B 9629  11.189   0.260   7.247 -0.1351  0.2325  0.0369
  688PSPI   C2B 9630  11.030   0.348   7.646  0.0495  0.1879  0.0155
  688PSPI   C3B 9631  10.976   0.523   8.045 -0.1817  0.0775 -0.1337
  688PSPI   C4B 9632  10.895   0.781   8.223  0.2049  0.1841  0.1018
  689PSPI    C1 9633   8.029   2.185   5.254  0.0576  0.1153 -0.0335
  689PSPI    C2 9634   8.029   1.859   5.023 -0.2107  0.0308  0.0818
  689PSPI    C3 9635   8.328   2.124   4.995  0.0174 -0.2305 -0.0019
  689PSPI   PO4 9636   7.807   2.153   5.436  0.3725  0.1198 -0.1345
  689PSPI   GL1 9637   7.670   2.097   5.854  0.1495 -0.1553  0.3228
  689PSPI   GL2 9638   7.501   2.293   5.988  0.3265  0.1161 -0.1172
  689PSPI   C1A 9639   7.937   2.172   6.219 -0.1388  0.0783 -0.2897
  689PSPI   C2A 9640   7.807   2.144   6.647  0.1681  0.3400  0.0190
  689PSPI   C3A 9641   7.815   2.067   7.111 -0.2301  0.0718 -0.0611
  689PSPI   C4A 9642   7.868   2.060   7.577 -0.2467 -0.1387  0.0160
  689PSPI   C1B 9643   7.159   2.551   6.321  0.1529 -0.2196  0.0101
  689PSPI   C2B 9644   7.138   2.462   6.718 -0.1994 -0.1269  0.0594
  689PSPI   C3B 9645   7.110   2.539   7.111 -0.2180 -0.2235  0.0257
  689PSPI   C4B 9646   7.111   2.303   7.528 -0.1289  0.1464  0.3447
  690PSPI    C1 9647  17.383  11.695   5.277  0.1732 -0.3505 -0.3576
  690PSPI    C2 9648  17.221  11.806   4.929  0.1519 -0.0496 -0.2546
  690PSPI    C3 9649  17.568  11.966   5.048 -0.0277  0.1337  0.0349
  690PSPI   PO4 9650  17.165  11.809   5.505  0.1781  0.0736  0.2441
  690PSPI   GL1 9651  17.199  11.983   5.932  0.2921  0.1849  0.2615
  690PSPI   GL2 9652  17.054  12.257   6.097 -0.0907  0.1991  0.4060
  690PSPI   C1A 9653  17.176  11.595   6.211  0.0203 -0.0233  0.2781
  690PSPI   C2A 9654  17.264  11.581   6.616  0.0084  0.0253  0.1952
  690PSPI   C3A 9655  17.268  11.223   7.000  0.0291 -0.0424  0.2158
  690PSPI   C4A 9656  17.332  10.902   7.333 -0.0127  0.3371 -0.0264
  690PSPI   C1B 9657  17.173  12.088   6.387 -0.0789  0.0052 -0.1376
  690PSPI   C2B 9658  17.306  12.145   6.808 -0.4697 -0.1604 -0.0253
  690PSPI   C3B 9659  17.134  12.077   7.208  0.1520 -0.1327  0.1084
  690PSPI   C4B 9660  17.003  12.010   7.629  0.2446 -0.1729  0.1182
  691PSPI    C1 9661   9.497   8.544   5.183 -0.1170  0.0561  0.1721
  691PSPI    C2 9662   9.448   8.253   5.452 -0.1346  0.0498  0.1621
  691PSPI    C3 9663   9.351   8.189   5.069 -0.0794  0.0481  0.1485
  691PSPI   PO4 9664   9.801   8.678   5.421 -0.3879  0.1622  0.2715
  691PSPI   GL1 9665   9.783   8.544   5.873  0.0185 -0.0317 -0.1188
  691PSPI   GL2 9666   9.445   8.537   6.022 -0.3133 -0.2411  0.2751
  691PSPI   C1A 9667   9.893   8.834   6.158 -0.1699  0.2229 -0.0087
  691PSPI   C2A 9668   9.637   9.185   6.386  0.1463  0.0874 -0.1245
  691PSPI   C3A 9669   9.582   9.243   6.816 -0.1836  0.1773 -0.1373
  691PSPI   C4A 9670   9.611   9.451   7.251 -0.3813  0.0447 -0.4843
  691PSPI   C1B 9671   9.537   8.612   6.557  0.0357  0.0124 -0.0461
  691PSPI   C2B 9672   9.783   8.711   6.945 -0.0028 -0.0379  0.1487
  691PSPI   C3B 9673   9.649   8.970   7.348 -0.1161 -0.0456 -0.2593
  691PSPI   C4B 9674   9.718   9.054   7.824 -0.1122  0.1640  0.1946
  692PSPI    C1 9675   1.386   4.843   5.737 -0.0169  0.1626 -0.1677
  692PSPI    C2 9676   1.299   4.580   5.449  0.1633 -0.0204 -0.0572
  692PSPI    C3 9677   1.287   4.972   5.372  0.3015 -0.0692 -0.3410
  692PSPI   PO4 9678   1.606   4.730   5.832  0.0918  0.0167  0.1687
  692PSPI   GL1 9679   1.700   4.628   6.178  0.2539 -0.3410 -0.0655
  692PSPI   GL2 9680   2.071   4.622   6.288  0.2370  0.3155  0.3679
  692PSPI   C1A 9681   1.572   4.710   6.618 -0.0930 -0.1109 -0.0263
  692PSPI   C2A 9682   1.732   4.627   6.985 -0.2990 -0.0316  0.5833
  692PSPI   C3A 9683   1.887   4.524   7.446 -0.2629  0.0939  0.1320
  692PSPI   C4A 9684   1.884   4.597   7.901  0.1158 -0.0482  0.1592
  692PSPI   C1B 9685   2.093   4.586   6.681  0.3255  0.3707  0.2618
  692PSPI   C2B 9686   2.234   4.557   7.061  0.1063 -0.0618 -0.1441
  692PSPI   C3B 9687   2.444   4.734   7.412  0.1051 -0.1369 -0.1198
  692PSPI   C4B 9688   2.717   4.865   7.783 -0.2105  0.0854 -0.3592
  693PSPI    C1 9689  12.955   1.068   6.453 -0.0091 -0.0136  0.0376
  693PSPI    C2 9690  12.857   0.955   6.081 -0.1971  0.4490 -0.0600
  693PSPI    C3 9691  12.581   0.953   6.370 -0.0034 -0.1024  0.1338
  693PSPI   PO4 9692  13.185   0.894   6.642  0.3310  0.0163  0.1750
  693PSPI   GL1 9693  13.261   0.642   6.956  0.2221  0.0379  0.0267
  693PSPI   GL2 9694  13.046   0.463   6.975 -0.0693 -0.2275 -0.1743
  693PSPI   C1A 9695  13.343   0.617   7.340  0.2003  0.1227 -0.0075
  693PSPI   C2A 9696  13.298   0.519   7.711 -0.0093  0.0905 -0.0452
  693PSPI   C3A 9697  13.306   0.326   8.033  0.3081 -0.1266 -0.0249
  693PSPI   C4A 9698  12.978   0.213   8.177  0.2921  0.0080  0.1314
  693PSPI   C1B 9699  12.937   0.267   7.298 -0.2051  0.0409  0.0007
  693PSPI   C2B 9700  12.967   0.165   7.673 -0.0280  0.1878  0.1576
  693PSPI   C3B 9701  13.128  -0.132   7.871 -0.0569  0.1187 -0.2920
  693PSPI   C4B 9702  12.954  -0.355   8.156 -0.2193  0.0342  0.0649
  694PSPI    C1 9703   2.132   9.136   5.849  0.1427  0.2018  0.2995
  694PSPI    C2 9704   2.423   9.287   5.620  0.1073  0.0559  0.1560
  694PSPI    C3 9705   2.355   8.893   5.622 -0.1142  0.0928  0.1598
  694PSPI   PO4 9706   2.172   9.277   6.146 -0.0402 -0.1714  0.0222
  694PSPI   GL1 9707   2.171   9.051   6.528  0.2283  0.2100 -0.0172
  694PSPI   GL2 9708   1.967   8.727   6.602 -0.1074  0.3107  0.1228
  694PSPI   C1A 9709   2.121   9.032   6.947  0.2071  0.0068  0.1077
  694PSPI   C2A 9710   2.139   8.977   7.359 -0.1586  0.3854 -0.0243
  694PSPI   C3A 9711   2.441   8.715   7.552 -0.0736 -0.0960  0.3003
  694PSPI   C4A 9712   2.854   8.497   7.392 -0.3628 -0.1030  0.0662
  694PSPI   C1B 9713   1.903   8.373   6.842  0.2566  0.1083 -0.0147
  694PSPI   C2B 9714   1.453   8.339   6.948 -0.0169  0.1021  0.4336
  694PSPI   C3B 9715   1.088   8.658   7.008 -0.0976  0.0289  0.0443
  694PSPI   C4B 9716   1.012   8.809   7.437 -0.2165  0.3043 -0.1973
  695POPI    C1 9717   1.458   0.683   6.082  0.1587 -0.0366 -0.0876
  695POPI    C2 9718   1.378   0.989   5.837 -0.0154  0.0500  0.0752
  695POPI    C3 9719   1.185   0.642   5.793  0.0353  0.0289  0.0186
  695POPI   PO4 9720   1.487   0.862   6.313  0.0293 -0.0976  0.0214
  695POPI   GL1 9721   1.553   0.863   6.757  0.2285  0.1806  0.2683
  695POPI   GL2 9722   1.369   1.123   6.720 -0.1288 -0.1045  0.1134
  695POPI   C1A 9723   1.409   0.688   7.168  0.0187 -0.0805 -0.2172
  695POPI   D2A 9724   1.394   0.719   7.609  0.1614 -0.0315  0.0375
  695POPI   C3A 9725   1.578   0.331   7.841  0.0896 -0.0407 -0.0605
  695POPI   C4A 9726   1.621   0.156   8.235  0.1348  0.4932  0.2091
  695POPI   C1B 9727   1.544   1.200   7.144 -0.0817  0.0155  0.1079
  695POPI   C2B 9728   1.452   1.206   7.488 -0.4342 -0.3085  0.0690
  695POPI   C3B 9729   1.339   1.117   7.934 -0.2896 -0.0084  0.1141
  695POPI   C4B 9730   1.198   1.095   8.269  0.1278 -0.0822  0.0780
  696POPI    C1 9731  13.770   2.365   6.086 -0.0187 -0.1581  0.0728
  696POPI    C2 9732  13.483   2.234   5.840 -0.0708  0.0703  0.0091
  696POPI    C3 9733  13.835   2.350   5.691  0.0230 -0.1207  0.0782
  696POPI   PO4 9734  13.717   2.255   6.256 -0.2431 -0.1498 -0.0040
  696POPI   GL1 9735  13.534   2.234   6.615 -0.2742  0.1412 -0.0954
  696POPI   GL2 9736  13.228   2.168   6.645 -0.2007  0.1193 -0.0365
  696POPI   C1A 9737  13.812   2.248   6.935 -0.0775 -0.2044  0.0011
  696POPI   D2A 9738  13.996   1.987   7.247 -0.0453 -0.0938  0.0809
  696POPI   C3A 9739  14.175   2.062   7.571  0.1658 -0.3184 -0.2401
  696POPI   C4A 9740  14.118   2.000   8.006  0.2621  0.0198  0.1872
  696POPI   C1B 9741  13.304   2.240   7.073  0.1969  0.2502 -0.2846
  696POPI   C2B 9742  13.569   2.254   7.417  0.1286 -0.3585  0.0203
  696POPI   C3B 9743  13.671   2.232   7.892  0.2352  0.1073  0.0734
  696POPI   C4B 9744  13.509   2.318   8.200  0.0335 -0.0604  0.0533
  697POPI    C1 9745   5.570   5.371   5.354  0.0329 -0.0380  0.2635
  697POPI    C2 9746   5.450   5.104   5.082 -0.1073 -0.0457  0.3318
  697POPI    C3 9747   5.421   5.495   5.005  0.0130 -0.0486  0.2681
  697POPI   PO4 9748   5.758   5.268   5.540 -0.1246 -0.0446  0.2489
  697POPI   GL1 9749   5.826   5.030   5.931 -0.0831 -0.1893  0.1971
  697POPI   GL2 9750   5.444   5.058   5.877 -0.1477  0.1975  0.0291
  697POPI   C1A 9751   5.876   5.159   6.331 -0.0235 -0.0683  0.0520
  697POPI   D2A 9752   5.628   5.241   6.668 -0.4540 -0.1099  0.1130
  697POPI   C3A 9753   5.731   5.276   7.107 -0.0874  0.1960 -0.1980
  697POPI   C4A 9754   5.690   5.299   7.582 -0.0060  0.1948 -0.1577
  697POPI   C1B 9755   5.283   5.271   6.203  0.1799 -0.4054 -0.0357
  697POPI   C2B 9756   5.184   5.545   6.555 -0.1786  0.1505  0.1816
  697POPI   C3B 9757   5.208   5.467   6.969 -0.1537  0.1637  0.3345
  697POPI   C4B 9758   5.277   5.410   7.372  0.0216  0.1026 -0.2901
  698POPI    C1 9759   4.088   7.620   5.343 -0.2329  0.2808  0.2714
  698POPI    C2 9760   3.794   7.524   5.090 -0.0877 -0.0761  0.2311
  698POPI    C3 9761   4.135   7.679   4.951 -0.2006  0.2094  0.2643
  698POPI   PO4 9762   3.931   7.824   5.520  0.0925  0.0367 -0.0326
  698POPI   GL1 9763   4.000   7.931   5.901  0.0127 -0.1370  0.0983
  698POPI   GL2 9764   3.966   8.267   5.900  0.0538 -0.0044  0.0097
  698POPI   C1A 9765   4.171   7.660   6.150  0.0011 -0.0622 -0.0615
  698POPI   D2A 9766   4.155   7.410   6.540 -0.1843  0.2657  0.0170
  698POPI   C3A 9767   4.610   7.398   6.602  0.3223 -0.1344 -0.1324
  698POPI   C4A 9768   5.010   7.430   6.459 -0.0163 -0.0358  0.0099
  698POPI   C1B 9769   4.089   8.096   6.352  0.0281  0.0671 -0.1009
  698POPI   C2B 9770   4.219   7.930   6.688  0.2208  0.0974  0.1085
  698POPI   C3B 9771   4.439   7.647   7.004  0.1971 -0.3305  0.0053
  698POPI   C4B 9772   4.653   7.290   7.207  0.4423 -0.0893 -0.0346
  699POPI    C1 9773   5.324   6.881   5.172 -0.1361  0.1675 -0.0544
  699POPI    C2 9774   5.201   6.531   5.022  0.3490 -0.0501  0.0392
  699POPI    C3 9775   5.454   6.760   4.814  0.0931  0.2126  0.0120
  699POPI   PO4 9776   5.395   6.811   5.415  0.0635 -0.1157  0.2898
  699POPI   GL1 9777   5.278   6.964   5.794  0.3390 -0.2771 -0.0158
  699POPI   GL2 9778   5.593   7.094   5.923 -0.0115 -0.4624  0.1575
  699POPI   C1A 9779   5.235   7.049   6.253  0.1791  0.0947 -0.2881
  699POPI   D2A 9780   5.352   7.210   6.767  0.0186  0.0140  0.0521
  699POPI   C3A 9781   5.030   7.479   6.964 -0.2326 -0.4354  0.0037
  699POPI   C4A 9782   4.889   7.747   7.283  0.1652 -0.0134 -0.0219
  699POPI   C1B 9783   5.739   7.154   6.395  0.1677 -0.1165  0.0942
  699POPI   C2B 9784   6.052   7.103   6.735 -0.1139  0.4019  0.1510
  699POPI   C3B 9785   6.319   7.050   7.090  0.1315  0.0113  0.0242
  699POPI   C4B 9786   6.717   6.931   7.231  0.0633  0.1948  0.4684
  700POPI    C1 9787  12.633   4.647   5.419 -0.0812 -0.6441  0.0046
  700POPI    C2 9788  13.030   4.618   5.457 -0.0280 -0.1785 -0.1344
  700POPI    C3 9789  12.855   4.522   5.111 -0.0081 -0.1496 -0.1524
  700POPI   PO4 9790  12.610   4.721   5.680 -0.1572  0.0549  0.1382
  700POPI   GL1 9791  12.443   4.790   6.099  0.1116  0.3617  0.3002
  700POPI   GL2 9792  12.410   4.510   6.184  0.0300  0.4632 -0.1196
  700POPI   C1A 9793  12.431   4.989   6.446 -0.1820 -0.0282 -0.2171
  700POPI   D2A 9794  12.532   5.207   6.816  0.0014 -0.2081  0.0774
  700POPI   C3A 9795  12.890   5.510   7.001 -0.0544 -0.1976  0.0434
  700POPI   C4A 9796  13.215   5.791   6.821 -0.0076 -0.0487  0.1062
  700POPI   C1B 9797  12.515   4.471   6.595 -0.2182 -0.0707 -0.2384
  700POPI   C2B 9798  12.608   4.779   6.969 -0.4788  0.2326 -0.0275
  700POPI   C3B 9799  12.766   5.056   7.243 -0.1010  0.0327 -0.3887
  700POPI   C4B 9800  12.785   5.014   7.620 -0.0337 -0.2251  0.1085
  701POPI    C1 9801   3.472  14.146   5.784  0.0146  0.1242 -0.1198
  701POPI    C2 9802   3.652  13.796   5.710  0.2459  0.1645  0.2278
  701POPI    C3 9803   3.791  14.132   5.543 -0.0429  0.0824 -0.1939
  701POPI   PO4 9804   3.399  14.272   6.038  0.0903  0.0474 -0.0258
  701POPI   GL1 9805   3.665  14.361   6.379  0.3020 -0.0802 -0.1930
  701POPI   GL2 9806   3.702  14.566   6.611  0.2145  0.2033 -0.0298
  701POPI   C1A 9807   3.964  14.107   6.575 -0.1778 -0.0123 -0.0695
  701POPI   D2A 9808   4.332  13.906   6.710  0.0539  0.0771 -0.2754
  701POPI   C3A 9809   4.330  13.904   7.142 -0.1041  0.3209 -0.2677
  701POPI   C4A 9810   4.450  13.940   7.568 -0.0695  0.2185 -0.0946
  701POPI   C1B 9811   3.468  14.448   6.967  0.4031  0.1373  0.0114
  701POPI   C2B 9812   3.359  14.448   7.387  0.0869 -0.0628 -0.0213
  701POPI   C3B 9813   3.162  14.623   7.753  0.0807 -0.2777  0.1461
  701POPI   C4B 9814   3.242  14.859   8.081 -0.0150  0.0493 -0.5487
  702POPI    C1 9815   8.601  15.323   5.834 -0.2373  0.0123 -0.0282
  702POPI    C2 9816   8.369  15.515   5.570 -0.3331  0.0018  0.0477
  702POPI    C3 9817   8.693  15.317   5.445 -0.1966  0.2662 -0.0245
  702POPI   PO4 9818   8.571  15.437   6.043 -0.0406 -0.1829 -0.0849
  702POPI   GL1 9819   8.603  15.406   6.411  0.2874 -0.0396  0.2444
  702POPI   GL2 9820   8.915  15.673   6.499 -0.2213 -0.1378  0.0262
  702POPI   C1A 9821   8.662  15.439   6.829 -0.3118  0.0344  0.5557
  702POPI   D2A 9822   8.415  15.526   7.083  0.1902 -0.0953  0.2114
  702POPI   C3A 9823   8.303  15.573   7.571 -0.0116  0.0356  0.1478
  702POPI   C4A 9824   8.009  15.536   7.835 -0.2585  0.2205  0.0921
  702POPI   C1B 9825   9.116  15.371   6.783 -0.1928 -0.0245 -0.4561
  702POPI   C2B 9826   8.916  15.209   7.251  0.2958  0.0100  0.1383
  702POPI   C3B 9827   8.639  15.192   7.639  0.1505 -0.3464 -0.0377
  702POPI   C4B 9828   8.416  15.434   8.087  0.0474 -0.0766  0.2347
  703POPI    C1 9829   5.366  14.380   5.896  0.2505 -0.1628 -0.2150
  703POPI    C2 9830   5.470  14.766   5.882 -0.0997 -0.0647 -0.1929
  703POPI    C3 9831   5.592  14.516   5.594  0.1403  0.0576 -0.2002
  703POPI   PO4 9832   5.100  14.438   5.975  0.0196  0.2364 -0.0606
  703POPI   GL1 9833   5.261  14.604   6.338 -0.4810  0.0283  0.0358
  703POPI   GL2 9834   5.366  14.918   6.327 -0.0876 -0.0815 -0.1813
  703POPI   C1A 9835   4.928  14.756   6.581 -0.0289 -0.1156 -0.1370
  703POPI   D2A 9836   4.849  14.874   7.076  0.1834 -0.0549 -0.3593
  703POPI   C3A 9837   4.775  15.177   7.377  0.0168  0.0741  0.0289
  703POPI   C4A 9838   4.700  15.364   7.814  0.1083 -0.1326  0.1404
  703POPI   C1B 9839   5.313  14.969   6.908  0.1489  0.1654  0.2494
  703POPI   C2B 9840   5.326  14.927   7.233  0.0853  0.0003 -0.3218
  703POPI   C3B 9841   5.452  15.062   7.512  0.0388  0.1589 -0.0109
  703POPI   C4B 9842   5.343  15.286   7.900  0.1372  0.0380 -0.1737
  704POPI    C1 9843  15.798   3.212   5.779 -0.2088 -0.0454  0.1653
  704POPI    C2 9844  15.474   3.388   5.624 -0.0315  0.0827 -0.0657
  704POPI    C3 9845  15.567   3.012   5.521 -0.1577  0.0115  0.0753
  704POPI   PO4 9846  15.773   3.332   6.107 -0.0632 -0.1250 -0.0150
  704POPI   GL1 9847  16.093   3.526   6.454  0.2297 -0.0096  0.0323
  704POPI   GL2 9848  15.924   3.240   6.598  0.1444  0.1505  0.0289
  704POPI   C1A 9849  16.382   3.780   6.639 -0.0495 -0.2411  0.0421
  704POPI   D2A 9850  16.630   3.983   6.926 -0.1820  0.1059  0.0804
  704POPI   C3A 9851  16.582   3.969   7.315 -0.0351  0.0191  0.0427
  704POPI   C4A 9852  16.717   3.958   7.798  0.0836 -0.0290 -0.2474
  704POPI   C1B 9853  15.855   3.207   7.101  0.3128  0.2287 -0.0548
  704POPI   C2B 9854  16.085   3.201   7.518  0.1546 -0.1902  0.0115
  704POPI   C3B 9855  16.330   3.003   7.838  0.0986  0.2730  0.1467
  704POPI   C4B 9856  16.477   3.192   8.212  0.1848 -0.1244  0.0028
  705POPI    C1 9857   2.102   4.814   5.262 -0.0403  0.0099 -0.1422
  705POPI    C2 9858   1.789   4.597   5.385  0.0615 -0.0181  0.0711
  705POPI    C3 9859   1.737   4.884   5.112 -0.1027 -0.1998 -0.0925
  705POPI   PO4 9860   2.193   4.856   5.510 -0.0165 -0.0309  0.1987
  705POPI   GL1 9861   2.341   5.019   5.925  0.0327  0.0598 -0.1667
  705POPI   GL2 9862   2.074   5.052   6.007  0.0591  0.2136 -0.0194
  705POPI   C1A 9863   2.425   5.420   6.110 -0.0986 -0.2915  0.3988
  705POPI   D2A 9864   2.445   5.803   5.963 -0.1342  0.2910 -0.2042
  705POPI   C3A 9865   2.046   6.039   6.072  0.0198 -0.1983  0.0160
  705POPI   C4A 9866   1.663   5.908   6.272  0.1437  0.2737  0.0543
  705POPI   C1B 9867   2.299   5.034   6.392 -0.1368  0.3141 -0.0840
  705POPI   C2B 9868   2.435   5.313   6.695  0.2336 -0.0837 -0.2649
  705POPI   C3B 9869   2.390   5.355   7.068  0.0778 -0.0168 -0.0996
  705POPI   C4B 9870   2.494   5.228   7.491 -0.3688  0.0931  0.1376
  706POPI    C1 9871  11.584   9.605   5.995  0.0107 -0.0455  0.0589
  706POPI    C2 9872  11.708   9.793   5.664 -0.0112  0.2245  0.2017
  706POPI    C3 9873  11.936   9.510   5.830  0.0427  0.1542  0.0101
  706POPI   PO4 9874  11.292   9.496   5.856 -0.1541 -0.1563  0.0500
  706POPI   GL1 9875  10.866   9.477   6.099  0.1478  0.0988 -0.2701
  706POPI   GL2 9876  10.581   9.614   5.933 -0.0399  0.1127  0.1610
  706POPI   C1A 9877  10.745   9.613   6.502  0.0579 -0.2118  0.2594
  706POPI   D2A 9878  10.573   9.673   6.851  0.1425  0.2396 -0.0589
  706POPI   C3A 9879  10.635   9.666   7.317  0.0826  0.2308 -0.1038
  706POPI   C4A 9880  10.812   9.879   7.688 -0.1413 -0.2180 -0.0768
  706POPI   C1B 9881  10.391   9.863   6.263  0.1532  0.0432  0.1242
  706POPI   C2B 9882  10.219  10.051   6.643  0.0283 -0.0414 -0.1199
  706POPI   C3B 9883  10.349  10.074   7.104 -0.0372 -0.0180 -0.0034
  706POPI   C4B 9884  10.618  10.267   7.457 -0.2273  0.0904  0.0496
  707POPI    C1 9885  10.261  12.404   5.244  0.1087  0.0151  0.0725
  707POPI    C2 9886  10.547  12.228   5.026 -0.1006 -0.1214 -0.0955
  707POPI    C3 9887  10.474  12.619   4.982  0.0742 -0.0810 -0.0350
  707POPI   PO4 9888  10.253  12.232   5.471  0.0374 -0.1015 -0.0381
  707POPI   GL1 9889  10.494  12.218   5.869  0.0068 -0.1062  0.1681
  707POPI   GL2 9890  10.169  11.982   5.888 -0.2189  0.3023  0.4388
  707POPI   C1A 9891  10.585  12.101   6.224 -0.2079 -0.4829 -0.0234
  707POPI   D2A 9892  10.646  12.281   6.562  0.2143 -0.1506 -0.1269
  707POPI   C3A 9893  10.565  12.312   6.950  0.0237 -0.1545 -0.3194
  707POPI   C4A 9894  10.486  12.256   7.464 -0.1897  0.0493 -0.0526
  707POPI   C1B 9895  10.099  12.073   6.317  0.1887 -0.0100  0.1236
  707POPI   C2B 9896  10.205  12.109   6.695  0.0920 -0.1291 -0.0598
  707POPI   C3B 9897  10.040  12.175   7.086  0.4048  0.2549 -0.1414
  707POPI   C4B 9898   9.973  12.034   7.503 -0.1435  0.1865 -0.0136
  708POPI    C1 9899  17.252   3.710   5.851  0.0394  0.1832  0.1755
  708POPI    C2 9900  17.173   3.472   5.540 -0.0015 -0.0538  0.3637
  708POPI    C3 9901  16.897   3.730   5.669 -0.0023  0.0106  0.2348
  708POPI   PO4 9902  17.459   3.785   5.865 -0.2240 -0.6076 -0.0821
  708POPI   GL1 9903  17.738   3.947   6.221 -0.0964  0.2827 -0.1077
  708POPI   GL2 9904  17.560   3.668   6.391  0.1354 -0.1573  0.2887
  708POPI   C1A 9905  17.791   4.101   6.566  0.0449  0.1371 -0.0494
  708POPI   D2A 9906  17.755   4.115   6.957 -0.0148  0.1605 -0.2415
  708POPI   C3A 9907  17.617   4.422   7.233 -0.1787 -0.2314 -0.0311
  708POPI   C4A 9908  17.537   4.631   7.621  0.1654 -0.0293  0.2440
  708POPI   C1B 9909  17.447   3.718   6.821  0.1644  0.0098 -0.0288
  708POPI   C2B 9910  17.448   3.890   7.276 -0.1024 -0.1846  0.1998
  708POPI   C3B 9911  17.620   4.084   7.581  0.0234 -0.0528 -0.1269
  708POPI   C4B 9912  17.973   4.094   7.826  0.2712  0.0452  0.2107
  709POPI    C1 9913   7.608   6.440   5.185  0.0021  0.0537 -0.1666
  709POPI    C2 9914   7.479   6.064   5.142  0.1740 -0.0186 -0.0602
  709POPI    C3 9915   7.254   6.368   5.012 -0.0659 -0.1456  0.0500
  709POPI   PO4 9916   7.695   6.524   5.421  0.0974  0.4511  0.2287
  709POPI   GL1 9917   7.994   6.375   5.798 -0.0275 -0.2533  0.1183
  709POPI   GL2 9918   8.254   6.340   6.004 -0.0626 -0.0133 -0.1206
  709POPI   C1A 9919   7.784   6.398   6.138  0.0406 -0.0113  0.1935
  709POPI   D2A 9920   7.491   6.547   6.418 -0.1071  0.2944  0.1768
  709POPI   C3A 9921   7.502   6.710   6.742 -0.0506 -0.0352  0.0093
  709POPI   C4A 9922   7.424   7.038   6.979 -0.0414 -0.0875  0.0063
  709POPI   C1B 9923   8.177   6.331   6.488  0.1901 -0.3533  0.2360
  709POPI   C2B 9924   8.076   6.361   6.988 -0.2442  0.2005  0.0116
  709POPI   C3B 9925   8.156   6.339   7.405 -0.2588  0.0612  0.1257
  709POPI   C4B 9926   8.545   6.409   7.766 -0.2757 -0.1395  0.1764
  710POPI    C1 9927   2.170   8.431   5.507 -0.0457 -0.2291 -0.1166
  710POPI    C2 9928   1.859   8.366   5.264 -0.2231 -0.0018  0.0454
  710POPI    C3 9929   1.895   8.717   5.453  0.1135 -0.0404  0.0579
  710POPI   PO4 9930   2.196   8.235   5.664  0.1047 -0.0582 -0.0754
  710POPI   GL1 9931   2.118   7.981   6.064 -0.0493  0.2105  0.1618
  710POPI   GL2 9932   2.390   7.943   6.034  0.1449 -0.2222  0.1752
  710POPI   C1A 9933   2.105   8.142   6.378 -0.0999 -0.1921 -0.0682
  710POPI   D2A 9934   2.263   8.038   6.749  0.1605 -0.1472  0.2818
  710POPI   C3A 9935   2.024   8.053   7.179 -0.0908 -0.0414 -0.0715
  710POPI   C4A 9936   1.916   7.932   7.596  0.3671 -0.1663 -0.1032
  710POPI   C1B 9937   2.616   7.835   6.376  0.1229  0.0298  0.0369
  710POPI   C2B 9938   2.671   7.744   6.761 -0.1534  0.1098  0.1243
  710POPI   C3B 9939   2.798   7.543   7.139 -0.0588 -0.0589  0.1352
  710POPI   C4B 9940   3.018   7.501   7.545  0.0806  0.0170  0.0477
  711POPI    C1 9941   0.050  12.965   5.789 -0.2344 -0.0147 -0.0173
  711POPI    C2 9942  -0.140  13.317   5.800  0.1491  0.1979  0.0230
  711POPI    C3 9943  -0.106  13.118   5.454 -0.0280  0.2208 -0.0089
  711POPI   PO4 9944  -0.055  12.774   5.959  0.1703  0.1742 -0.0957
  711POPI   GL1 9945   0.067  12.574   6.226 -0.1504 -0.1343  0.0835
  711POPI   GL2 9946  -0.127  12.436   6.330 -0.3289 -0.0128 -0.2168
  711POPI   C1A 9947   0.130  12.782   6.597 -0.1389 -0.5064  0.1204
  711POPI   D2A 9948   0.252  12.658   7.000  0.0659  0.1019  0.0069
  711POPI   C3A 9949   0.627  12.444   7.021 -0.0601  0.0715  0.3562
  711POPI   C4A 9950   0.951  12.426   7.298  0.1903  0.2213  0.1782
  711POPI   C1B 9951   0.024  12.326   6.777 -0.0620  0.2575  0.0349
  711POPI   C2B 9952   0.177  12.184   7.207 -0.1493 -0.1554  0.1223
  711POPI   C3B 9953   0.191  12.190   7.652 -0.0002 -0.0135  0.1385
  711POPI   C4B 9954   0.357  12.381   8.012  0.0373  0.2726 -0.0139
  712POPI    C1 9955   8.810  13.409   5.754  0.0754  0.0749  0.0258
  712POPI    C2 9956   8.531  13.692   5.715  0.0894  0.0846 -0.0041
  712POPI    C3 9957   8.832  13.671   5.453  0.1533  0.1154  0.0664
  712POPI   PO4 9958   8.836  13.392   6.002  0.1150  0.0873 -0.6440
  712POPI   GL1 9959   9.134  13.487   6.398  0.0246  0.2904  0.1375
  712POPI   GL2 9960   9.208  13.400   6.710  0.2718 -0.1219 -0.4368
  712POPI   C1A 9961   8.852  13.786   6.545 -0.0158  0.0430 -0.0197
  712POPI   D2A 9962   8.428  13.887   6.677 -0.1830  0.1529 -0.0173
  712POPI   C3A 9963   8.271  13.696   7.040  0.0695  0.1366  0.2591
  712POPI   C4A 9964   8.166  13.446   7.432  0.0700 -0.0657 -0.2155
  712POPI   C1B 9965   9.248  13.293   7.068 -0.0364  0.3851  0.3099
  712POPI   C2B 9966   9.259  13.367   7.460 -0.4589 -0.0872 -0.1879
  712POPI   C3B 9967   9.493  13.167   7.740 -0.1351 -0.1014  0.2295
  712POPI   C4B 9968   9.423  12.918   8.173  0.0831 -0.0567  0.1610
  713POPI    C1 9969  10.781  10.198   5.811 -0.1699 -0.0647 -0.0370
  713POPI    C2 9970  10.651  10.162   5.434 -0.2229 -0.0019 -0.0249
  713POPI    C3 9971  10.404  10.087   5.739 -0.2007  0.0172 -0.0022
  713POPI   PO4 9972  10.979   9.983   5.867  0.0524 -0.0743  0.1422
  713POPI   GL1 9973  11.184   9.866   6.248  0.0476  0.0091  0.1798
  713POPI   GL2 9974  11.478   9.869   6.391  0.2731 -0.0988 -0.0646
  713POPI   C1A 9975  11.096   9.821   6.769 -0.0419  0.3070  0.0445
  713POPI   D2A 9976  11.036   9.914   7.194 -0.1558 -0.1437 -0.0039
  713POPI   C3A 9977  11.129   9.594   7.491  0.0858 -0.0620 -0.0687
  713POPI   C4A 9978  11.469   9.503   7.759 -0.1589 -0.1126  0.0026
  713POPI   C1B 9979  11.597   9.718   6.772  0.0631 -0.0626 -0.0987
  713POPI   C2B 9980  11.735   9.644   7.111 -0.1215 -0.0826 -0.0928
  713POPI   C3B 9981  11.555   9.858   7.428 -0.1563 -0.0390 -0.0757
  713POPI   C4B 9982  11.283  10.197   7.615  0.1073 -0.1915 -0.0454
  714POPI    C1 9983  10.452  16.018   5.993  0.1717  0.2557  0.1920
  714POPI    C2 9984  10.631  16.174   5.671 -0.0194  0.3567  0.1331
  714POPI    C3 9985  10.256  16.279   5.762 -0.1508 -0.0628  0.0979
  714POPI   PO4 9986  10.539  16.056   6.203 -0.4684 -0.2121  0.1155
  714POPI   GL1 9987  10.310  16.152   6.661 -0.2547  0.0843  0.1279
  714POPI   GL2 9988  10.258  15.825   6.541 -0.4096 -0.0816 -0.1335
  714POPI   C1A 9989  10.334  16.342   7.079  0.3914  0.0036 -0.0156
  714POPI   D2A 9990  10.282  16.131   7.441  0.2226 -0.1356 -0.0788
  714POPI   C3A 9991  10.157  15.854   7.787  0.1705 -0.0860 -0.1147
  714POPI   C4A 9992  10.241  15.607   8.141 -0.1092  0.0701  0.3583
  714POPI   C1B 9993  10.374  15.833   7.013 -0.0846 -0.0423 -0.0550
  714POPI   C2B 9994  10.433  15.648   7.446 -0.2252  0.0631  0.1199
  714POPI   C3B 9995  10.629  15.786   7.863  0.0319 -0.2051  0.2336
  714POPI   C4B 9996  10.616  16.023   8.199 -0.1532 -0.0143 -0.0906
  715POPI    C1 9997   4.010   2.958   5.691  0.1552 -0.0493  0.1828
  715POPI    C2 9998   3.642   2.839   5.793  0.1315 -0.0525  0.0945
  715POPI    C3 9999   3.731   2.909   5.409  0.1175  0.3096  0.1531
  715POPI   PO410000   4.227   2.783   5.848 -0.1892 -0.0498  0.1294
  715POPI   GL110001   4.307   2.581   6.264  0.0718 -0.6208  0.1450
  715POPI   GL210002   3.991   2.501   6.285  0.1808  0.0282  0.0887
  715POPI   C1A10003   4.243   2.569   6.783 -0.0732 -0.1235 -0.1830
  715POPI   D2A10004   4.253   2.427   7.200 -0.0143 -0.1277  0.0998
  715POPI   C3A10005   4.638   2.284   7.417  0.4692  0.0231 -0.0361
  715POPI   C4A10006   4.742   1.919   7.742  0.3878  0.0907 -0.4276
  715POPI   C1B10007   3.732   2.589   6.697  0.0555  0.2943 -0.2185
  715POPI   C2B10008   3.734   2.705   7.116 -0.2254  0.0281  0.0388
  715POPI   C3B10009   3.931   2.555   7.519 -0.2710  0.2325 -0.3613
  715POPI   C4B10010   4.277   2.242   7.832 -0.0349 -0.1366  0.1020
  716POPI    C110011  10.894  11.585   5.469  0.1330 -0.0239 -0.0553
  716POPI    C210012  10.516  11.481   5.389  0.1587  0.0140 -0.2293
  716POPI    C310013  10.616  11.867   5.414  0.1472  0.0028  0.0099
  716POPI   PO410014  10.973  11.394   5.707 -0.1342  0.2960 -0.0778
  716POPI   GL110015  11.363  11.259   5.990  0.1872  0.0951  0.0170
  716POPI   GL210016  11.171  11.068   6.127 -0.0010  0.3051  0.1419
  716POPI   C1A10017  11.516  11.398   6.392  0.2853 -0.3165  0.0752
  716POPI   D2A10018  11.444  11.478   6.826  0.2007  0.0075 -0.4894
  716POPI   C3A10019  11.805  11.724   7.010  0.1921  0.1186  0.1515
  716POPI   C4A10020  12.153  11.906   7.190  0.0864 -0.2395  0.1885
  716POPI   C1B10021  11.087  11.184   6.529 -0.3014 -0.3390 -0.0517
  716POPI   C2B10022  11.036  11.346   6.976 -0.0673  0.1289  0.0289
  716POPI   C3B10023  10.831  11.532   7.301  0.1277  0.0156  0.1893
  716POPI   C4B10024  10.679  11.463   7.747 -0.0873  0.1739 -0.1285
  717POPI    C110025  12.411  15.898   5.869  0.2560  0.0122 -0.0572
  717POPI    C210026  12.044  15.967   5.727  0.1871  0.0565  0.1391
  717POPI    C310027  12.353  15.935   5.475  0.0538  0.0465 -0.0250
  717POPI   PO410028  12.303  15.662   6.055  0.0463 -0.0621  0.0932
  717POPI   GL110029  12.104  15.701   6.463 -0.2683 -0.2248  0.0097
  717POPI   GL210030  12.047  15.929   6.662 -0.3234 -0.1316 -0.2373
  717POPI   C1A10031  12.006  15.450   6.953  0.3627 -0.2086 -0.2417
  717POPI   D2A10032  11.830  15.123   7.219 -0.1246 -0.1592  0.0913
  717POPI   C3A10033  11.893  15.101   7.560  0.2718 -0.0495 -0.2581
  717POPI   C4A10034  12.130  15.273   7.922  0.4003 -0.1828 -0.0683
  717POPI   C1B10035  11.908  15.900   7.094 -0.0035 -0.0700 -0.0733
  717POPI   C2B10036  11.916  15.647   7.500 -0.2246 -0.0631 -0.0846
  717POPI   C3B10037  11.975  15.733   7.866  0.1061 -0.2327 -0.3472
  717POPI   C4B10038  11.925  15.941   8.268  0.1483  0.0715 -0.0385
  718POPI    C110039   8.169  12.974   5.449 -0.2056 -0.2349 -0.1124
  718POPI    C210040   7.927  13.223   5.251 -0.0533 -0.1584 -0.2041
  718POPI    C310041   8.197  13.368   5.508 -0.1893 -0.2515 -0.0058
  718POPI   PO410042   7.982  12.721   5.607  0.0244 -0.1613  0.0540
  718POPI   GL110043   7.919  12.642   5.981  0.1443  0.0797  0.1214
  718POPI   GL210044   7.962  13.020   6.157  0.1791  0.2544  0.1244
  718POPI   C1A10045   8.141  12.669   6.463  0.0110  0.0870  0.2976
  718POPI   D2A10046   8.016  12.737   6.885  0.2680 -0.0666  0.0428
  718POPI   C3A10047   8.090  12.557   7.209  0.0441  0.0306 -0.1147
  718POPI   C4A10048   8.181  12.560   7.629 -0.1461  0.1894  0.0571
  718POPI   C1B10049   8.097  13.180   6.531 -0.1420  0.3767 -0.0987
  718POPI   C2B10050   8.117  13.214   6.992 -0.0113 -0.1404 -0.0747
  718POPI   C3B10051   7.964  13.010   7.338 -0.0141  0.2016  0.2497
  718POPI   C4B10052   7.695  12.654   7.490  0.0228 -0.2694 -0.0868
  719POPI    C110053  10.096  18.142   5.869 -0.0768  0.1788  0.1634
  719POPI    C210054   9.729  18.155   5.711  0.0312  0.0379 -0.1061
  719POPI    C310055  10.036  18.321   5.516  0.1662 -0.1351 -0.0425
  719POPI   PO410056  10.018  18.254   6.142 -0.1110 -0.1201 -0.1326
  719POPI   GL110057   9.985  18.084   6.443 -0.0516 -0.1719  0.1464
  719POPI   GL210058  10.104  17.886   6.552 -0.3667 -0.1177  0.0148
  719POPI   C1A10059   9.661  17.993   6.762 -0.0126  0.1665 -0.3176
  719POPI   D2A10060   9.577  17.718   7.153 -0.1374 -0.2381 -0.2497
  719POPI   C3A10061   9.171  17.685   7.229 -0.2341  0.0652  0.0526
  719POPI   C4A10062   8.954  17.905   7.480 -0.0399  0.2270 -0.0169
  719POPI   C1B10063  10.182  17.950   6.916 -0.0654 -0.0083 -0.0686
  719POPI   C2B10064  10.354  18.249   7.209  0.1164 -0.2234  0.1797
  719POPI   C3B10065  10.261  18.264   7.664  0.0012  0.2458 -0.1179
  719POPI   C4B10066  10.150  18.304   8.123 -0.2520  0.2513  0.1528
  720POPI    C110067  15.961  10.621   5.918 -0.0527 -0.1493  0.1273
  720POPI    C210068  16.329  10.698   6.055 -0.0266 -0.0526  0.0058
  720POPI    C310069  16.268  10.387   5.811 -0.0424 -0.1223  0.0978
  720POPI   PO410070  15.920  10.872   5.906  0.2319  0.1508  0.2060
  720POPI   GL110071  15.943  11.023   6.338  0.0986 -0.1021  0.2188
  720POPI   GL210072  16.201  11.187   6.129 -0.3918  0.2608  0.0993
  720POPI   C1A10073  15.826  10.819   6.609 -0.2882  0.0216  0.0205
  720POPI   D2A10074  15.902  10.541   6.861 -0.3503  0.1294  0.0740
  720POPI   C3A10075  16.133  10.538   7.257 -0.0943  0.3491 -0.1310
  720POPI   C4A10076  16.222  10.778   7.566 -0.1246  0.2891 -0.0501
  720POPI   C1B10077  16.431  10.946   6.451 -0.2151 -0.1241  0.1524
  720POPI   C2B10078  16.419  10.730   6.802  0.2908  0.0127 -0.0933
  720POPI   C3B10079  16.610  10.546   7.105  0.1783  0.0196 -0.3750
  720POPI   C4B10080  16.528  10.279   7.483  0.5382  0.2655  0.0650
  721POPI    C110081   8.696   2.001   5.395  0.0510 -0.0252  0.0616
  721POPI    C210082   8.828   2.261   5.122  0.0690  0.0160  0.1094
  721POPI    C310083   8.814   1.871   5.036 -0.1841  0.0575 -0.0477
  721POPI   PO410084   8.440   2.046   5.492  0.2695  0.1421 -0.1900
  721POPI   GL110085   8.291   2.062   5.904 -0.0716  0.1627  0.0774
  721POPI   GL210086   8.034   1.745   5.980 -0.1504 -0.2804 -0.1192
  721POPI   C1A10087   8.424   1.953   6.362  0.2056 -0.1177  0.0590
  721POPI   D2A10088   8.223   1.867   6.643  0.0945 -0.0078 -0.2039
  721POPI   C3A10089   8.279   1.876   7.166  0.0203 -0.1479  0.0600
  721POPI   C4A10090   8.364   2.121   7.588  0.0590 -0.3211  0.0306
  721POPI   C1B10091   7.890   1.665   6.317 -0.0189  0.1295 -0.0342
  721POPI   C2B10092   7.807   1.676   6.769  0.2189 -0.2912  0.3840
  721POPI   C3B10093   7.734   1.601   7.250 -0.0240  0.3259 -0.1358
  721POPI   C4B10094   7.693   1.612   7.684 -0.0084 -0.0827  0.1668
  722POPI    C110095   2.725   6.867   5.344  0.0225 -0.1368 -0.0212
  722POPI    C210096   2.793   6.702   4.986 -0.3200  0.1114 -0.2062
  722POPI    C310097   2.680   7.085   5.012 -0.6252  0.0042  0.1456
  722POPI   PO410098   2.599   6.757   5.529  0.1956 -0.1565 -0.0405
  722POPI   GL110099   2.506   6.827   5.900  0.0897  0.3824  0.2211
  722POPI   GL210100   2.802   6.715   6.121  0.2669  0.1798 -0.0896
  722POPI   C1A10101   2.356   7.023   6.338  0.1099 -0.2476 -0.0684
  722POPI   D2A10102   2.313   6.998   6.736  0.0027 -0.2013  0.0815
  722POPI   C3A10103   2.443   7.205   7.023  0.2274 -0.1859 -0.1281
  722POPI   C4A10104   2.501   7.220   7.460 -0.1248  0.2470  0.3648
  722POPI   C1B10105   2.673   6.275   6.278  0.0558  0.1230 -0.0286
  722POPI   C2B10106   2.680   6.179   6.703  0.1559 -0.0507  0.1307
  722POPI   C3B10107   2.894   6.098   7.007 -0.2687  0.1964  0.0922
  722POPI   C4B10108   2.926   6.079   7.484  0.3383  0.3288 -0.1470
  723POPI    C110109   6.769  10.482   4.979 -0.0351 -0.0432  0.1135
  723POPI    C210110   6.999  10.391   5.293 -0.1508  0.0390  0.2230
  723POPI    C310111   7.011  10.164   4.964  0.1291  0.0763  0.2056
  723POPI   PO410112   6.672  10.669   5.113  0.0728 -0.1892 -0.1252
  723POPI   GL110113   6.846  10.806   5.488 -0.1849 -0.0286 -0.0076
  723POPI   GL210114   6.837  11.059   5.705 -0.0063  0.4180  0.0957
  723POPI   C1A10115   7.048  10.556   5.806  0.2017 -0.0316  0.0556
  723POPI   D2A10116   7.164  10.584   6.260  0.0012  0.3679 -0.1362
  723POPI   C3A10117   7.535  10.394   6.399  0.1522 -0.0077  0.2479
  723POPI   C4A10118   7.719  10.283   6.804 -0.1415 -0.1065  0.2089
  723POPI   C1B10119   6.969  11.058   6.053 -0.3332  0.1563 -0.1307
  723POPI   C2B10120   7.041  10.942   6.492  0.1063 -0.0704 -0.2414
  723POPI   C3B10121   7.314  10.796   6.760  0.2383 -0.0975  0.0191
  723POPI   C4B10122   7.513  10.625   7.165 -0.2921 -0.0945  0.2432
  724POPI    C110123  14.577   3.861   5.740 -0.2978  0.0309 -0.0939
  724POPI    C210124  14.350   4.171   5.850 -0.2812 -0.0335  0.1267
  724POPI    C310125  14.183   3.854   5.672 -0.2821  0.1467 -0.2014
  724POPI   PO410126  14.694   3.789   5.964  0.3664  0.1376  0.4490
  724POPI   GL110127  14.668   3.543   6.300 -0.0549  0.0801  0.3052
  724POPI   GL210128  14.918   3.638   6.412  0.1333 -0.0028  0.3741
  724POPI   C1A10129  14.452   3.444   6.715  0.1358  0.1470 -0.1918
  724POPI   D2A10130  14.361   3.212   7.087  0.1630  0.0063  0.1076
  724POPI   C3A10131  14.295   3.378   7.478  0.0512  0.3180  0.1341
  724POPI   C4A10132  14.040   3.438   7.641  0.0776  0.0055  0.1590
  724POPI   C1B10133  14.895   3.833   6.820 -0.0761 -0.1709  0.1718
  724POPI   C2B10134  15.007   4.076   7.127 -0.2332 -0.5119 -0.0798
  724POPI   C3B10135  14.946   4.124   7.570 -0.1302 -0.1938 -0.2020
  724POPI   C4B10136  14.738   4.302   7.890  0.0424 -0.0691 -0.1783
  725POPI    C110137  14.969  11.286   5.770 -0.0676 -0.0575  0.0251
  725POPI    C210138  15.019  11.351   5.379  0.0934 -0.1080  0.0361
  725POPI    C310139  14.688  11.480   5.563  0.1465  0.1705 -0.0575
  725POPI   PO410140  15.259  11.370   5.798 -0.4180 -0.2552 -0.3754
  725POPI   GL110141  15.563  11.306   6.213  0.2651 -0.1081 -0.0462
  725POPI   GL210142  15.474  11.092   6.154  0.0691  0.1221  0.2922
  725POPI   C1A10143  15.433  11.277   6.653  0.3828 -0.2032  0.0219
  725POPI   D2A10144  15.149  10.946   6.880 -0.1102 -0.0475 -0.4076
  725POPI   C3A10145  15.239  10.845   7.285  0.2188 -0.0937 -0.2029
  725POPI   C4A10146  15.593  10.543   7.233 -0.0282 -0.0110  0.0389
  725POPI   C1B10147  15.371  10.742   6.387  0.0145 -0.0933 -0.0768
  725POPI   C2B10148  15.384  10.474   6.769  0.1143 -0.2002  0.1238
  725POPI   C3B10149  15.155  10.398   7.072  0.0116  0.1765 -0.1622
  725POPI   C4B10150  14.920  10.468   7.378  0.1361 -0.1033  0.1137
  726POPI    C110151   4.004  12.623   5.571 -0.0010  0.1473  0.1303
  726POPI    C210152   4.087  12.379   5.877  0.0346  0.0247  0.0234
  726POPI    C310153   3.972  12.227   5.525  0.3307  0.1464 -0.1294
  726POPI   PO410154   3.819  12.825   5.705 -0.2197 -0.2358  0.0685
  726POPI   GL110155   3.665  12.996   6.119  0.0219  0.2663  0.0998
  726POPI   GL210156   3.306  13.130   6.182  0.0535  0.1824  0.0111
  726POPI   C1A10157   3.585  12.877   6.535 -0.1331 -0.0413  0.0400
  726POPI   D2A10158   3.733  12.658   6.914  0.2641  0.0679 -0.0363
  726POPI   C3A10159   3.535  12.348   7.179 -0.2907  0.3019  0.0564
  726POPI   C4A10160   3.516  12.431   7.648 -0.0081  0.0139  0.0631
  726POPI   C1B10161   3.074  12.926   6.495 -0.0455 -0.1496  0.0046
  726POPI   C2B10162   2.793  12.968   6.888  0.0006  0.0934  0.0824
  726POPI   C3B10163   2.764  12.737   7.299 -0.3524  0.1462  0.2235
  726POPI   C4B10164   2.710  12.834   7.805  0.1495  0.3307  0.2614
  727POPI    C110165   4.848  16.187   5.519 -0.0088 -0.3232 -0.3381
  727POPI    C210166   4.520  16.036   5.690 -0.1016  0.0994 -0.1296
  727POPI    C310167   4.487  16.313   5.403  0.0700 -0.0823 -0.3285
  727POPI   PO410168   5.011  16.286   5.665  0.0822  0.0249  0.3189
  727POPI   GL110169   5.322  16.136   5.954  0.0669  0.0441 -0.3148
  727POPI   GL210170   5.394  15.814   6.152  0.1695  0.2957  0.0808
  727POPI   C1A10171   5.173  16.163   6.437  0.0187  0.1477  0.1562
  727POPI   D2A10172   5.162  16.142   6.866 -0.0692 -0.0576  0.1336
  727POPI   C3A10173   5.426  16.432   7.144  0.0072  0.1904  0.1402
  727POPI   C4A10174   5.722  16.252   7.388  0.3348 -0.0316 -0.2559
  727POPI   C1B10175   5.691  16.099   6.311 -0.0480  0.0544 -0.1338
  727POPI   C2B10176   6.077  16.290   6.493  0.0558 -0.0536  0.1825
  727POPI   C3B10177   6.500  16.379   6.637  0.3479 -0.1339 -0.0155
  727POPI   C4B10178   6.659  16.741   6.829  0.0910 -0.1301 -0.0936
  728POPI    C110179   4.326   4.950   5.400 -0.0438  0.0651 -0.0641
  728POPI    C210180   4.209   4.572   5.461  0.0071  0.0634  0.0254
  728POPI    C310181   4.260   4.708   5.088 -0.0372 -0.0100 -0.0076
  728POPI   PO410182   4.555   4.950   5.532  0.4259 -0.1378 -0.1836
  728POPI   GL110183   4.523   4.848   6.034  0.2937 -0.0289  0.0062
  728POPI   GL210184   4.241   4.775   5.928 -0.1286 -0.0761 -0.1716
  728POPI   C1A10185   4.462   4.681   6.355 -0.1388 -0.1349 -0.0288
  728POPI   D2A10186   4.359   4.774   6.698 -0.2429  0.0890  0.3329
  728POPI   C3A10187   4.275   5.112   6.843 -0.0056  0.0373  0.1247
  728POPI   C4A10188   4.380   5.278   7.290  0.1194  0.0216 -0.4279
  728POPI   C1B10189   4.147   5.137   6.227  0.0834 -0.0649 -0.1261
  728POPI   C2B10190   3.972   5.368   6.493 -0.0245  0.0359 -0.0673
  728POPI   C3B10191   3.936   5.444   6.955 -0.1601 -0.3868 -0.1656
  728POPI   C4B10192   3.857   5.392   7.466  0.0897 -0.1346  0.1388
  729POPI    C110193   6.167  10.487   5.070  0.0083  0.0184 -0.0791
  729POPI    C210194   5.798  10.531   4.920 -0.0402 -0.1769 -0.0199
  729POPI    C310195   5.942  10.165   4.995  0.2112 -0.1080 -0.1530
  729POPI   PO410196   6.201  10.554   5.370 -0.1628  0.0808  0.1238
  729POPI   GL110197   6.491  10.496   5.742  0.1833  0.1580 -0.0953
  729POPI   GL210198   6.225  10.460   5.866 -0.3799  0.0064 -0.4055
  729POPI   C1A10199   6.637  10.714   6.149 -0.0066  0.1714 -0.1537
  729POPI   D2A10200   6.543  10.991   6.442 -0.0615 -0.0742  0.1245
  729POPI   C3A10201   6.338  10.908   6.797 -0.3477  0.0284 -0.0066
  729POPI   C4A10202   6.008  10.899   7.168  0.0157 -0.2902 -0.0945
  729POPI   C1B10203   6.218  10.430   6.276 -0.0433  0.2939  0.0637
  729POPI   C2B10204   6.354  10.348   6.596  0.1027  0.4231 -0.2638
  729POPI   C3B10205   6.550  10.177   6.959  0.4169  0.0412  0.0287
  729POPI   C4B10206   6.494  10.184   7.420  0.0083  0.1833  0.0439
  730POPI    C110207   2.008   2.542   5.893  0.0382  0.1334 -0.0638
  730POPI    C210208   2.126   2.429   5.528 -0.1443  0.2253 -0.1526
  730POPI    C310209   2.064   2.816   5.607  0.1530  0.2348  0.0541
  730POPI   PO410210   1.812   2.434   6.085  0.0733 -0.3487  0.0946
  730POPI   GL110211   1.792   2.303   6.455 -0.0208 -0.0057 -0.0219
  730POPI   GL210212   2.132   2.174   6.485  0.0513 -0.1369  0.0010
  730POPI   C1A10213   1.872   2.545   6.800 -0.0812  0.1104  0.1861
  730POPI   D2A10214   1.802   2.607   7.306 -0.3882 -0.5109  0.0030
  730POPI   C3A10215   2.080   2.487   7.689 -0.1705 -0.0519  0.2569
  730POPI   C4A10216   2.440   2.357   8.013  0.2683  0.3059 -0.3366
  730POPI   C1B10217   2.317   2.344   6.893 -0.1082 -0.0456  0.1962
  730POPI   C2B10218   2.311   2.379   7.260  0.1443 -0.0589  0.1599
  730POPI   C3B10219   2.612   2.384   7.519 -0.0308  0.0697 -0.2400
  730POPI   C4B10220   2.894   2.482   7.880 -0.3154 -0.0085 -0.0005
  731POPI    C110221   4.618  14.675   6.067 -0.3642  0.0323 -0.1891
  731POPI    C210222   4.515  14.631   5.683 -0.0174 -0.2518 -0.2551
  731POPI    C310223   4.618  14.311   5.899  0.2060 -0.0430 -0.0464
  731POPI   PO410224   4.410  14.859   6.149  0.1236 -0.1190 -0.4437
  731POPI   GL110225   4.042  14.817   6.347 -0.0974  0.2702  0.0588
  731POPI   GL210226   3.856  15.053   6.448  0.0942 -0.0043 -0.0973
  731POPI   C1A10227   4.182  14.502   6.701 -0.1129 -0.0486  0.1255
  731POPI   D2A10228   4.048  14.297   7.047 -0.0790  0.0657 -0.2428
  731POPI   C3A10229   4.165  14.362   7.483  0.1943 -0.0542 -0.0631
  731POPI   C4A10230   4.189  14.259   7.949 -0.0213 -0.0680  0.0170
  731POPI   C1B10231   3.844  14.852   6.914 -0.0901  0.0494  0.1092
  731POPI   C2B10232   3.790  14.660   7.298  0.0677 -0.2816  0.2701
  731POPI   C3B10233   3.724  14.356   7.724 -0.0796  0.0160  0.2938
  731POPI   C4B10234   3.866  13.818   7.806 -0.0146  0.0054 -0.2951
  732POPI    C110235  12.849  12.285   5.724  0.1353  0.0273 -0.4106
  732POPI    C210236  12.752  12.639   5.881 -0.0450 -0.1901 -0.0160
  732POPI    C310237  12.537  12.489   5.579  0.0034  0.0113 -0.1533
  732POPI   PO410238  12.876  12.139   5.868 -0.1626 -0.1783 -0.0197
  732POPI   GL110239  12.515  12.172   6.136  0.0432 -0.2164  0.0516
  732POPI   GL210240  12.520  11.990   6.432  0.0064  0.0211  0.3363
  732POPI   C1A10241  12.584  12.529   6.391 -0.1346 -0.1113 -0.1053
  732POPI   D2A10242  12.456  12.651   6.769  0.0787  0.4372  0.0116
  732POPI   C3A10243  12.721  12.778   7.089 -0.0919 -0.0591  0.1840
  732POPI   C4A10244  12.729  12.957   7.380  0.1656 -0.0334 -0.3101
  732POPI   C1B10245  12.473  12.092   6.755  0.1210  0.2602  0.0140
  732POPI   C2B10246  12.484  12.380   7.172  0.4346  0.0445  0.0763
  732POPI   C3B10247  12.310  12.273   7.511  0.1913 -0.0936  0.1912
  732POPI   C4B10248  12.229  12.375   7.961  0.1822 -0.1053 -0.1758
  733POPI    C110249   1.411  18.252   5.750  0.1872 -0.0035 -0.2678
  733POPI    C210250   1.714  18.034   5.893  0.0137 -0.0298  0.0701
  733POPI    C310251   1.337  17.923   5.965 -0.0773  0.1544 -0.1121
  733POPI   PO410252   1.585  18.513   5.910  0.2291 -0.1716 -0.0583
  733POPI   GL110253   1.941  18.732   6.190 -0.1363 -0.0851  0.0451
  733POPI   GL210254   1.870  18.745   6.462 -0.0831 -0.0148 -0.2285
  733POPI   C1A10255   2.354  18.636   6.441 -0.1162 -0.1052 -0.0886
  733POPI   D2A10256   2.566  18.374   6.781 -0.3586 -0.3564 -0.0862
  733POPI   C3A10257   2.858  18.004   6.760  0.2566 -0.0604 -0.1249
  733POPI   C4A10258   2.963  17.642   6.971  0.0253  0.0968  0.0483
  733POPI   C1B10259   2.050  18.582   6.802  0.0785 -0.3621  0.2127
  733POPI   C2B10260   2.232  18.621   7.156 -0.0446  0.0806  0.0714
  733POPI   C3B10261   2.427  18.482   7.538 -0.4554  0.1323  0.4921
  733POPI   C4B10262   2.492  18.104   7.792 -0.1559 -0.0742  0.0128
  734POPI    C110263  13.442   1.798   6.099 -0.1901 -0.0658 -0.0949
  734POPI    C210264  13.708   1.499   6.104  0.0000  0.1021 -0.0126
  734POPI    C310265  13.782   1.829   5.890 -0.1086  0.1808  0.0702
  734POPI   PO410266  13.400   1.835   6.300  0.1677 -0.0897  0.0478
  734POPI   GL110267  13.144   1.688   6.614 -0.0234  0.2490  0.3365
  734POPI   GL210268  12.862   1.727   6.444 -0.1112  0.2242  0.2503
  734POPI   C1A10269  13.015   1.787   7.021  0.2448 -0.1055  0.0876
  734POPI   D2A10270  13.081   1.768   7.456 -0.2651  0.0644  0.0261
  734POPI   C3A10271  13.110   1.478   7.733 -0.0513  0.0582  0.2185
  734POPI   C4A10272  12.801   1.259   8.044 -0.0862  0.0540 -0.2141
  734POPI   C1B10273  12.709   1.431   6.769  0.0011 -0.3632 -0.2764
  734POPI   C2B10274  12.640   1.318   7.149  0.0022  0.2841 -0.2179
  734POPI   C3B10275  12.628   1.260   7.561 -0.1377  0.1280  0.1292
  734POPI   C4B10276  12.396   1.147   7.851 -0.1264  0.0666 -0.2015
  735POPI    C110277  11.096   5.694   5.817  0.1433 -0.2022  0.1157
  735POPI    C210278  10.946   5.922   5.524 -0.0756 -0.3342  0.1230
  735POPI    C310279  11.003   5.530   5.464  0.0365 -0.3306  0.2024
  735POPI   PO410280  11.395   5.782   5.897  0.3023 -0.0294 -0.2967
  735POPI   GL110281  11.389   5.736   6.323 -0.1281  0.0890  0.0957
  735POPI   GL210282  11.211   6.034   6.353 -0.1566  0.1286 -0.0758
  735POPI   C1A10283  11.364   5.810   6.848 -0.2374 -0.1003 -0.3204
  735POPI   D2A10284  11.052   5.938   6.976 -0.1109  0.1577 -0.1268
  735POPI   C3A10285  10.833   6.197   6.698 -0.1648  0.2109 -0.1621
  735POPI   C4A10286  10.825   6.551   6.607  0.2256  0.1977  0.1876
  735POPI   C1B10287  11.316   6.316   6.605  0.2936  0.0170  0.0739
  735POPI   C2B10288  11.232   6.444   6.963 -0.0027 -0.0796 -0.1157
  735POPI   C3B10289  11.175   6.825   7.136  0.4022 -0.1199  0.0793
  735POPI   C4B10290  11.013   7.215   7.075 -0.2726 -0.1867  0.3055
  736POPI    C110291  14.740   6.199   5.818  0.2490 -0.0541  0.2236
  736POPI    C210292  14.894   5.881   5.631 -0.2747 -0.0780 -0.1917
  736POPI    C310293  14.499   5.908   5.687 -0.2217  0.4241 -0.0112
  736POPI   PO410294  15.002   6.189   6.045  0.0565  0.2121 -0.0568
  736POPI   GL110295  15.185   6.059   6.442 -0.0259 -0.1702 -0.1777
  736POPI   GL210296  15.221   6.440   6.457  0.2333  0.3776 -0.1944
  736POPI   C1A10297  15.463   6.224   6.856 -0.1185 -0.1563  0.1840
  736POPI   D2A10298  15.621   6.310   7.266  0.1295 -0.1769  0.1700
  736POPI   C3A10299  15.637   6.218   7.624  0.0006 -0.2326  0.1149
  736POPI   C4A10300  15.396   5.935   7.729  0.0951 -0.2187  0.0676
  736POPI   C1B10301  15.379   6.700   6.898  0.0678 -0.1741 -0.0120
  736POPI   C2B10302  15.247   6.754   7.295  0.3519 -0.1585  0.1366
  736POPI   C3B10303  15.326   6.859   7.599 -0.0926  0.1416 -0.0721
  736POPI   C4B10304  15.539   6.798   8.011 -0.0126  0.0695  0.1322
  737POPI    C110305  10.521   7.385   5.873 -0.1800 -0.0928  0.2474
  737POPI    C210306  10.327   7.179   6.156 -0.1373 -0.1377  0.2441
  737POPI    C310307  10.409   7.007   5.804  0.0703 -0.1809  0.3121
  737POPI   PO410308  10.352   7.613   5.848  0.0140 -0.1236 -0.0498
  737POPI   GL110309  10.121   7.906   6.152  0.2295 -0.1254  0.1080
  737POPI   GL210310   9.898   7.696   6.060  0.1576  0.2653 -0.1434
  737POPI   C1A10311  10.164   7.991   6.546  0.2346  0.0427  0.1721
  737POPI   D2A10312  10.054   7.759   6.878  0.4544  0.2447  0.0173
  737POPI   C3A10313   9.905   7.893   7.328 -0.0283 -0.0218  0.1473
  737POPI   C4A10314   9.638   7.981   7.681  0.4609 -0.0096 -0.0152
  737POPI   C1B10315   9.688   7.554   6.407 -0.0979  0.0698  0.1869
  737POPI   C2B10316   9.593   7.612   6.905  0.1917  0.2190 -0.4413
  737POPI   C3B10317   9.628   7.493   7.396 -0.3232 -0.3081 -0.4423
  737POPI   C4B10318   9.667   7.446   7.877 -0.3171  0.0026  0.1604
  738POPI    C110319  16.663   8.246   5.937 -0.0944  0.0681  0.2424
  738POPI    C210320  17.024   8.374   6.054 -0.0823 -0.0610  0.3476
  738POPI    C310321  16.994   8.068   5.798 -0.1142  0.0617  0.2031
  738POPI   PO410322  16.557   8.173   6.114  0.0471 -0.0635  0.0879
  738POPI   GL110323  16.564   8.216   6.569  0.2382  0.3724  0.1662
  738POPI   GL210324  16.493   7.897   6.495 -0.0317  0.0880  0.2623
  738POPI   C1A10325  16.582   8.398   6.975  0.2695  0.0638 -0.3121
  738POPI   D2A10326  16.661   8.526   7.374 -0.3240 -0.3187 -0.0876
  738POPI   C3A10327  16.521   8.279   7.735 -0.0091 -0.0679  0.0486
  738POPI   C4A10328  16.557   8.161   8.131 -0.4021  0.2081  0.0220
  738POPI   C1B10329  16.586   7.718   6.820  0.2404 -0.2159 -0.1299
  738POPI   C2B10330  16.384   7.515   7.257  0.2085  0.4371 -0.0768
  738POPI   C3B10331  15.996   7.302   7.306  0.0030  0.0940 -0.0373
  738POPI   C4B10332  15.737   6.870   7.270  0.1275  0.2751  0.1559
  739POPI    C110333  14.331  13.932   5.862  0.0757  0.0555 -0.0666
  739POPI    C210334  14.460  13.957   5.484  0.3734 -0.0900  0.0224
  739POPI    C310335  14.638  14.171   5.771  0.1826 -0.0207  0.0910
  739POPI   PO410336  14.278  13.519   5.851 -0.0868  0.0236  0.2941
  739POPI   GL110337  14.624  13.210   5.908 -0.3142  0.1162 -0.0484
  739POPI   GL210338  14.621  12.915   6.125 -0.1826 -0.0276 -0.0215
  739POPI   C1A10339  14.707  13.338   6.353 -0.0835 -0.0501 -0.1931
  739POPI   D2A10340  14.663  13.478   6.796  0.1795 -0.1514  0.0685
  739POPI   C3A10341  14.704  13.376   7.216 -0.1645  0.1966  0.0132
  739POPI   C4A10342  14.724  13.531   7.619 -0.0449  0.0250  0.1921
  739POPI   C1B10343  14.496  12.604   6.335 -0.0842  0.0078  0.2496
  739POPI   C2B10344  14.389  12.225   6.489 -0.0994  0.1281  0.3542
  739POPI   C3B10345  14.255  12.015   6.904 -0.1295 -0.0510 -0.2345
  739POPI   C4B10346  14.308  12.045   7.308  0.1874 -0.3252 -0.2274
  740POPI    C110347   0.324   1.837   5.994  0.0828 -0.0672 -0.0706
  740POPI    C210348   0.601   1.610   5.816 -0.0251 -0.2063 -0.0631
  740POPI    C310349   0.244   1.662   5.643 -0.0241 -0.0954 -0.0327
  740POPI   PO410350   0.337   1.817   6.223  0.1931 -0.1115 -0.2209
  740POPI   GL110351   0.380   1.709   6.633  0.0412 -0.1241 -0.1596
  740POPI   GL210352   0.480   2.027   6.637  0.0349 -0.3248 -0.1543
  740POPI   C1A10353   0.549   1.554   6.968  0.2091  0.0658 -0.1355
  740POPI   D2A10354   0.529   1.670   7.417 -0.1478  0.1295 -0.2393
  740POPI   C3A10355   0.518   1.401   7.753  0.2351 -0.0320 -0.2488
  740POPI   C4A10356   0.367   1.305   8.139 -0.1314  0.2150  0.1054
  740POPI   C1B10357   0.460   2.051   7.094 -0.2509  0.1427 -0.0565
  740POPI   C2B10358   0.218   2.150   7.471 -0.0914  0.2031 -0.0154
  740POPI   C3B10359   0.012   2.327   7.801 -0.1948 -0.1835 -0.0273
  740POPI   C4B10360  -0.356   2.371   8.178 -0.0652  0.0990  0.1375
  741POPI    C110361   6.725   9.746   5.156  0.0880 -0.1992  0.2614
  741POPI    C210362   7.028   9.574   4.959  0.0670 -0.3549  0.3632
  741POPI    C310363   6.684   9.377   5.009 -0.1159 -0.1124  0.0955
  741POPI   PO410364   6.899   9.852   5.418  0.1420  0.1583  0.1556
  741POPI   GL110365   6.863  10.111   5.716  0.1158  0.1578  0.0787
  741POPI   GL210366   7.226  10.115   5.727 -0.2912  0.0137 -0.1337
  741POPI   C1A10367   6.660  10.218   6.135  0.4534 -0.2958  0.1644
  741POPI   D2A10368   6.848  10.333   6.506 -0.0440 -0.1300  0.1753
  741POPI   C3A10369   6.787  10.623   6.755 -0.1137 -0.1218  0.2006
  741POPI   C4A10370   6.595  10.672   7.136 -0.1765 -0.0773 -0.3747
  741POPI   C1B10371   7.209  10.078   6.135 -0.4033 -0.1346  0.4520
  741POPI   C2B10372   7.237  10.013   6.588 -0.2370  0.0050  0.2405
  741POPI   C3B10373   7.194  10.296   6.981  0.1308  0.0120  0.3315
  741POPI   C4B10374   6.958  10.309   7.314 -0.1129 -0.0939  0.2310
  742POPS   CNO10375  14.315   6.326   6.096 -0.2194 -0.4192  0.1589
  742POPS   PO410376  14.288   6.731   6.220  0.0631 -0.0135  0.0515
  742POPS   GL110377  14.500   6.573   6.586  0.2444 -0.1045  0.3067
  742POPS   GL210378  14.670   6.313   6.541  0.0103  0.4312 -0.2067
  742POPS   C1A10379  14.536   6.682   7.003 -0.1620  0.2231  0.1959
  742POPS   D2A10380  14.769   6.667   7.268  0.1183  0.0146 -0.0492
  742POPS   C3A10381  14.804   6.936   7.654 -0.1872 -0.1965  0.1292
  742POPS   C4A10382  14.582   6.936   8.021 -0.3082 -0.2341  0.0688
  742POPS   C1B10383  14.923   6.291   6.829  0.1016 -0.1219  0.1580
  742POPS   C2B10384  15.119   6.270   7.259 -0.1192 -0.1552 -0.2901
  742POPS   C3B10385  15.060   6.364   7.665  0.0222  0.2245  0.0184
  742POPS   C4B10386  15.297   6.356   8.032 -0.1153 -0.1023  0.1916
  743POPS   CNO10387   5.925   9.052   5.005  0.5764  0.2346  0.0229
  743POPS   PO410388   5.543   8.716   5.200  0.1777 -0.1749 -0.0909
  743POPS   GL110389   5.674   8.520   5.518  0.0052 -0.1214 -0.0732
  743POPS   GL210390   5.985   8.533   5.767  0.0087 -0.0024 -0.0701
  743POPS   C1A10391   5.645   8.155   5.586  0.0614 -0.0366 -0.0213
  743POPS   D2A10392   5.940   7.954   5.870 -0.7679 -0.0716  0.0766
  743POPS   C3A10393   6.066   7.998   6.316  0.2994 -0.1779  0.1300
  743POPS   C4A10394   5.835   7.977   6.736 -0.1260 -0.1531  0.1495
  743POPS   C1B10395   6.283   8.549   6.139 -0.0312 -0.1659 -0.1335
  743POPS   C2B10396   6.385   8.462   6.609 -0.2409  0.1069  0.1723
  743POPS   C3B10397   6.188   8.568   7.065  0.2597  0.2939 -0.1141
  743POPS   C4B10398   5.881   8.559   7.281  0.1707  0.3059  0.0621
  744POPS   CNO10399   9.884   7.113   5.817  0.1485 -0.0721  0.2348
  744POPS   PO410400   9.873   6.711   5.975  0.0279  0.1003  0.0293
  744POPS   GL110401   9.887   6.693   6.434  0.1471  0.0962  0.3173
  744POPS   GL210402   9.924   7.020   6.366 -0.1322  0.0061 -0.2152
  744POPS   C1A10403   9.720   6.497   6.849 -0.1003  0.1189 -0.0206
  744POPS   D2A10404   9.373   6.494   7.051 -0.0431  0.1552  0.0350
  744POPS   C3A10405   9.305   6.493   7.427  0.1455  0.0719  0.1713
  744POPS   C4A10406   9.251   6.246   7.845  0.0939 -0.0215  0.0176
  744POPS   C1B10407   9.963   7.239   6.681  0.1201 -0.0972 -0.2039
  744POPS   C2B10408   9.953   7.315   7.077 -0.1897 -0.1823  0.0542
  744POPS   C3B10409  10.166   7.494   7.520 -0.2380 -0.0146 -0.1085
  744POPS   C4B10410  10.503   7.637   7.823  0.5115 -0.0095 -0.0441
  745POPS   CNO10411   1.869  16.885   5.590  0.1565  0.1184 -0.2388
  745POPS   PO410412   1.806  17.041   6.067  0.1115 -0.1390 -0.1812
  745POPS   GL110413   1.731  16.965   6.477 -0.0841 -0.1201  0.0006
  745POPS   GL210414   1.751  16.669   6.577 -0.0709 -0.0770 -0.0301
  745POPS   C1A10415   1.532  17.189   6.827  0.4330 -0.1206 -0.0502
  745POPS   D2A10416   1.319  17.247   7.233  0.2369  0.1146 -0.0197
  745POPS   C3A10417   1.472  17.256   7.502  0.0639 -0.2507 -0.1779
  745POPS   C4A10418   1.857  17.390   7.548 -0.0779  0.0152  0.3119
  745POPS   C1B10419   1.970  16.345   6.909  0.2887  0.2201  0.0397
  745POPS   C2B10420   2.017  16.406   7.325 -0.0499  0.0518 -0.1670
  745POPS   C3B10421   2.305  16.559   7.531  0.2738 -0.1204 -0.2143
  745POPS   C4B10422   2.413  16.737   7.931  0.2228 -0.2822 -0.2877
  746POPS   CNO10423  12.464  13.068   5.264 -0.2087 -0.1774  0.0487
  746POPS   PO410424  12.370  12.956   5.724  0.0024  0.4721  0.4533
  746POPS   GL110425  12.514  13.143   6.045 -0.5762 -0.1450 -0.2547
  746POPS   GL210426  12.613  12.978   6.169  0.1721 -0.2881 -0.4157
  746POPS   C1A10427  12.702  13.534   6.199 -0.0482 -0.3274 -0.3229
  746POPS   D2A10428  12.839  13.648   6.679  0.0588  0.0118 -0.1548
  746POPS   C3A10429  12.660  14.073   6.906 -0.4542 -0.1762 -0.1314
  746POPS   C4A10430  12.761  14.526   7.143  0.0717  0.1237  0.2821
  746POPS   C1B10431  12.672  13.052   6.550  0.4048  0.2023 -0.3360
  746POPS   C2B10432  12.823  13.225   6.919 -0.2663  0.0177 -0.0264
  746POPS   C3B10433  13.059  13.367   7.394  0.0915 -0.2597  0.2320
  746POPS   C4B10434  13.456  13.299   7.411  0.2685  0.0792  0.0120
  747POPS   CNO10435   7.637  11.426   5.423  0.1850 -0.2460 -0.0476
  747POPS   PO410436   7.164  11.262   5.373  0.0313 -0.0941  0.1069
  747POPS   GL110437   7.191  11.412   5.806 -0.1121  0.2669 -0.1330
  747POPS   GL210438   6.833  11.536   5.958  0.1486 -0.0663 -0.1603
  747POPS   C1A10439   7.278  11.417   6.168  0.1506 -0.0086 -0.1479
  747POPS   D2A10440   7.252  11.617   6.675  0.1433  0.2694 -0.0492
  747POPS   C3A10441   7.300  11.690   7.092  0.1168 -0.2269 -0.0312
  747POPS   C4A10442   7.455  11.788   7.529 -0.0211 -0.1882  0.1072
  747POPS   C1B10443   6.832  11.533   6.427 -0.1309 -0.0014  0.0566
  747POPS   C2B10444   6.856  11.341   6.763  0.1252  0.1810  0.3485
  747POPS   C3B10445   7.168  11.181   7.020  0.1387  0.4068  0.1088
  747POPS   C4B10446   7.350  11.235   7.382 -0.0738 -0.1520 -0.2506
  748POPS   CNO10447  10.115   3.957   5.432 -0.0401  0.0471 -0.0867
  748POPS   PO410448   9.850   3.679   5.683  0.0148  0.3784 -0.3662
  748POPS   GL110449   9.635   3.555   6.032 -0.4602 -0.1938 -0.0760
  748POPS   GL210450   9.411   3.792   6.080  0.1535  0.4423 -0.3672
  748POPS   C1A10451   9.348   3.227   6.196  0.2402  0.0441 -0.0420
  748POPS   D2A10452   8.982   3.032   6.258 -0.0154 -0.0144 -0.0658
  748POPS   C3A10453   8.772   2.951   6.716  0.4601  0.1166  0.1069
  748POPS   C4A10454   8.747   2.831   7.065 -0.1750  0.0025  0.2784
  748POPS   C1B10455   9.404   4.101   6.497  0.0442 -0.0093 -0.0529
  748POPS   C2B10456   9.304   4.226   6.874 -0.2376  0.0286  0.0188
  748POPS   C3B10457   9.299   4.184   7.280  0.0099 -0.1168 -0.1630
  748POPS   C4B10458   9.106   4.321   7.551 -0.0913 -0.1050  0.0150
  749POPS   CNO10459   5.772  13.064   5.798 -0.1277 -0.0497  0.3282
  749POPS   PO410460   5.683  13.462   5.684 -0.0658 -0.0929  0.0492
  749POPS   GL110461   5.483  13.417   6.082 -0.1929 -0.1998  0.3873
  749POPS   GL210462   5.738  13.253   6.286  0.0717 -0.3266  0.2117
  749POPS   C1A10463   5.322  13.491   6.480 -0.2304  0.2643  0.1822
  749POPS   D2A10464   5.214  13.378   6.914 -0.0738 -0.5316 -0.2388
  749POPS   C3A10465   5.346  13.634   7.287  0.0730  0.0710  0.0532
  749POPS   C4A10466   5.502  14.000   7.634  0.1706 -0.0259 -0.0865
  749POPS   C1B10467   5.748  13.271   6.739 -0.1161 -0.0648 -0.0159
  749POPS   C2B10468   5.740  13.345   7.186  0.2925 -0.1303  0.0241
  749POPS   C3B10469   5.951  13.138   7.613 -0.1624  0.1806 -0.2688
  749POPS   C4B10470   6.235  12.708   7.654  0.2376 -0.2761  0.0642
  750POPS   CNO10471   4.688   0.747   5.519 -0.1213  0.0669  0.1714
  750POPS   PO410472   5.092   0.640   5.540  0.2186  0.0961  0.0709
  750POPS   GL110473   5.142   0.366   5.917  0.2508 -0.2512 -0.2361
  750POPS   GL210474   4.853   0.543   5.985  0.2342 -0.2199  0.0923
  750POPS   C1A10475   5.364   0.287   6.316  0.0141  0.4189 -0.1244
  750POPS   D2A10476   5.394   0.415   6.736  0.1493  0.1762  0.1944
  750POPS   C3A10477   5.054   0.496   7.044  0.1802 -0.1499  0.1877
  750POPS   C4A10478   4.842   0.392   7.527 -0.1785 -0.2706 -0.1107
  750POPS   C1B10479   4.869   0.337   6.392 -0.0454  0.0523 -0.0054
  750POPS   C2B10480   4.669   0.245   6.726  0.0054 -0.0448 -0.1687
  750POPS   C3B10481   4.730   0.120   7.107  0.0349 -0.1172 -0.1538
  750POPS   C4B10482   4.838  -0.289   7.259  0.3205  0.1787  0.1454
  751POPS   CNO10483  10.954   7.178   5.287  0.1317  0.0526  0.1608
  751POPS   PO410484  11.082   7.371   5.698 -0.1366 -0.0998 -0.0932
  751POPS   GL110485  11.062   7.504   6.104 -0.0761 -0.1797  0.0248
  751POPS   GL210486  11.059   7.862   6.344  0.2785 -0.3449  0.3929
  751POPS   C1A10487  11.100   7.456   6.593  0.1523  0.2826 -0.3290
  751POPS   D2A10488  11.015   7.777   6.839  0.0260  0.1195 -0.1350
  751POPS   C3A10489  10.890   7.729   7.310  0.1174 -0.1594  0.2079
  751POPS   C4A10490  11.068   7.454   7.557  0.0343 -0.1009 -0.1996
  751POPS   C1B10491  11.165   8.156   6.580 -0.2740  0.2138 -0.0051
  751POPS   C2B10492  10.954   8.309   6.972 -0.0325 -0.0753  0.1124
  751POPS   C3B10493  10.916   8.248   7.317  0.1556 -0.2114  0.0972
  751POPS   C4B10494  10.711   8.197   7.680  0.0430  0.1464 -0.1171
  752POPS   CNO10495  17.977  16.410   6.069 -0.1892 -0.2700  0.2154
  752POPS   PO410496  17.722  16.007   6.125 -0.2063 -0.0610  0.0483
  752POPS   GL110497  17.501  16.007   6.539 -0.0514  0.0777 -0.0584
  752POPS   GL210498  17.737  16.301   6.577 -0.0999 -0.1559 -0.2377
  752POPS   C1A10499  17.396  15.683   6.808 -0.1863  0.1141  0.0702
  752POPS   D2A10500  17.518  15.620   7.230  0.2261  0.1608  0.2065
  752POPS   C3A10501  17.327  15.485   7.616 -0.3485 -0.0716 -0.0981
  752POPS   C4A10502  17.068  15.280   7.923 -0.3325  0.2636 -0.0692
  752POPS   C1B10503  17.777  15.943   6.994 -0.1651 -0.3227  0.0392
  752POPS   C2B10504  17.743  15.973   7.464 -0.0717 -0.0942  0.4197
  752POPS   C3B10505  17.813  15.812   7.863 -0.1138 -0.1807  0.1057
  752POPS   C4B10506  17.711  15.384   8.123 -0.1264 -0.1113  0.0841
  753POPS   CNO10507   5.615   9.817   5.051  0.3031 -0.0450 -0.0230
  753POPS   PO410508   5.499  10.010   5.382  0.1383  0.1027 -0.1142
  753POPS   GL110509   5.637   9.858   5.805  0.0340  0.2616  0.0198
  753POPS   GL210510   5.820  10.148   5.909  0.1533 -0.0398  0.1146
  753POPS   C1A10511   5.782   9.594   6.196 -0.0972 -0.1122 -0.0716
  753POPS   D2A10512   5.644   9.592   6.589 -0.0776  0.0202 -0.2397
  753POPS   C3A10513   5.878   9.593   6.894 -0.1753  0.1282 -0.3111
  753POPS   C4A10514   5.894   9.471   7.338  0.1895  0.1104 -0.3150
  753POPS   C1B10515   5.648  10.108   6.362 -0.1428  0.1019 -0.2705
  753POPS   C2B10516   5.869  10.068   6.767 -0.1509 -0.0120 -0.2958
  753POPS   C3B10517   5.964   9.959   7.216 -0.2245 -0.1139 -0.2958
  753POPS   C4B10518   6.119   9.838   7.626 -0.1663 -0.1193  0.0705
  754POPS   CNO10519  11.696   7.547   6.135  0.0813  0.1608 -0.2780
  754POPS   PO410520  12.078   7.740   5.995  0.3800 -0.0306 -0.4584
  754POPS   GL110521  12.099   7.822   6.441 -0.0623  0.1140 -0.2737
  754POPS   GL210522  12.051   7.557   6.535  0.1827 -0.0691  0.3154
  754POPS   C1A10523  12.049   7.899   6.908 -0.0119 -0.2603  0.0289
  754POPS   D2A10524  11.937   7.678   7.318  0.0013 -0.1266  0.2074
  754POPS   C3A10525  12.101   7.877   7.696  0.1517 -0.0062  0.1262
  754POPS   C4A10526  12.311   8.296   7.736  0.3276 -0.0627  0.1082
  754POPS   C1B10527  12.021   7.400   6.908 -0.0600  0.3238 -0.0820
  754POPS   C2B10528  11.928   7.140   7.320 -0.0975  0.2067 -0.0218
  754POPS   C3B10529  12.034   7.028   7.704 -0.2035 -0.4130  0.0699
  754POPS   C4B10530  11.850   7.068   8.163 -0.1707  0.1115  0.0731
  755POPS   CNO10531  14.469  15.042   5.758 -0.1785  0.1311  0.2701
  755POPS   PO410532  14.404  15.439   5.861 -0.1189 -0.0129  0.2505
  755POPS   GL110533  14.427  15.642   6.223  0.1778 -0.4375 -0.3456
  755POPS   GL210534  14.756  15.876   6.391  0.0484 -0.1958 -0.2228
  755POPS   C1A10535  14.328  15.484   6.576 -0.0983 -0.0954 -0.2759
  755POPS   D2A10536  14.451  15.515   6.928  0.0017  0.1305 -0.1258
  755POPS   C3A10537  14.350  15.414   7.373 -0.1197  0.1950  0.3076
  755POPS   C4A10538  14.196  15.739   7.738  0.0827 -0.1743  0.1049
  755POPS   C1B10539  14.825  15.958   6.821  0.3311 -0.1591  0.1143
  755POPS   C2B10540  14.905  15.880   7.218  0.0117  0.1478 -0.1878
  755POPS   C3B10541  14.684  15.628   7.595 -0.0169  0.2535  0.0145
  755POPS   C4B10542  14.688  15.473   7.986  0.0891 -0.4480  0.3320
  756POPS   CNO10543  10.482  15.379   5.830  0.1034  0.1983 -0.0279
  756POPS   PO410544  10.118  15.460   6.136  0.2917  0.0813 -0.1118
  756POPS   GL110545  10.280  15.305   6.562  0.1938 -0.2410  0.0849
  756POPS   GL210546  10.269  14.860   6.614  0.2012 -0.1765  0.0543
  756POPS   C1A10547  10.413  15.289   6.949  0.1526 -0.1101 -0.2876
  756POPS   D2A10548  10.752  15.129   7.314 -0.1277  0.0635  0.0355
  756POPS   C3A10549  10.675  15.285   7.672  0.0490  0.1027 -0.0730
  756POPS   C4A10550  10.586  15.266   8.096 -0.1009 -0.0343 -0.0296
  756POPS   C1B10551  10.455  14.792   6.980 -0.1469 -0.0832  0.0185
  756POPS   C2B10552  10.547  14.336   7.155  0.0917 -0.1220 -0.2553
  756POPS   C3B10553  10.841  14.051   7.199 -0.1051 -0.2549  0.1375
  756POPS   C4B10554  11.034  14.071   7.490 -0.1016  0.0224  0.0562
  757POPS   CNO10555  14.038   8.806   5.365  0.0045  0.0088 -0.1690
  757POPS   PO410556  14.137   8.773   5.791  0.0829  0.2765  0.1176
  757POPS   GL110557  14.241   8.603   6.205 -0.4238  0.3944  0.0429
  757POPS   GL210558  14.547   8.498   6.292 -0.0151 -0.0555  0.3834
  757POPS   C1A10559  14.173   8.478   6.682  0.0797  0.1590 -0.1731
  757POPS   D2A10560  14.281   8.518   7.103 -0.0969  0.2177 -0.0313
  757POPS   C3A10561  14.228   8.868   7.411 -0.0396 -0.0697 -0.2280
  757POPS   C4A10562  14.118   9.210   7.703  0.2209  0.0188 -0.1102
  757POPS   C1B10563  14.683   8.515   6.668  0.0252  0.2377  0.1142
  757POPS   C2B10564  14.769   8.681   7.075 -0.3952  0.0693  0.1688
  757POPS   C3B10565  14.759   8.897   7.460 -0.0693  0.1868 -0.3005
  757POPS   C4B10566  14.831   9.123   7.830 -0.0068  0.1944  0.0015
  758POPS   CNO10567   5.238  17.071   5.376  0.0725  0.3146  0.2810
  758POPS   PO410568   5.411  17.400   5.610 -0.2125  0.3208 -0.3593
  758POPS   GL110569   5.511  17.100   5.909 -0.0319 -0.2944  0.2829
  758POPS   GL210570   5.191  17.092   6.025 -0.3742 -0.1791  0.1274
  758POPS   C1A10571   5.613  16.723   6.154  0.2042  0.4180  0.1169
  758POPS   D2A10572   5.534  16.467   6.621 -0.1970  0.1345 -0.0205
  758POPS   C3A10573   5.771  16.125   6.806  0.0261  0.4661 -0.2284
  758POPS   C4A10574   6.184  16.216   6.998 -0.1594  0.1146  0.1626
  758POPS   C1B10575   5.360  17.104   6.459 -0.1386  0.1938  0.1278
  758POPS   C2B10576   5.481  16.920   6.772 -0.1792 -0.1113  0.0549
  758POPS   C3B10577   5.289  16.884   7.173 -0.0404 -0.0827  0.1931
  758POPS   C4B10578   5.029  16.764   7.553 -0.1004  0.1566  0.1584
  759POPS   CNO10579   3.847   5.569   6.014 -0.2067 -0.0453  0.1544
  759POPS   PO410580   4.096   5.770   5.623  0.1376  0.0752 -0.2930
  759POPS   GL110581   4.267   5.891   5.949 -0.1185 -0.1707  0.1377
  759POPS   GL210582   4.374   5.666   6.187  0.2173 -0.1610 -0.0787
  759POPS   C1A10583   4.093   6.074   6.298  0.2518 -0.1633 -0.0571
  759POPS   D2A10584   4.120   6.378   6.587 -0.1559  0.2129  0.0718
  759POPS   C3A10585   4.284   6.393   6.972 -0.0361  0.1082  0.2107
  759POPS   C4A10586   4.134   6.320   7.363  0.3361 -0.1324 -0.1081
  759POPS   C1B10587   4.297   5.725   6.614 -0.2354 -0.1647  0.0507
  759POPS   C2B10588   4.288   5.878   7.089 -0.1785  0.1373 -0.1315
  759POPS   C3B10589   4.358   5.885   7.556  0.1244 -0.0414  0.1825
  759POPS   C4B10590   4.443   5.489   7.745  0.0551 -0.1173 -0.0565
  760POPS   CNO10591   6.119   6.360   4.947  0.0355 -0.0645 -0.0080
  760POPS   PO410592   5.940   6.734   5.093  0.0918 -0.1760  0.0125
  760POPS   GL110593   5.897   6.741   5.522 -0.1508  0.2980  0.1474
  760POPS   GL210594   5.906   7.017   5.591 -0.1955 -0.0629 -0.1108
  760POPS   C1A10595   6.036   6.729   5.980  0.0640 -0.0738  0.1458
  760POPS   D2A10596   6.098   6.668   6.427 -0.1131 -0.4840 -0.1790
  760POPS   C3A10597   6.468   6.832   6.633 -0.4510  0.3875 -0.0377
  760POPS   C4A10598   6.960   6.856   6.683 -0.0787 -0.0526  0.2150
  760POPS   C1B10599   6.109   7.207   5.993 -0.0110  0.0616 -0.0469
  760POPS   C2B10600   6.358   7.320   6.362  0.2573  0.3311 -0.0312
  760POPS   C3B10601   6.498   7.724   6.487 -0.0238 -0.1214 -0.1593
  760POPS   C4B10602   6.367   7.984   6.812 -0.1046 -0.0533  0.1669
  761POPS   CNO10603  13.175   4.056   5.502  0.1636 -0.2469  0.1101
  761POPS   PO410604  12.973   3.887   5.881 -0.0233 -0.1327  0.0847
  761POPS   GL110605  13.104   4.040   6.349  0.0130 -0.1848  0.1362
  761POPS   GL210606  13.097   3.715   6.550  0.1377  0.2310  0.3620
  761POPS   C1A10607  12.975   4.365   6.713  0.1198 -0.0381 -0.1753
  761POPS   D2A10608  12.903   4.363   7.125  0.3177 -0.3414  0.2328
  761POPS   C3A10609  13.067   4.642   7.343  0.0108  0.0464 -0.0381
  761POPS   C4A10610  13.520   4.887   7.415 -0.3871  0.1260  0.0655
  761POPS   C1B10611  13.105   3.669   6.998  0.2342 -0.1730  0.1267
  761POPS   C2B10612  13.162   3.719   7.426  0.3243 -0.3001  0.2374
  761POPS   C3B10613  13.476   3.862   7.757  0.1617 -0.0438 -0.2252
  761POPS   C4B10614  13.920   3.853   7.975 -0.1848  0.0018 -0.3354
  762POPS   CNO10615   8.007  10.630   5.164 -0.2274  0.0212 -0.1587
  762POPS   PO410616   7.630  10.444   5.125  0.2366 -0.4644  0.0967
  762POPS   GL110617   7.463  10.700   5.534  0.1295  0.0896 -0.0226
  762POPS   GL210618   7.328  10.894   5.610 -0.1897 -0.1284 -0.0471
  762POPS   C1A10619   7.545  10.431   5.906 -0.2127 -0.0550  0.0647
  762POPS   D2A10620   7.836  10.095   6.025  0.0033  0.0889  0.1271
  762POPS   C3A10621   7.673   9.894   6.399  0.0245  0.0113  0.4294
  762POPS   C4A10622   7.894   9.709   6.727  0.0487 -0.0453 -0.2849
  762POPS   C1B10623   7.488  10.982   5.962 -0.1457 -0.0741 -0.2304
  762POPS   C2B10624   7.738  10.853   6.226  0.3330  0.1628 -0.2481
  762POPS   C3B10625   7.875  10.779   6.637  0.1304  0.1644 -0.3147
  762POPS   C4B10626   8.103  10.591   6.959  0.3040 -0.0771 -0.0730
  763POPS   CNO10627   3.931  17.684   5.708  0.2660 -0.0481  0.1342
  763POPS   PO410628   3.823  18.031   5.945  0.0576  0.1801  0.1946
  763POPS   GL110629   3.726  18.156   6.335 -0.0591  0.3130  0.3113
  763POPS   GL210630   3.511  17.934   6.404  0.1015  0.0419  0.2125
  763POPS   C1A10631   3.803  18.213   6.747 -0.0773 -0.1665  0.0879
  763POPS   D2A10632   3.819  18.207   7.218  0.0597  0.0379 -0.0668
  763POPS   C3A10633   3.892  18.445   7.464  0.1601  0.2497 -0.0906
  763POPS   C4A10634   3.839  18.660   7.822  0.3502 -0.0322  0.3380
  763POPS   C1B10635   3.410  17.843   6.784 -0.1277 -0.0779 -0.1304
  763POPS   C2B10636   3.470  17.836   7.228  0.0952 -0.0006 -0.2422
  763POPS   C3B10637   3.534  17.921   7.610  0.0155  0.0847  0.0248
  763POPS   C4B10638   3.329  18.130   7.957  0.4058  0.1303 -0.1705
  764POPS   CNO10639  16.360  17.667   6.698 -0.4914  0.3741  0.2427
  764POPS   PO410640  16.364  17.183   6.548  0.1617 -0.0389 -0.2627
  764POPS   GL110641  16.274  16.832   6.741 -0.1218  0.0778 -0.1581
  764POPS   GL210642  16.346  16.610   6.493  0.2317  0.1894 -0.2974
  764POPS   C1A10643  16.120  16.695   7.157  0.0153  0.0674 -0.1210
  764POPS   D2A10644  15.872  16.822   7.531 -0.0545  0.0205 -0.0221
  764POPS   C3A10645  15.958  16.836   7.957 -0.1425 -0.5498 -0.0319
  764POPS   C4A10646  15.828  17.166   8.283 -0.3226 -0.3814 -0.1440
  764POPS   C1B10647  16.324  16.387   6.858 -0.1264 -0.0346 -0.0295
  764POPS   C2B10648  16.413  16.312   7.253 -0.1429  0.0392  0.1440
  764POPS   C3B10649  16.282  15.910   7.660 -0.1063 -0.0339  0.1262
  764POPS   C4B10650  16.348  16.048   8.101  0.2707 -0.1801  0.2103
  765POPS   CNO10651   2.200   7.114   5.311  0.4164  0.1582  0.2947
  765POPS   PO410652   2.100   7.066   5.758 -0.0970  0.1207 -0.3835
  765POPS   GL110653   1.884   6.986   6.114  0.1495  0.0752  0.3063
  765POPS   GL210654   1.509   7.210   6.260  0.1339 -0.2124 -0.1799
  765POPS   C1A10655   1.881   7.057   6.549  0.3193 -0.3685 -0.1837
  765POPS   D2A10656   1.883   7.059   7.034  0.2153  0.0357  0.1873
  765POPS   C3A10657   2.095   6.920   7.396 -0.0676  0.0165  0.0822
  765POPS   C4A10658   2.310   6.900   7.779  0.1559  0.1173 -0.0195
  765POPS   C1B10659   1.442   6.916   6.518  0.1146  0.1116 -0.1618
  765POPS   C2B10660   1.659   6.667   6.754 -0.1570  0.3422 -0.1959
  765POPS   C3B10661   1.764   6.538   7.162  0.0540 -0.2590  0.1713
  765POPS   C4B10662   1.966   6.273   7.376  0.0448  0.1578 -0.0432
  766POPS   CNO10663   0.959   6.136   4.974 -0.0251 -0.1144 -0.0363
  766POPS   PO410664   0.927   6.038   5.352 -0.1850  0.0045  0.0902
  766POPS   GL110665   0.831   5.847   5.822  0.4267 -0.0955  0.3335
  766POPS   GL210666   1.015   5.583   6.024  0.2151 -0.1611 -0.3639
  766POPS   C1A10667   0.656   5.873   6.345  0.0598  0.3334  0.0100
  766POPS   D2A10668   0.483   5.853   6.785 -0.4250  0.1564 -0.3301
  766POPS   C3A10669   0.199   5.780   6.953 -0.0223 -0.5070  0.3276
  766POPS   C4A10670  -0.192   5.642   6.844  0.2186 -0.1798  0.2411
  766POPS   C1B10671   1.310   5.436   6.443  0.3379 -0.2729 -0.0201
  766POPS   C2B10672   1.562   5.389   6.761 -0.4130 -0.0586 -0.0409
  766POPS   C3B10673   1.841   5.420   7.112  0.1453  0.0851 -0.2140
  766POPS   C4B10674   2.005   5.444   7.508 -0.0842  0.2587 -0.0025
  767POPS   CNO10675  16.425  15.388   5.802  0.3721 -0.0035  0.0355
  767POPS   PO410676  16.168  15.597   5.877 -0.0290  0.2354 -0.3481
  767POPS   GL110677  16.209  15.524   6.224 -0.0108  0.0071 -0.2268
  767POPS   GL210678  16.104  15.863   6.425 -0.0439  0.2322 -0.1192
  767POPS   C1A10679  16.426  15.502   6.628 -0.0965  0.1355  0.0746
  767POPS   D2A10680  16.625  15.363   6.947 -0.1960  0.1444 -0.1747
  767POPS   C3A10681  16.485  15.137   7.303  0.3421 -0.3526  0.1104
  767POPS   C4A10682  16.625  15.155   7.752  0.2837 -0.1218 -0.0694
  767POPS   C1B10683  16.298  15.900   6.882  0.1704  0.4443 -0.1382
  767POPS   C2B10684  16.364  15.747   7.193  0.1091  0.0074  0.3690
  767POPS   C3B10685  16.649  15.618   7.369  0.0718  0.0300 -0.2095
  767POPS   C4B10686  16.687  15.741   7.887 -0.1251  0.0176  0.1862
  768POPS   CNO10687   8.609   6.654   5.833  0.1631 -0.2669  0.4733
  768POPS   PO410688   8.942   6.880   5.668 -0.1991  0.1341 -0.1695
  768POPS   GL110689   8.956   7.145   6.013 -0.1223 -0.0933 -0.0431
  768POPS   GL210690   9.132   7.448   6.087  0.1044 -0.0602  0.2160
  768POPS   C1A10691   8.760   7.128   6.356  0.1001  0.0699 -0.0472
  768POPS   D2A10692   8.796   7.072   6.687  0.2398  0.1498 -0.2230
  768POPS   C3A10693   8.895   7.028   7.128 -0.1169 -0.0482  0.0078
  768POPS   C4A10694   9.118   7.031   7.384  0.0736  0.0536 -0.1096
  768POPS   C1B10695   9.179   7.423   6.514 -0.0732 -0.0472 -0.2077
  768POPS   C2B10696   9.091   7.433   6.989 -0.2493 -0.1920  0.1082
  768POPS   C3B10697   9.126   7.509   7.516 -0.2267 -0.1519  0.3311
  768POPS   C4B10698   9.141   7.481   7.939 -0.0080 -0.1983 -0.2351
  769POPS   CNO10699   4.112   7.165   5.043 -0.0853 -0.0637  0.0966
  769POPS   PO410700   4.390   6.883   5.354  0.2043 -0.3205  0.0161
  769POPS   GL110701   4.319   6.695   5.849 -0.1664  0.0840 -0.2333
  769POPS   GL210702   4.127   6.365   5.808 -0.1229 -0.1616 -0.0784
  769POPS   C1A10703   4.315   6.620   6.229 -0.2587  0.0086 -0.1359
  769POPS   D2A10704   4.196   6.829   6.537  0.1863 -0.2781 -0.0962
  769POPS   C3A10705   4.406   6.909   6.843  0.3956 -0.1246 -0.1476
  769POPS   C4A10706   4.537   6.723   7.288  0.1027  0.0180  0.0632
  769POPS   C1B10707   3.868   6.610   6.033 -0.0477  0.1197  0.0177
  769POPS   C2B10708   3.604   6.889   6.405  0.3592  0.0626  0.1023
  769POPS   C3B10709   3.122   6.991   6.382  0.2013  0.1258 -0.2528
  769POPS   C4B10710   2.779   7.165   6.677  0.0269  0.0767  0.0308
  770POPS   CNO10711  10.440  17.753   5.608  0.2451 -0.1252  0.0273
  770POPS   PO410712   9.927  17.667   5.712  0.0852  0.1069 -0.1070
  770POPS   GL110713   9.811  17.752   6.136  0.0216 -0.2422 -0.1094
  770POPS   GL210714   9.928  17.498   6.244  0.1912 -0.1437  0.1936
  770POPS   C1A10715   9.438  17.760   6.358 -0.0172 -0.0115  0.2225
  770POPS   D2A10716   9.025  17.550   6.370 -0.0676 -0.0821  0.0008
  770POPS   C3A10717   8.821  17.464   6.807  0.1641  0.0141 -0.3123
  770POPS   C4A10718   8.759  17.398   7.242 -0.1797  0.2983  0.1249
  770POPS   C1B10719   9.813  17.531   6.722  0.0582 -0.4141 -0.0318
  770POPS   C2B10720   9.839  17.327   7.183 -0.2504 -0.2494 -0.0889
  770POPS   C3B10721   9.627  17.262   7.500  0.2532  0.0882 -0.1048
  770POPS   C4B10722   9.681  17.250   7.970 -0.1257  0.1942  0.0313
  771POPS   CNO10723  16.297   5.170   5.552  0.0503  0.1136 -0.2540
  771POPS   PO410724  16.648   5.335   5.727 -0.0847 -0.1231 -0.0531
  771POPS   GL110725  16.739   5.353   6.146  0.0669 -0.1988 -0.0565
  771POPS   GL210726  17.044   5.190   6.216 -0.1625 -0.0237  0.2364
  771POPS   C1A10727  16.708   5.357   6.531  0.1342 -0.0657 -0.0336
  771POPS   D2A10728  16.809   5.339   7.010 -0.3678  0.2220  0.0390
  771POPS   C3A10729  16.851   5.128   7.343  0.1400  0.3524 -0.2136
  771POPS   C4A10730  16.548   5.007   7.649  0.2657  0.1630 -0.1514
  771POPS   C1B10731  17.240   5.228   6.628 -0.2044  0.0426 -0.2190
  771POPS   C2B10732  17.308   5.255   7.044  0.0914 -0.0091  0.0408
  771POPS   C3B10733  17.355   5.231   7.504 -0.1403 -0.0146  0.0226
  771POPS   C4B10734  17.116   4.965   7.751 -0.1468 -0.1101 -0.0158
  772POPS   CNO10735  12.258   1.611   5.987 -0.0117  0.1548 -0.2442
  772POPS   PO410736  12.185   1.220   6.213  0.0570  0.0184  0.1310
  772POPS   GL110737  12.069   1.501   6.474  0.2467 -0.0090 -0.0126
  772POPS   GL210738  12.287   1.674   6.502 -0.0015  0.2285 -0.2046
  772POPS   C1A10739  12.057   1.516   6.946  0.3664  0.0804  0.2809
  772POPS   D2A10740  11.961   1.559   7.369 -0.1386 -0.2284 -0.1144
  772POPS   C3A10741  12.135   1.540   7.749  0.1990 -0.1052 -0.0461
  772POPS   C4A10742  11.980   1.386   8.138 -0.2955  0.0559  0.4846
  772POPS   C1B10743  12.441   1.809   6.934 -0.0004 -0.0538  0.3223
  772POPS   C2B10744  12.515   1.762   7.252 -0.0561  0.2460  0.2478
  772POPS   C3B10745  12.604   1.886   7.658  0.1773  0.0303 -0.0587
  772POPS   C4B10746  12.701   1.787   7.968 -0.0504 -0.1046  0.3189
  773POPS   CNO10747  11.620  12.526   5.335 -0.0570  0.2397  0.0881
  773POPS   PO410748  11.203  12.389   5.385 -0.0427 -0.0807 -0.3066
  773POPS   GL110749  11.224  12.371   5.777 -0.1558 -0.0779 -0.0075
  773POPS   GL210750  10.963  12.360   5.927 -0.2132  0.6058  0.2399
  773POPS   C1A10751  11.418  12.172   6.023 -0.1697  0.1506  0.3779
  773POPS   D2A10752  11.540  12.349   6.404 -0.0555 -0.1538  0.0259
  773POPS   C3A10753  11.803  12.658   6.346 -0.0560  0.0111  0.3689
  773POPS   C4A10754  12.179  12.838   6.411 -0.1384  0.3776 -0.2230
  773POPS   C1B10755  11.091  12.344   6.315 -0.1000 -0.3941  0.1088
  773POPS   C2B10756  11.062  12.394   6.747  0.2005  0.1393 -0.1685
  773POPS   C3B10757  11.058  12.581   7.107  0.0064  0.1538  0.1551
  773POPS   C4B10758  10.755  12.656   7.357  0.4296  0.0535 -0.0372
  774POPS   CNO10759  17.756  10.421   5.630 -0.1173  0.0884  0.1417
  774POPS   PO410760  17.706  10.816   5.461 -0.1495  0.1825  0.1086
  774POPS   GL110761  17.667  10.988   5.886 -0.4183  0.2548  0.0330
  774POPS   GL210762  17.657  10.677   6.069  0.1334  0.0349  0.0193
  774POPS   C1A10763  17.311  11.144   6.069  0.0942  0.2785 -0.0440
  774POPS   D2A10764  17.329  11.094   6.497  0.3261 -0.1926 -0.1680
  774POPS   C3A10765  17.582  11.211   6.584 -0.2315  0.0323 -0.0738
  774POPS   C4A10766  17.835  10.997   6.338 -0.1661  0.1491 -0.2257
  774POPS   C1B10767  17.181  10.618   6.156 -0.0400 -0.1574 -0.1253
  774POPS   C2B10768  16.921  10.808   6.422 -0.0593  0.2213  0.1704
  774POPS   C3B10769  16.890  10.899   6.820 -0.1880  0.0040 -0.1546
  774POPS   C4B10770  16.753  11.035   7.213  0.2308  0.2801  0.0814
  775POPS   CNO10771  17.755   4.366   5.335  0.3794 -0.0028 -0.1403
  775POPS   PO410772  18.190   4.465   5.509 -0.2768  0.0689  0.1373
  775POPS   GL110773  17.839   4.513   5.782  0.1223  0.2429 -0.0253
  775POPS   GL210774  17.747   4.350   5.971 -0.1556  0.1395  0.0619
  775POPS   C1A10775  17.994   4.805   6.146  0.0716 -0.0367  0.2312
  775POPS   D2A10776  18.322   5.033   6.311 -0.0113  0.0858  0.1238
  775POPS   C3A10777  18.249   5.174   6.829  0.3301 -0.0440 -0.1178
  775POPS   C4A10778  18.192   5.233   7.231  0.1915  0.0614  0.2181
  775POPS   C1B10779  17.644   4.483   6.378  0.0983 -0.1053  0.0577
  775POPS   C2B10780  17.585   4.541   6.755 -0.0602  0.2390  0.1227
  775POPS   C3B10781  17.414   4.808   6.923  0.1942 -0.0144 -0.2088
  775POPS   C4B10782  17.241   4.759   7.267 -0.1419 -0.2570  0.1801
  776POPS   CNO10783  11.926  16.999   6.472  0.2208  0.1239  0.0548
  776POPS   PO410784  12.163  17.423   6.379 -0.1002  0.0810  0.0169
  776POPS   GL110785  12.160  17.709   6.738  0.3317 -0.2668  0.2145
  776POPS   GL210786  12.060  18.052   6.683  0.0290  0.0765  0.3544
  776POPS   C1A10787  12.385  17.686   7.149  0.2856 -0.2802  0.3441
  776POPS   D2A10788  12.395  17.782   7.537  0.0782 -0.0968  0.1409
  776POPS   C3A10789  12.697  17.581   7.925  0.2345 -0.2344 -0.2405
  776POPS   C4A10790  12.983  17.459   8.287  0.1781 -0.0354 -0.3004
  776POPS   C1B10791  12.174  18.173   7.162 -0.3421 -0.0924 -0.3598
  776POPS   C2B10792  12.486  18.319   7.519 -0.2954 -0.2198  0.1754
  776POPS   C3B10793  12.482  18.525   8.007 -0.1339  0.1504 -0.3176
  776POPS   C4B10794  12.256  18.425   8.193  0.0011  0.0631 -0.2126
  777POPS   CNO10795  12.138   6.512   6.224  0.0874  0.0703  0.1466
  777POPS   PO410796  12.516   6.610   6.120  0.1315  0.1226 -0.1467
  777POPS   GL110797  12.618   6.714   6.497  0.2150 -0.1413  0.0538
  777POPS   GL210798  12.418   6.546   6.698 -0.3589 -0.1421  0.1031
  777POPS   C1A10799  12.839   6.484   6.879 -0.0562 -0.1474  0.0115
  777POPS   D2A10800  12.964   6.458   7.281  0.0815  0.0237 -0.1408
  777POPS   C3A10801  13.001   6.720   7.617  0.4110 -0.1546 -0.1029
  777POPS   C4A10802  13.337   6.902   7.839  0.0396 -0.0015 -0.1778
  777POPS   C1B10803  12.020   6.393   6.656  0.1595  0.1022 -0.3989
  777POPS   C2B10804  11.743   6.096   6.669 -0.1985 -0.1965  0.0429
  777POPS   C3B10805  11.625   6.126   7.087  0.1038  0.0207 -0.0250
  777POPS   C4B10806  11.364   5.825   7.336  0.0971  0.0296 -0.1649
  778POPS   CNO10807  16.706  14.083   5.196  0.1565  0.1341  0.0397
  778POPS   PO410808  16.730  13.621   5.505  0.0507 -0.2338  0.0226
  778POPS   GL110809  16.586  13.229   5.835 -0.0183  0.2455 -0.2179
  778POPS   GL210810  16.394  13.146   6.160 -0.2700 -0.3959  0.2010
  778POPS   C1A10811  16.916  13.293   6.147  0.1402  0.2268 -0.0486
  778POPS   D2A10812  17.090  13.513   6.551 -0.1911 -0.0462 -0.3713
  778POPS   C3A10813  16.912  13.502   6.933  0.1282 -0.1840  0.0206
  778POPS   C4A10814  16.729  13.173   7.119 -0.1943  0.0663  0.0674
  778POPS   C1B10815  16.583  13.475   6.431 -0.2206  0.1298  0.0477
  778POPS   C2B10816  16.491  13.740   6.868  0.1806  0.3715 -0.1256
  778POPS   C3B10817  16.533  13.549   7.324 -0.2501  0.2138 -0.0479
  778POPS   C4B10818  16.876  13.403   7.586 -0.1798  0.0519  0.2901
  779POPS   CNO10819  13.392  11.010   5.756 -0.0186  0.0420  0.0731
  779POPS   PO410820  13.165  10.786   6.056  0.0768  0.2683 -0.2711
  779POPS   GL110821  13.395  10.683   6.487  0.3195  0.0860 -0.0540
  779POPS   GL210822  13.301  10.864   6.725  0.1001 -0.2057  0.0891
  779POPS   C1A10823  13.762  10.532   6.581  0.1167 -0.0953 -0.2291
  779POPS   D2A10824  14.160  10.410   6.743  0.0942 -0.2501 -0.2315
  779POPS   C3A10825  14.179  10.126   7.156  0.1157 -0.0726  0.0366
  779POPS   C4A10826  14.238   9.811   7.431 -0.1162  0.0175 -0.0909
  779POPS   C1B10827  13.379  10.882   7.097  0.2678  0.1098  0.1182
  779POPS   C2B10828  13.360  10.818   7.496 -0.0107  0.5285 -0.1949
  779POPS   C3B10829  13.728  10.893   7.692  0.1467 -0.1913 -0.0806
  779POPS   C4B10830  14.115  10.732   7.905 -0.1372  0.1744  0.1878
  780POPS   CNO10831   9.761  13.340   5.664  0.4880 -0.1429 -0.1179
  780POPS   PO410832   9.764  12.970   5.802 -0.1664 -0.0328 -0.1145
  780POPS   GL110833   9.654  12.743   6.073 -0.2339  0.0334  0.2129
  780POPS   GL210834   9.305  12.654   6.195 -0.0526 -0.0833  0.0411
  780POPS   C1A10835   9.717  12.375   6.243 -0.0934  0.0280  0.2185
  780POPS   D2A10836   9.697  12.290   6.684  0.1456  0.1812 -0.1027
  780POPS   C3A10837   9.577  12.058   7.046  0.0125  0.0977 -0.0387
  780POPS   C4A10838   9.423  12.014   7.440 -0.1130 -0.1681  0.2441
  780POPS   C1B10839   9.289  12.525   6.549  0.5005 -0.1499 -0.3448
  780POPS   C2B10840   9.261  12.429   6.992  0.0231  0.0364  0.1338
  780POPS   C3B10841   9.034  12.352   7.373 -0.0900  0.0490 -0.1807
  780POPS   C4B10842   9.051  12.027   7.741 -0.1112 -0.0864  0.1599
  781POPS   CNO10843   7.658   5.701   4.731 -0.1275  0.0733  0.4385
  781POPS   PO410844   7.859   5.701   5.149 -0.3806 -0.1101 -0.0040
  781POPS   GL110845   7.877   5.405   5.495 -0.2593  0.0790  0.3516
  781POPS   GL210846   7.949   5.519   5.755 -0.0022 -0.1533  0.1384
  781POPS   C1A10847   7.475   5.361   5.869 -0.1512 -0.0711 -0.1079
  781POPS   D2A10848   7.193   5.187   6.017 -0.0280  0.3360  0.4885
  781POPS   C3A10849   7.222   4.750   5.974 -0.0112  0.1080 -0.1399
  781POPS   C4A10850   7.188   4.373   6.127 -0.0794  0.0419  0.3768
  781POPS   C1B10851   8.003   5.410   6.247  0.0002 -0.0522 -0.3863
  781POPS   C2B10852   7.835   5.433   6.628 -0.1638 -0.0768  0.1319
  781POPS   C3B10853   7.622   5.375   7.058 -0.0091  0.1045 -0.0235
  781POPS   C4B10854   7.730   5.315   7.484 -0.2085 -0.0327 -0.0808
  782POPS   CNO10855  12.131   2.126   6.108  0.0125 -0.0707 -0.0363
  782POPS   PO410856  11.747   2.059   5.988  0.0866  0.1578  0.1542
  782POPS   GL110857  11.812   2.489   6.286 -0.2630 -0.0033 -0.2027
  782POPS   GL210858  12.123   2.661   6.242 -0.1916  0.2736 -0.0885
  782POPS   C1A10859  11.812   2.609   6.677  0.2344 -0.0398 -0.0548
  782POPS   D2A10860  11.894   2.692   7.100 -0.1213  0.1035 -0.2371
  782POPS   C3A10861  11.911   2.652   7.488  0.0931  0.1205 -0.0410
  782POPS   C4A10862  11.893   2.560   7.864 -0.2092  0.2368 -0.2859
  782POPS   C1B10863  12.326   2.921   6.491 -0.3567 -0.3507 -0.2490
  782POPS   C2B10864  12.425   2.972   6.942 -0.1062 -0.0006  0.3076
  782POPS   C3B10865  12.328   2.871   7.365 -0.0086  0.1801  0.1267
  782POPS   C4B10866  12.330   3.226   7.515 -0.1760  0.0168  0.1273
  783POPS   CNO10867  13.626   6.910   5.750  0.0114  0.4023  0.0260
  783POPS   PO410868  13.486   6.555   6.034 -0.3493  0.2103  0.3647
  783POPS   GL110869  13.516   6.526   6.520  0.1272 -0.0967 -0.1281
  783POPS   GL210870  13.807   6.513   6.689  0.0785  0.0594  0.1405
  783POPS   C1A10871  13.261   6.274   6.824  0.1897  0.2179 -0.1909
  783POPS   D2A10872  13.306   6.094   7.228  0.3522 -0.0362 -0.1504
  783POPS   C3A10873  13.145   5.718   7.366  0.5728  0.1125  0.0640
  783POPS   C4A10874  13.168   5.202   7.354 -0.1877 -0.1040  0.1315
  783POPS   C1B10875  14.040   6.591   7.087 -0.0502  0.0943  0.1695
  783POPS   C2B10876  14.284   6.604   7.417 -0.1189  0.1559 -0.0549
  783POPS   C3B10877  14.161   6.768   7.788 -0.0240 -0.1213  0.0356
  783POPS   C4B10878  14.123   6.882   8.297  0.0941 -0.2306 -0.0725
  784POPS   CNO10879   1.278  13.840   6.172  0.3333 -0.0211 -0.3452
  784POPS   PO410880   1.422  14.224   5.925 -0.0819 -0.0643 -0.0150
  784POPS   GL110881   1.464  14.266   6.299 -0.1020 -0.0155  0.2865
  784POPS   GL210882   1.336  14.477   6.399 -0.2103  0.0423 -0.2246
  784POPS   C1A10883   1.579  14.014   6.608  0.2141  0.0724 -0.1592
  784POPS   D2A10884   1.840  14.188   6.989 -0.5102  0.1211  0.0817
  784POPS   C3A10885   1.913  14.276   7.439 -0.2163 -0.1058  0.0948
  784POPS   C4A10886   1.994  14.412   7.836  0.1019  0.1390 -0.3192
  784POPS   C1B10887   1.382  14.461   6.812 -0.1401  0.1228  0.0453
  784POPS   C2B10888   1.468  14.429   7.311  0.1879  0.1472  0.1581
  784POPS   C3B10889   1.529  14.681   7.718  0.0566 -0.0567  0.1853
  784POPS   C4B10890   1.654  14.747   8.065 -0.0902  0.0604 -0.3236
  785POPS   CNO10891   9.803   4.826   5.518  0.0770  0.1503  0.0995
  785POPS   PO410892   9.765   4.640   5.823  0.0588  0.2521 -0.0881
  785POPS   GL110893   9.741   4.807   6.371 -0.1421 -0.0257  0.0663
  785POPS   GL210894   9.580   5.161   6.545  0.2085  0.1499  0.2470
  785POPS   C1A10895  10.035   4.862   6.765  0.0077  0.1056 -0.2077
  785POPS   D2A10896  10.062   4.985   7.185  0.1927  0.1716  0.3111
  785POPS   C3A10897   9.951   5.425   7.284 -0.2199 -0.0734  0.0173
  785POPS   C4A10898   9.496   5.624   7.203 -0.2223  0.1467 -0.0027
  785POPS   C1B10899   9.560   5.141   6.922 -0.4422 -0.0860 -0.2366
  785POPS   C2B10900   9.512   5.075   7.364  0.0076 -0.0029 -0.1789
  785POPS   C3B10901   9.698   5.015   7.804 -0.2798 -0.0594  0.2059
  785POPS   C4B10902   9.660   5.171   8.071 -0.2438 -0.1721  0.3976
  786POPS   CNO10903   3.230   0.480   5.473 -0.1741 -0.1177  0.0589
  786POPS   PO410904   3.588   0.593   5.755  0.2394 -0.1707 -0.0357
  786POPS   GL110905   3.522   0.378   6.205 -0.1461 -0.1615 -0.0619
  786POPS   GL210906   3.296   0.145   6.225 -0.0493  0.0379  0.1463
  786POPS   C1A10907   3.745   0.393   6.609 -0.1459 -0.2059  0.2603
  786POPS   D2A10908   3.742   0.462   7.076 -0.2436 -0.3544 -0.2727
  786POPS   C3A10909   3.507   0.671   7.430  0.2403  0.1777 -0.0086
  786POPS   C4A10910   3.178   0.892   7.531  0.4270  0.1382 -0.4613
  786POPS   C1B10911   3.270   0.077   6.614  0.0061 -0.2661 -0.0972
  786POPS   C2B10912   3.294   0.030   7.041 -0.0564  0.2558 -0.1085
  786POPS   C3B10913   3.342   0.206   7.433  0.1918  0.0300 -0.4118
  786POPS   C4B10914   3.328   0.362   7.820  0.0749  0.1148  0.0442
  787POPS   CNO10915  15.214  16.451   5.645 -0.2162 -0.1035 -0.0359
  787POPS   PO410916  14.998  16.196   5.994  0.2075 -0.1753  0.1120
  787POPS   GL110917  15.093  16.470   6.302  0.0248  0.0497 -0.0465
  787POPS   GL210918  15.160  16.273   6.489 -0.3147  0.2264 -0.0212
  787POPS   C1A10919  14.683  16.381   6.637  0.0834  0.0360 -0.1938
  787POPS   D2A10920  14.184  16.486   6.745  0.0785  0.0619 -0.0687
  787POPS   C3A10921  14.036  16.358   7.211 -0.1343  0.1146  0.3533
  787POPS   C4A10922  14.021  16.301   7.591 -0.3413 -0.0034 -0.4845
  787POPS   C1B10923  15.230  16.245   6.906  0.0104  0.0629 -0.1553
  787POPS   C2B10924  15.372  16.153   7.248  0.0456 -0.2972 -0.0741
  787POPS   C3B10925  15.540  16.208   7.729 -0.2419 -0.0886  0.1168
  787POPS   C4B10926  15.823  16.112   8.050 -0.0245  0.4011  0.0151
  788POPS   CNO10927  15.012   2.169   6.264 -0.0457 -0.1505 -0.1128
  788POPS   PO410928  14.611   2.053   6.266 -0.2877  0.3301  0.2593
  788POPS   GL110929  14.646   2.100   6.620  0.0405 -0.0447  0.1121
  788POPS   GL210930  14.485   1.812   6.707  0.0415  0.0571 -0.2693
  788POPS   C1A10931  14.667   2.325   6.894 -0.0156 -0.0479  0.0830
  788POPS   D2A10932  14.647   2.328   7.413 -0.2180 -0.0486  0.0596
  788POPS   C3A10933  14.961   2.441   7.650  0.1988 -0.1619  0.2329
  788POPS   C4A10934  15.101   2.297   8.085 -0.2089 -0.0041  0.0523
  788POPS   C1B10935  14.507   1.897   7.192 -0.0560 -0.0502  0.1864
  788POPS   C2B10936  14.523   1.717   7.602 -0.0638 -0.2325 -0.2897
  788POPS   C3B10937  14.815   1.458   7.915 -0.2589 -0.2497 -0.0323
  788POPS   C4B10938  14.795   1.238   8.305  0.1197  0.0669 -0.4099
  789POPS   CNO10939  12.931   1.749   5.925 -0.2907  0.1765 -0.0550
  789POPS   PO410940  12.645   1.973   6.026  0.0063 -0.3384 -0.1205
  789POPS   GL110941  12.520   2.085   6.458  0.0518  0.3479 -0.0876
  789POPS   GL210942  12.364   2.413   6.608 -0.0405  0.3287 -0.0662
  789POPS   C1A10943  12.770   2.188   6.804  0.2496 -0.2426  0.1400
  789POPS   D2A10944  12.830   2.165   7.184 -0.0083  0.1004  0.0653
  789POPS   C3A10945  13.030   2.298   7.524 -0.1575  0.1636  0.0833
  789POPS   C4A10946  13.177   2.082   7.881 -0.1338 -0.1569 -0.0444
  789POPS   C1B10947  12.454   2.513   6.996 -0.2305 -0.2484  0.0526
  789POPS   C2B10948  12.495   2.418   7.494 -0.1152  0.4944 -0.4638
  789POPS   C3B10949  12.761   2.395   7.966 -0.4487  0.3067 -0.0318
  789POPS   C4B10950  12.921   2.113   8.267  0.0317 -0.2733 -0.2935
  790POPS   CNO10951   2.613   1.528   5.604 -0.2076 -0.1279  0.1429
  790POPS   PO410952   2.701   1.136   5.824  0.0364 -0.6211 -0.2154
  790POPS   GL110953   2.883   1.195   6.163  0.0904 -0.0278 -0.1035
  790POPS   GL210954   3.038   1.444   5.990  0.2378  0.0280  0.0510
  790POPS   C1A10955   3.023   1.121   6.557  0.0528 -0.1975 -0.3693
  790POPS   D2A10956   2.972   1.048   7.031 -0.1952 -0.1868  0.2489
  790POPS   C3A10957   2.634   0.958   7.124  0.0722 -0.1698 -0.2579
  790POPS   C4A10958   2.349   0.780   7.309 -0.3103  0.2873 -0.1899
  790POPS   C1B10959   3.415   1.359   6.264  0.1440 -0.0955 -0.4283
  790POPS   C2B10960   3.659   1.307   6.619  0.1345 -0.3646  0.3342
  790POPS   C3B10961   3.821   1.377   6.875 -0.0311  0.0973  0.0132
  790POPS   C4B10962   4.052   1.663   6.983  0.1003  0.2318  0.0975
  791POPS   CNO10963   6.567  12.408   5.643 -0.0000 -0.0542 -0.0141
  791POPS   PO410964   6.289  12.523   5.988  0.0629  0.2920  0.2379
  791POPS   GL110965   6.589  12.292   6.217 -0.0797 -0.2047  0.0379
  791POPS   GL210966   6.803  11.988   6.178  0.0551  0.1412 -0.0643
  791POPS   C1A10967   6.493  12.122   6.596  0.1971 -0.1512  0.0392
  791POPS   D2A10968   6.618  11.785   6.842  0.1094  0.1789 -0.0420
  791POPS   C3A10969   6.849  11.843   7.221 -0.0877  0.0040 -0.0554
  791POPS   C4A10970   6.870  11.985   7.679 -0.2647 -0.0152 -0.0388
  791POPS   C1B10971   6.985  12.065   6.571  0.3188 -0.3678  0.1251
  791POPS   C2B10972   7.168  12.131   6.901  0.1106 -0.1135 -0.0414
  791POPS   C3B10973   7.176  12.208   7.354  0.2461  0.0711  0.0247
  791POPS   C4B10974   7.475  12.276   7.740  0.0275  0.0229  0.0659
  792POPS   CNO10975  14.674  12.604   5.520 -0.0233 -0.1567 -0.2595
  792POPS   PO410976  14.844  12.285   5.885 -0.2008  0.0777  0.0922
  792POPS   GL110977  15.002  12.262   6.240  0.1163  0.0623  0.0011
  792POPS   GL210978  15.244  12.159   6.349 -0.1239 -0.0599 -0.0424
  792POPS   C1A10979  14.845  12.410   6.575 -0.2632 -0.0958 -0.3536
  792POPS   D2A10980  14.499  12.500   6.876  0.0517 -0.1265 -0.0485
  792POPS   C3A10981  14.664  12.374   7.285  0.0571  0.0801 -0.0739
  792POPS   C4A10982  14.680  12.131   7.738  0.2119 -0.0351 -0.2100
  792POPS   C1B10983  15.293  12.154   6.756 -0.0301  0.0433 -0.0451
  792POPS   C2B10984  15.100  12.419   7.018  0.0408 -0.1239 -0.1625
  792POPS   C3B10985  14.898  12.714   6.927 -0.1180 -0.3755  0.1103
  792POPS   C4B10986  14.781  12.949   6.628 -0.0450 -0.1814  0.0317
  793POPS   CNO10987  11.787   3.098   5.377 -0.0165  0.1701  0.1551
  793POPS   PO410988  11.561   3.006   5.726  0.1929  0.1662  0.0903
  793POPS   GL110989  11.605   3.003   6.072 -0.1355  0.0415  0.0094
  793POPS   GL210990  11.850   3.094   6.256 -0.2793  0.2895  0.2723
  793POPS   C1A10991  11.407   3.128   6.484 -0.0405  0.0374 -0.0589
  793POPS   D2A10992  11.059   3.072   6.742 -0.2203  0.1497 -0.0525
  793POPS   C3A10993  11.098   3.169   7.182  0.2429  0.1869  0.0294
  793POPS   C4A10994  10.965   3.028   7.639  0.0201  0.0516  0.2648
  793POPS   C1B10995  11.795   3.080   6.741 -0.5380 -0.1998  0.0511
  793POPS   C2B10996  11.977   3.222   7.147  0.2594  0.2307  0.1505
  793POPS   C3B10997  11.898   3.517   7.449 -0.3080 -0.1519 -0.1730
  793POPS   C4B10998  11.591   3.792   7.602  0.0932 -0.1414  0.1222
  794POPS   CNO10999  14.519   5.907   6.248  0.1089  0.1363  0.0017
  794POPS   PO411000  14.165   5.858   6.078 -0.3830 -0.2254  0.0364
  794POPS   GL111001  14.154   5.517   6.308  0.1031  0.0895 -0.0393
  794POPS   GL211002  14.024   5.617   6.524  0.0118  0.0801 -0.2003
  794POPS   C1A11003  13.975   5.124   6.363 -0.3859 -0.1447  0.0689
  794POPS   D2A11004  13.702   4.877   6.138  0.1511  0.2291  0.0160
  794POPS   C3A11005  13.340   4.916   6.414  0.0497 -0.0648 -0.1489
  794POPS   C4A11006  12.931   4.776   6.498 -0.1567  0.0233 -0.0321
  794POPS   C1B11007  13.985   5.607   6.932 -0.0545 -0.2377 -0.0726
  794POPS   C2B11008  14.108   5.642   7.303 -0.0510 -0.0238  0.1986
  794POPS   C3B11009  14.282   5.657   7.753 -0.2430  0.1967  0.2601
  794POPS   C4B11010  14.345   5.961   8.089  0.1114 -0.0549  0.0424
  795POPS   CNO11011   2.705   5.052   5.499  0.0094 -0.0329 -0.0305
  795POPS   PO411012   2.937   5.050   5.767 -0.0777  0.1272  0.2805
  795POPS   GL111013   2.864   5.188   6.163  0.3119  0.0381 -0.0548
  795POPS   GL211014   2.965   4.978   6.332  0.1098 -0.0127 -0.0692
  795POPS   C1A11015   2.797   5.463   6.418  0.1052 -0.0781  0.0946
  795POPS   D2A11016   2.481   5.805   6.431 -0.2165 -0.2028 -0.0109
  795POPS   C3A11017   2.396   5.843   6.919  0.1733 -0.1492  0.0161
  795POPS   C4A11018   2.209   5.814   7.233  0.0249  0.4108  0.1620
  795POPS   C1B11019   3.011   5.175   6.753 -0.4758 -0.0022 -0.0045
  795POPS   C2B11020   2.850   5.563   6.961 -0.0964  0.2413 -0.0410
  795POPS   C3B11021   2.720   5.672   7.342  0.0120  0.1059 -0.0338
  795POPS   C4B11022   2.694   5.666   7.785  0.3658  0.3126 -0.0101
  796POPS   CNO11023  15.052  14.208   5.498  0.2680 -0.4134  0.1003
  796POPS   PO411024  15.247  14.672   5.607 -0.0115 -0.2760  0.1707
  796POPS   GL111025  15.003  14.530   5.909  0.0369 -0.2891 -0.1232
  796POPS   GL211026  14.687  14.668   6.067 -0.1016  0.0839 -0.2307
  796POPS   C1A11027  14.917  14.396   6.432  0.0081 -0.1037  0.0069
  796POPS   D2A11028  14.839  14.420   6.799  0.0931  0.3749  0.1343
  796POPS   C3A11029  14.889  14.364   7.147 -0.0049  0.1204  0.2444
  796POPS   C4A11030  14.855  14.568   7.489  0.1891 -0.2890 -0.4416
  796POPS   C1B11031  15.017  14.900   6.276  0.0605  0.0224 -0.0404
  796POPS   C2B11032  15.169  14.785   6.610  0.3237  0.1934  0.0279
  796POPS   C3B11033  15.212  14.704   7.066  0.0613  0.0045 -0.0374
  796POPS   C4B11034  15.244  14.928   7.475 -0.2315 -0.0411 -0.0356
  797POPS   CNO11035   4.426  11.591   5.583  0.0362  0.0772 -0.2164
  797POPS   PO411036   4.538  11.549   5.958  0.1700 -0.1029  0.0185
  797POPS   GL111037   4.323  11.513   6.297  0.3490 -0.0520  0.0617
  797POPS   GL211038   4.114  11.648   6.374  0.0753  0.3166 -0.1925
  797POPS   C1A11039   4.325  11.463   6.779 -0.0630  0.0560  0.1784
  797POPS   D2A11040   4.241  11.720   7.125  0.0091  0.3621 -0.0442
  797POPS   C3A11041   4.155  11.560   7.459  0.1603 -0.2610 -0.0836
  797POPS   C4A11042   4.094  11.289   7.761 -0.0643  0.2453 -0.2999
  797POPS   C1B11043   3.945  11.800   6.747 -0.0340  0.1717  0.2594
  797POPS   C2B11044   3.626  11.794   7.095  0.5027  0.1397  0.2545
  797POPS   C3B11045   3.395  12.000   7.421  0.1067 -0.0229 -0.0929
  797POPS   C4B11046   3.457  11.986   7.891  0.1111 -0.1481  0.0614
  798POPS   CNO11047  16.319   0.391   6.082 -0.0670  0.3496 -0.0528
  798POPS   PO411048  16.007   0.473   5.947 -0.1061 -0.0813  0.3064
  798POPS   GL111049  15.982   0.710   6.286  0.1331 -0.3942 -0.3146
  798POPS   GL211050  16.266   0.642   6.513  0.0226 -0.0040 -0.0205
  798POPS   C1A11051  16.133   1.128   6.523 -0.1038  0.1781 -0.4066
  798POPS   D2A11052  16.012   1.437   6.902 -0.0796 -0.1564  0.1524
  798POPS   C3A11053  16.070   1.236   7.282  0.0904  0.1152  0.0134
  798POPS   C4A11054  16.116   1.382   7.633  0.0335  0.2433  0.0471
  798POPS   C1B11055  16.360   0.739   6.797 -0.0361  0.1063 -0.0821
  798POPS   C2B11056  16.762   0.853   6.854 -0.0946  0.1010  0.1844
  798POPS   C3B11057  17.023   1.238   6.700 -0.3364  0.1594 -0.0027
  798POPS   C4B11058  17.408   1.393   6.763  0.0309  0.0413  0.0999
  799POPS   CNO11059   1.746   4.085   5.251 -0.0230 -0.0438 -0.1315
  799POPS   PO411060   1.615   4.183   5.685  0.0207 -0.0188  0.0399
  799POPS   GL111061   1.715   4.082   6.115 -0.1346  0.0206  0.0508
  799POPS   GL211062   1.857   3.709   6.168 -0.1313  0.0338 -0.0341
  799POPS   C1A11063   1.787   4.225   6.471  0.4176  0.1608  0.0646
  799POPS   D2A11064   1.939   4.142   6.887 -0.3174 -0.0405 -0.0734
  799POPS   C3A11065   1.980   4.020   7.335  0.2154 -0.0356 -0.0447
  799POPS   C4A11066   2.304   4.218   7.483 -0.1276  0.2435  0.2614
  799POPS   C1B11067   1.921   3.699   6.547 -0.1368  0.2396 -0.2054
  799POPS   C2B11068   2.067   3.660   6.950 -0.3737 -0.3082  0.0587
  799POPS   C3B11069   2.381   3.754   7.236  0.1413  0.0335 -0.2659
  799POPS   C4B11070   2.726   3.844   7.364  0.0962  0.0157 -0.0005
  800POPS   CNO11071  17.645   8.945   5.712 -0.0843  0.0373 -0.0172
  800POPS   PO411072  17.256   9.012   5.795  0.0498 -0.0266 -0.1674
  800POPS   GL111073  17.346   9.057   6.134  0.0703 -0.2966  0.0365
  800POPS   GL211074  17.351   8.769   6.326  0.1070  0.1998 -0.0154
  800POPS   C1A11075  17.404   9.311   6.466 -0.1424  0.0613  0.0720
  800POPS   D2A11076  17.500   9.633   6.661 -0.2000 -0.1854  0.1613
  800POPS   C3A11077  17.666   9.667   7.115  0.0158  0.4866 -0.0472
  800POPS   C4A11078  17.766   9.458   7.550  0.0537  0.1159 -0.1506
  800POPS   C1B11079  17.408   8.845   6.767  0.0900  0.2736 -0.2559
  800POPS   C2B11080  17.590   9.117   6.930  0.0054  0.0691 -0.0153
  800POPS   C3B11081  18.013   9.317   7.066 -0.0144  0.4040 -0.1891
  800POPS   C4B11082  18.248   9.722   7.134  0.2015  0.1589  0.3700
  801POPS   CNO11083   9.892   0.499   5.400 -0.2489 -0.0383  0.0625
  801POPS   PO411084   9.918   0.796   5.745  0.2833 -0.1855 -0.1371
  801POPS   GL111085   9.848   0.760   6.163 -0.2880  0.0472 -0.1775
  801POPS   GL211086  10.118   0.902   6.211 -0.0961 -0.1608  0.0520
  801POPS   C1A11087   9.630   0.734   6.583 -0.2713  0.1746  0.0896
  801POPS   D2A11088   9.447   0.689   6.955  0.1540  0.2289 -0.1841
  801POPS   C3A11089   9.293   0.932   7.284  0.0595  0.2162 -0.1630
  801POPS   C4A11090   9.135   0.951   7.685 -0.2466  0.1037 -0.0059
  801POPS   C1B11091  10.105   0.890   6.653 -0.0327 -0.0078  0.1283
  801POPS   C2B11092   9.919   0.840   7.093 -0.0064 -0.0351  0.2668
  801POPS   C3B11093   9.647   0.662   7.393 -0.4385 -0.1618 -0.2579
  801POPS   C4B11094   9.629   0.805   7.896  0.0146 -0.2817 -0.0958
  802POPS   CNO11095   0.322  13.377   5.488  0.1038  0.0796 -0.0364
  802POPS   PO411096   0.395  13.421   5.875 -0.3224 -0.0170  0.1080
  802POPS   GL111097   0.475  13.413   6.329 -0.1901  0.0122  0.0923
  802POPS   GL211098   0.580  13.700   6.393 -0.1849  0.2497  0.3498
  802POPS   C1A11099   0.490  13.176   6.636 -0.0824 -0.1691 -0.1210
  802POPS   D2A11100   0.467  13.049   7.067  0.2667  0.0474 -0.1605
  802POPS   C3A11101   0.503  12.697   7.381  0.2055  0.0259 -0.2911
  802POPS   C4A11102   0.485  12.877   7.834  0.2611  0.0214  0.1449
  802POPS   C1B11103   0.608  13.645   6.798 -0.0318  0.2279 -0.1003
  802POPS   C2B11104   0.842  13.389   7.161  0.0080 -0.4387 -0.0698
  802POPS   C3B11105   1.230  13.513   7.350  0.1761 -0.0087  0.1296
  802POPS   C4B11106   1.327  13.237   7.744  0.1330 -0.1249 -0.1238
  803POPS   CNO11107  10.294   9.597   5.445 -0.2780  0.1397 -0.2567
  803POPS   PO411108  10.137  10.001   5.306 -0.1277  0.3050  0.4414
  803POPS   GL111109   9.922   9.877   5.632 -0.2787  0.2599 -0.1021
  803POPS   GL211110  10.082   9.778   5.923  0.0217  0.0165  0.1775
  803POPS   C1A11111   9.666   9.536   5.781  0.3491 -0.1851  0.2063
  803POPS   D2A11112   9.520   9.512   6.078 -0.0529 -0.2882  0.2101
  803POPS   C3A11113   9.513   9.657   6.562 -0.2085 -0.1075 -0.1852
  803POPS   C4A11114   9.460   9.828   6.965  0.0239  0.2366  0.3070
  803POPS   C1B11115   9.929  10.000   6.267 -0.2082 -0.1852  0.1434
  803POPS   C2B11116   9.714  10.127   6.606  0.1556 -0.3441 -0.0949
  803POPS   C3B11117   9.271  10.402   6.676 -0.1259 -0.2761  0.1975
  803POPS   C4B11118   8.842  10.639   6.780  0.0107 -0.1043  0.3136
  804POPS   CNO11119  12.379   8.791   6.063  0.0935  0.1086  0.0449
  804POPS   PO411120  12.002   8.728   6.108  0.0161 -0.2676  0.0879
  804POPS   GL111121  11.906   8.515   6.454  0.0363  0.1493  0.2722
  804POPS   GL211122  12.005   8.674   6.625  0.0998 -0.0129  0.3659
  804POPS   C1A11123  11.718   8.268   6.758 -0.2094  0.0399 -0.1338
  804POPS   D2A11124  11.446   8.417   7.050 -0.0533  0.1320 -0.0437
  804POPS   C3A11125  11.486   8.497   7.413 -0.0217  0.0251 -0.0003
  804POPS   C4A11126  11.587   8.627   7.814  0.0346 -0.1180 -0.0861
  804POPS   C1B11127  12.117   8.589   7.120  0.0125  0.0141  0.1912
  804POPS   C2B11128  12.026   8.632   7.548 -0.1918  0.1322  0.0331
  804POPS   C3B11129  12.089   8.762   7.932 -0.4468 -0.2744 -0.0777
  804POPS   C4B11130  12.051   8.643   8.421 -0.0558  0.1678 -0.4131
  805POPS   CNO11131   2.562   4.602   5.735  0.0304  0.0142  0.2544
  805POPS   PO411132   2.489   4.227   5.769  0.0303  0.2104 -0.2628
  805POPS   GL111133   2.604   4.390   6.188 -0.1977  0.1628  0.0894
  805POPS   GL211134   2.593   4.678   6.222  0.2039 -0.1051  0.3481
  805POPS   C1A11135   2.919   4.461   6.497  0.1279  0.0547  0.0465
  805POPS   D2A11136   3.212   4.668   6.876 -0.2202 -0.2104  0.2801
  805POPS   C3A11137   3.261   4.634   7.273 -0.0136  0.1688 -0.1891
  805POPS   C4A11138   3.162   4.551   7.734 -0.0659  0.1278  0.0439
  805POPS   C1B11139   2.584   4.712   6.750  0.2342 -0.0341 -0.0526
  805POPS   C2B11140   2.688   4.927   7.050  0.0010 -0.1853 -0.1870
  805POPS   C3B11141   3.033   5.143   7.235 -0.1116 -0.0118 -0.4704
  805POPS   C4B11142   3.037   5.358   7.705 -0.0107 -0.0283  0.0002
  806POPS   CNO11143  10.838   3.358   5.642  0.1725  0.0510  0.0293
  806POPS   PO411144  10.590   3.243   5.910  0.0354  0.2364 -0.0272
  806POPS   GL111145  10.664   3.559   6.174 -0.1451 -0.1957 -0.1319
  806POPS   GL211146  10.868   3.920   6.199  0.0309  0.0853  0.0881
  806POPS   C1A11147  10.598   3.642   6.615  0.1714  0.1117  0.0547
  806POPS   D2A11148  10.293   3.698   6.963  0.2567 -0.1510 -0.0033
  806POPS   C3A11149  10.136   3.380   6.824 -0.0990 -0.1430 -0.0984
  806POPS   C4A11150   9.981   2.976   6.805 -0.4674  0.1049 -0.2172
  806POPS   C1B11151  11.111   3.571   6.427  0.0002 -0.0964  0.3562
  806POPS   C2B11152  11.017   3.582   6.863  0.0487 -0.2200  0.1533
  806POPS   C3B11153  10.900   3.659   7.247 -0.1574  0.2542 -0.3312
  806POPS   C4B11154  10.727   3.461   7.611  0.0519  0.0663 -0.1868
  807POPS   CNO11155   4.753   6.276   4.949 -0.1842  0.1495 -0.0918
  807POPS   PO411156   4.949   6.177   5.306  0.2435  0.1928 -0.1337
  807POPS   GL111157   5.090   6.445   5.541  0.0217 -0.1298  0.2505
  807POPS   GL211158   4.904   6.654   5.545 -0.2420 -0.1444 -0.0341
  807POPS   C1A11159   5.118   6.605   6.064  0.1057  0.0281  0.0764
  807POPS   D2A11160   5.149   6.656   6.533 -0.0911  0.1524  0.0617
  807POPS   C3A11161   5.245   6.516   6.983 -0.0613  0.3013 -0.1724
  807POPS   C4A11162   5.566   6.330   7.084 -0.0337  0.0595  0.1169
  807POPS   C1B11163   4.767   6.929   5.943  0.0817 -0.3027  0.0887
  807POPS   C2B11164   4.681   6.962   6.350  0.1051  0.1034 -0.3273
  807POPS   C3B11165   4.883   7.008   6.711 -0.1722 -0.2673  0.0020
  807POPS   C4B11166   5.150   6.965   7.134  0.0400 -0.2179 -0.0464
  808POPS   CNO11167   8.225   7.669   5.796 -0.3463  0.0698  0.0782
  808POPS   PO411168   7.926   7.557   5.461  0.0995 -0.2026 -0.0782
  808POPS   GL111169   7.722   7.499   5.797 -0.0960 -0.3104 -0.2612
  808POPS   GL211170   7.562   7.876   5.883 -0.0244  0.2244 -0.3124
  808POPS   C1A11171   7.756   7.183   6.119  0.1044  0.2535 -0.1277
  808POPS   D2A11172   7.648   7.225   6.630  0.2735  0.0890  0.0808
  808POPS   C3A11173   7.850   7.319   7.055  0.0347  0.3921 -0.0835
  808POPS   C4A11174   8.068   7.658   7.026  0.0222 -0.2294  0.0773
  808POPS   C1B11175   7.585   8.119   6.264  0.2590  0.1456  0.0217
  808POPS   C2B11176   7.632   8.246   6.631  0.0350 -0.0215  0.1698
  808POPS   C3B11177   7.426   8.122   6.986 -0.1586  0.0724  0.4930
  808POPS   C4B11178   7.461   7.879   7.321 -0.1124  0.0396 -0.1919
  809POPS   CNO11179   7.141  12.345   5.728 -0.0726  0.1491  0.1559
  809POPS   PO411180   7.614  12.324   5.786 -0.1783 -0.1004  0.0814
  809POPS   GL111181   7.591  12.255   6.188 -0.2131 -0.1268  0.0544
  809POPS   GL211182   7.240  12.424   6.285 -0.1552  0.1041 -0.0452
  809POPS   C1A11183   7.572  12.343   6.693  0.2910 -0.0792  0.0976
  809POPS   D2A11184   7.640  12.348   7.082  0.2619 -0.2422  0.2702
  809POPS   C3A11185   7.862  12.178   7.443  0.0020  0.1696  0.2475
  809POPS   C4A11186   7.904  11.909   7.869  0.2847 -0.0514  0.2374
  809POPS   C1B11187   7.123  12.582   6.613  0.5272  0.0668  0.0053
  809POPS   C2B11188   6.986  12.793   6.899 -0.0250  0.4694 -0.0812
  809POPS   C3B11189   7.010  12.752   7.288 -0.5010 -0.0999 -0.1305
  809POPS   C4B11190   7.120  12.626   7.654  0.3751  0.2167  0.1762
  810POPS   CNO11191   3.863   4.244   5.588  0.1500  0.1915 -0.0230
  810POPS   PO411192   4.222   4.254   5.862 -0.1620  0.3780 -0.0156
  810POPS   GL111193   4.218   4.311   6.373 -0.2792 -0.1666  0.0996
  810POPS   GL211194   3.822   4.260   6.504  0.0388  0.1754  0.1621
  810POPS   C1A11195   4.101   4.396   6.865  0.2161  0.3150 -0.1439
  810POPS   D2A11196   4.197   4.713   7.188  0.0922  0.3592 -0.1522
  810POPS   C3A11197   4.027   4.881   7.518  0.1089 -0.0984  0.0329
  810POPS   C4A11198   4.052   5.145   7.883  0.0971 -0.0865  0.0932
  810POPS   C1B11199   3.606   4.388   6.910  0.1921  0.1181 -0.3336
  810POPS   C2B11200   3.739   4.510   7.331  0.1580  0.3737  0.3467
  810POPS   C3B11201   3.675   4.514   7.727  0.0557 -0.1958  0.2560
  810POPS   C4B11202   3.465   4.334   8.063  0.0005  0.3674 -0.2710
  811POPS   CNO11203  15.816  11.345   5.735  0.2245  0.0531  0.3284
  811POPS   PO411204  16.017  11.746   5.613  0.0842  0.0320 -0.0224
  811POPS   GL111205  16.161  11.679   6.084 -0.0135 -0.2852  0.0119
  811POPS   GL211206  16.106  12.017   6.090 -0.0689 -0.1000  0.0722
  811POPS   C1A11207  16.351  11.565   6.491  0.0621  0.1041  0.2332
  811POPS   D2A11208  16.390  11.298   6.905  0.0116 -0.0872  0.0196
  811POPS   C3A11209  16.154  11.047   7.147  0.0967 -0.2387  0.2685
  811POPS   C4A11210  15.837  11.103   7.502  0.2161  0.3396  0.2481
  811POPS   C1B11211  16.274  12.022   6.451  0.2148 -0.0323  0.1560
  811POPS   C2B11212  16.193  11.897   6.829 -0.4690 -0.0871 -0.1387
  811POPS   C3B11213  16.226  12.054   7.295 -0.1937 -0.1649  0.0308
  811POPS   C4B11214  16.451  12.030   7.753 -0.2831  0.1096  0.2123
  812YOPS   CNO11215  10.008   6.164   6.061 -0.0819 -0.4789 -0.0780
  812YOPS   PO411216  10.249   5.851   6.129 -0.2713 -0.0546  0.2468
  812YOPS   GL111217  10.235   5.832   6.542 -0.0269 -0.0098 -0.1693
  812YOPS   GL211218  10.503   5.759   6.674 -0.0382 -0.1311  0.1588
  812YOPS   C1A11219  10.064   5.818   6.960  0.1471  0.1099 -0.0846
  812YOPS   D2A11220  10.119   5.872   7.426 -0.0711 -0.1306 -0.3117
  812YOPS   C3A11221  10.322   6.022   7.786 -0.3734  0.0003 -0.1115
  812YOPS   C4A11222  10.080   5.975   8.121 -0.0403 -0.2063 -0.1129
  812YOPS   C1B11223  10.581   5.952   7.141  0.0414 -0.1254 -0.1039
  812YOPS   C2B11224  10.586   6.212   7.409 -0.3818 -0.0989 -0.0733
  812YOPS   D3B11225  10.725   6.505   7.878 -0.0285 -0.0383  0.2501
  812YOPS   C4B11226  11.060   6.517   7.912 -0.1529 -0.0963 -0.2549
  813YOPS   CNO11227   1.303  13.380   5.489  0.2519  0.1650  0.0434
  813YOPS   PO411228   1.289  13.401   5.894 -0.2177  0.0567 -0.2175
  813YOPS   GL111229   1.255  13.342   6.364 -0.2567 -0.2003  0.0790
  813YOPS   GL211230   0.993  13.410   6.500  0.3454  0.2923 -0.1029
  813YOPS   C1A11231   1.475  13.155   6.710 -0.2240 -0.0307  0.0897
  813YOPS   D2A11232   1.905  12.926   6.747  0.2122  0.0207  0.2820
  813YOPS   C3A11233   1.770  12.550   6.497 -0.0402  0.1536  0.1743
  813YOPS   C4A11234   1.750  12.164   6.521  0.1364 -0.4755  0.2004
  813YOPS   C1B11235   1.210  13.578   6.843  0.1971 -0.0447  0.0163
  813YOPS   C2B11236   1.388  13.871   7.062  0.1986  0.2346 -0.3272
  813YOPS   D3B11237   1.587  13.926   7.423 -0.0558 -0.1107 -0.2017
  813YOPS   C4B11238   1.541  14.207   7.774  0.1625 -0.2972 -0.0533
  814YOPS   CNO11239  13.752  11.199   6.037  0.0874 -0.0112 -0.0250
  814YOPS   PO411240  13.636  11.602   6.287 -0.0910  0.3697 -0.0282
  814YOPS   GL111241  13.756  11.607   6.657  0.0257  0.0952  0.0732
  814YOPS   GL211242  13.529  11.526   6.868  0.2873  0.1447  0.1069
  814YOPS   C1A11243  13.912  11.679   7.140  0.0473  0.0399  0.3846
  814YOPS   D2A11244  14.028  11.669   7.484  0.1015 -0.0899  0.1652
  814YOPS   C3A11245  14.176  11.927   7.770  0.0086  0.0448 -0.2998
  814YOPS   C4A11246  14.414  11.775   8.004  0.2425  0.2800  0.1831
  814YOPS   C1B11247  13.537  11.355   7.208  0.1011 -0.3362  0.0234
  814YOPS   C2B11248  13.582  11.345   7.516  0.1373 -0.1611 -0.1419
  814YOPS   D3B11249  13.372  11.283   7.896 -0.1865  0.0818  0.1732
  814YOPS   C4B11250  13.315  10.922   8.020 -0.2831 -0.0226  0.1094
  815YOPS   CNO11251  12.130  16.669   6.151  0.3454  0.0272 -0.1025
  815YOPS   PO411252  11.710  16.615   6.270  0.2907  0.0266  0.0612
  815YOPS   GL111253  11.924  16.509   6.524  0.2708 -0.2061  0.1450
  815YOPS   GL211254  11.734  16.278   6.722  0.1416 -0.0430  0.0905
  815YOPS   C1A11255  12.017  16.781   6.876  0.1640  0.1247 -0.0138
  815YOPS   D2A11256  12.197  16.889   7.153  0.1770 -0.1044 -0.0315
  815YOPS   C3A11257  12.434  16.882   7.466 -0.1938 -0.0432 -0.0630
  815YOPS   C4A11258  12.391  17.145   7.754  0.2551  0.0731 -0.0663
  815YOPS   C1B11259  11.700  16.445   7.179  0.1225  0.1016  0.3582
  815YOPS   C2B11260  11.871  16.771   7.499 -0.2361 -0.3654 -0.3758
  815YOPS   D3B11261  11.764  16.842   7.979 -0.0174  0.0434 -0.0877
  815YOPS   C4B11262  11.973  17.056   8.029 -0.2344  0.0967  0.0043
  816YOPS   CNO11263   6.802  13.934   5.766 -0.3257 -0.3415 -0.1678
  816YOPS   PO411264   6.581  13.759   6.051  0.0746  0.3768 -0.1244
  816YOPS   GL111265   6.438  13.921   6.437  0.1745  0.0852 -0.1057
  816YOPS   GL211266   6.169  13.821   6.474  0.0369 -0.1880 -0.2110
  816YOPS   C1A11267   6.412  14.089   6.866 -0.2359  0.1816 -0.1094
  816YOPS   D2A11268   6.384  14.106   7.388 -0.2886  0.0398  0.3329
  816YOPS   C3A11269   6.436  14.006   7.864 -0.3370 -0.1432 -0.0129
  816YOPS   C4A11270   6.673  14.307   7.946  0.1330 -0.0389 -0.1297
  816YOPS   C1B11271   6.114  13.702   6.801  0.0700 -0.3132 -0.0537
  816YOPS   C2B11272   5.972  13.813   7.246 -0.1298 -0.0668  0.0681
  816YOPS   D3B11273   5.944  13.706   7.666 -0.2033 -0.1524 -0.0018
  816YOPS   C4B11274   6.312  13.533   7.879 -0.0307 -0.2676 -0.0767
  817YOPS   CNO11275   0.053   4.871   5.699 -0.0071  0.0785  0.5164
  817YOPS   PO411276   0.385   5.062   5.715 -0.1881  0.2760 -0.0382
  817YOPS   GL111277   0.520   4.945   6.075 -0.0379  0.1283  0.0325
  817YOPS   GL211278   0.404   4.660   6.196 -0.0043 -0.1630 -0.1288
  817YOPS   C1A11279   0.768   5.235   6.354  0.1400  0.0082 -0.0459
  817YOPS   D2A11280   0.890   5.520   6.714  0.3724 -0.2694  0.0888
  817YOPS   C3A11281   0.812   5.671   7.217  0.1904  0.2374 -0.1984
  817YOPS   C4A11282   1.008   5.692   7.542 -0.4403 -0.0769 -0.0519
  817YOPS   C1B11283   0.487   4.866   6.591  0.0519  0.1911 -0.0554
  817YOPS   C2B11284   0.349   4.793   7.023 -0.0447 -0.0342  0.1558
  817YOPS   D3B11285   0.075   4.592   7.266 -0.1826  0.0575  0.0284
  817YOPS   C4B11286   0.144   4.195   7.530  0.1067  0.0591  0.2841
  818YOPS   CNO11287   5.213  17.844   5.473  0.1316  0.0382  0.2759
  818YOPS   PO411288   4.753  17.975   5.499 -0.0642  0.2559  0.2211
  818YOPS   GL111289   4.867  17.874   5.900  0.0199  0.1049  0.0676
  818YOPS   GL211290   5.105  18.172   5.976  0.0531  0.1290 -0.1658
  818YOPS   C1A11291   4.865  17.674   6.395  0.0519  0.3530 -0.1930
  818YOPS   D2A11292   4.907  17.714   6.862  0.0396 -0.0694 -0.1047
  818YOPS   C3A11293   5.070  17.588   7.301  0.4461 -0.1896 -0.1838
  818YOPS   C4A11294   5.191  17.231   7.636  0.0655  0.1225  0.1678
  818YOPS   C1B11295   5.376  18.073   6.267 -0.0497 -0.0431 -0.3070
  818YOPS   C2B11296   5.553  18.134   6.712  0.1842  0.0516 -0.1126
  818YOPS   D3B11297   5.822  18.160   6.967  0.0112 -0.0681 -0.0180
  818YOPS   C4B11298   5.640  18.420   7.221  0.1008  0.0628 -0.3016
  819YOPS   CNO11299  13.787   4.388   5.966 -0.0524  0.1963  0.1976
  819YOPS   PO411300  13.851   3.979   6.152 -0.0860  0.3358 -0.0738
  819YOPS   GL111301  13.614   4.128   6.458  0.0539 -0.0114 -0.1108
  819YOPS   GL211302  13.389   4.466   6.458  0.0140 -0.0664 -0.0452
  819YOPS   C1A11303  13.386   4.045   6.807 -0.1059  0.0243  0.1174
  819YOPS   D2A11304  13.382   4.154   7.324  0.0903  0.1356 -0.0577
  819YOPS   C3A11305  13.443   4.440   7.629 -0.0361  0.0525 -0.2067
  819YOPS   C4A11306  13.805   4.290   7.793  0.0802  0.1499  0.1115
  819YOPS   C1B11307  13.800   4.614   6.610 -0.4077 -0.2305  0.1064
  819YOPS   C2B11308  14.016   4.901   6.761  0.0893  0.2250  0.0329
  819YOPS   D3B11309  13.920   5.084   7.151  0.1899  0.0057  0.3820
  819YOPS   C4B11310  13.905   5.277   7.549 -0.2574 -0.2700  0.0954
  820YOPS   CNO11311  11.404   4.870   6.316 -0.3589  0.3988 -0.0704
  820YOPS   PO411312  11.474   5.284   6.139 -0.0636 -0.1177  0.0555
  820YOPS   GL111313  11.403   5.328   6.591  0.2826  0.0498  0.3433
  820YOPS   GL211314  11.796   5.573   6.663  0.1999 -0.1556  0.2088
  820YOPS   C1A11315  11.520   5.350   7.081  0.0247 -0.4780 -0.0131
  820YOPS   D2A11316  11.605   5.399   7.523 -0.0494 -0.1309  0.0673
  820YOPS   C3A11317  11.438   5.688   7.902 -0.1241 -0.0294  0.0758
  820YOPS   C4A11318  11.593   5.661   8.318  0.3633 -0.1506 -0.2408
  820YOPS   C1B11319  11.914   5.718   7.134  0.0599 -0.0821 -0.1293
  820YOPS   C2B11320  12.085   5.657   7.581 -0.1316 -0.1790 -0.1796
  820YOPS   D3B11321  11.917   5.589   7.918  0.1151 -0.3542  0.2426
  820YOPS   C4B11322  11.692   5.211   7.979  0.1677 -0.0296 -0.1939
  821YOPS   CNO11323  10.957   1.906   5.457 -0.0535 -0.1177  0.1963
  821YOPS   PO411324  10.889   1.558   5.764  0.1060 -0.2536 -0.0216
  821YOPS   GL111325  10.888   1.615   6.206 -0.2034  0.0978  0.0937
  821YOPS   GL211326  11.209   1.690   6.416 -0.1512 -0.0041  0.4443
  821YOPS   C1A11327  10.744   1.504   6.547 -0.3312 -0.0930  0.1731
  821YOPS   D2A11328  10.666   1.516   7.018  0.0684  0.0398 -0.1927
  821YOPS   C3A11329  10.699   1.662   7.364  0.2567  0.3734 -0.0551
  821YOPS   C4A11330  10.483   1.380   7.588  0.2530  0.3862  0.0937
  821YOPS   C1B11331  11.572   1.655   6.789 -0.2760  0.0935  0.1642
  821YOPS   C2B11332  11.526   1.777   7.161 -0.1516  0.0024 -0.0471
  821YOPS   D3B11333  11.584   2.008   7.534 -0.2678  0.1780 -0.0169
  821YOPS   C4B11334  11.723   1.865   7.903  0.2513  0.1961 -0.1981
  822YOPS   CNO11335  13.330   8.749   6.198 -0.2262 -0.2849 -0.0324
  822YOPS   PO411336  13.263   8.479   6.377 -0.0839  0.1362 -0.0653
  822YOPS   GL111337  13.045   8.222   6.698  0.0237  0.2149  0.0852
  822YOPS   GL211338  13.176   8.306   6.908 -0.0904 -0.1047 -0.1568
  822YOPS   C1A11339  12.752   8.054   7.092 -0.3276 -0.4193  0.1789
  822YOPS   D2A11340  12.366   8.097   7.208 -0.0798 -0.1069  0.2273
  822YOPS   C3A11341  11.931   8.192   7.298  0.2656 -0.1345 -0.0849
  822YOPS   C4A11342  11.783   8.212   7.645 -0.0012  0.1187  0.0311
  822YOPS   C1B11343  13.137   8.252   7.290 -0.1560 -0.0848 -0.1303
  822YOPS   C2B11344  13.108   8.246   7.728  0.0601  0.0840 -0.1746
  822YOPS   D3B11345  12.917   8.066   8.042 -0.4288  0.2042  0.1453
  822YOPS   C4B11346  12.860   8.175   8.491 -0.0077  0.1792 -0.0691
  823YOPS   CNO11347   6.859   7.428   5.473 -0.1374 -0.1694 -0.0916
  823YOPS   PO411348   7.110   7.765   5.298 -0.4685  0.1432 -0.1516
  823YOPS   GL111349   7.061   7.895   5.686 -0.1921  0.0954  0.1492
  823YOPS   GL211350   7.175   7.631   5.846  0.2385 -0.0181 -0.2161
  823YOPS   C1A11351   7.128   8.036   6.170  0.1947  0.1332 -0.0457
  823YOPS   D2A11352   7.192   7.960   6.622 -0.3302 -0.2712  0.1864
  823YOPS   C3A11353   6.990   7.877   7.067  0.2614  0.0593 -0.0129
  823YOPS   C4A11354   7.071   8.126   7.450 -0.0462 -0.1092  0.1069
  823YOPS   C1B11355   7.213   7.204   5.817  0.2031 -0.1352  0.1234
  823YOPS   C2B11356   7.067   6.781   5.978  0.3024  0.2451 -0.2845
  823YOPS   D3B11357   7.178   6.282   6.035  0.0388 -0.1341  0.1537
  823YOPS   C4B11358   7.258   6.103   6.488  0.0007 -0.2493  0.0529
  824YOPS   CNO11359  16.726  10.582   5.723  0.1409  0.2371  0.0128
  824YOPS   PO411360  16.724  10.974   5.854  0.3115 -0.2173  0.1760
  824YOPS   GL111361  16.759  11.275   6.183  0.2587  0.0143  0.2371
  824YOPS   GL211362  16.644  11.521   6.078 -0.1485  0.1103 -0.0692
  824YOPS   C1A11363  16.804  11.307   6.572 -0.0762 -0.4126  0.1127
  824YOPS   D2A11364  16.886  11.526   6.924 -0.0352 -0.1550 -0.0043
  824YOPS   C3A11365  16.571  11.614   7.318  0.3048  0.3553 -0.0638
  824YOPS   C4A11366  16.440  11.221   7.581 -0.0765 -0.1403  0.1363
  824YOPS   C1B11367  16.679  11.930   6.283 -0.1405 -0.0351 -0.0790
  824YOPS   C2B11368  16.806  11.924   6.666 -0.0941 -0.1067 -0.0076
  824YOPS   D3B11369  16.657  12.125   6.971  0.0666  0.2954  0.1906
  824YOPS   C4B11370  16.264  12.349   6.828  0.1243  0.1636 -0.3474
  825YOPS   CNO11371  12.259   4.386   5.717  0.0716 -0.0132 -0.0164
  825YOPS   PO411372  12.475   4.005   5.926 -0.0092  0.0419  0.0156
  825YOPS   GL111373  12.249   4.007   6.266  0.1799  0.2344 -0.0845
  825YOPS   GL211374  12.578   3.991   6.427  0.0734 -0.2236  0.0459
  825YOPS   C1A11375  12.181   4.099   6.747 -0.0692  0.4028  0.0793
  825YOPS   D2A11376  12.369   4.344   7.094  0.4405  0.0822  0.0289
  825YOPS   C3A11377  12.534   4.643   7.574  0.0316  0.2233 -0.3059
  825YOPS   C4A11378  12.195   4.712   7.944 -0.0158 -0.1151  0.0714
  825YOPS   C1B11379  12.644   3.867   6.824  0.2349 -0.2822  0.0273
  825YOPS   C2B11380  12.738   3.960   7.281 -0.2330 -0.1372  0.2372
  825YOPS   D3B11381  12.857   4.078   7.702  0.4007 -0.0549 -0.0844
  825YOPS   C4B11382  12.937   4.463   7.814  0.2741  0.0227 -0.1124
  826YOPS   CNO11383  14.203  16.683   5.845  0.2408 -0.2956  0.3483
  826YOPS   PO411384  13.959  16.710   6.076  0.4564 -0.0087 -0.0838
  826YOPS   GL111385  13.732  16.602   6.453  0.0457  0.3337  0.0897
  826YOPS   GL211386  13.712  16.777   6.618 -0.0205 -0.1960 -0.0403
  826YOPS   C1A11387  13.536  16.157   6.615 -0.2003 -0.1454 -0.0874
  826YOPS   D2A11388  13.251  15.976   6.886 -0.1172 -0.2450 -0.1024
  826YOPS   C3A11389  13.199  15.803   7.342  0.0520 -0.0941  0.5351
  826YOPS   C4A11390  13.266  15.329   7.280  0.0569 -0.0763  0.0913
  826YOPS   C1B11391  13.680  16.529   6.906 -0.3473 -0.3381 -0.0837
  826YOPS   C2B11392  13.594  16.149   7.193 -0.0477 -0.2732  0.0333
  826YOPS   D3B11393  13.573  15.873   7.617  0.2025  0.2908 -0.3321
  826YOPS   C4B11394  13.307  15.596   7.730  0.1475 -0.0812 -0.0164
  827YOPS   CNO11395   5.627   1.867   5.574 -0.2882  0.0167  0.0108
  827YOPS   PO411396   5.586   2.163   5.910 -0.0247  0.0579 -0.1215
  827YOPS   GL111397   5.759   1.951   6.215 -0.2589 -0.1886 -0.1940
  827YOPS   GL211398   5.733   2.226   6.504  0.2800 -0.0152 -0.0339
  827YOPS   C1A11399   5.832   1.751   6.576 -0.2172  0.0916  0.0542
  827YOPS   D2A11400   5.853   1.837   7.089 -0.0927  0.0499 -0.0264
  827YOPS   C3A11401   5.869   2.030   7.423  0.1220  0.3433 -0.0296
  827YOPS   C4A11402   6.189   2.072   7.598  0.2864 -0.1310  0.0401
  827YOPS   C1B11403   5.627   2.246   6.912  0.0817 -0.1346 -0.1528
  827YOPS   C2B11404   5.499   2.339   7.327  0.2376 -0.1961 -0.1552
  827YOPS   D3B11405   5.601   2.287   7.743  0.0322  0.1003 -0.2186
  827YOPS   C4B11406   5.555   2.686   7.839 -0.1512 -0.1040  0.3165
  828YOPS   CNO11407  15.426   4.227   5.931  0.4311  0.0899 -0.1509
  828YOPS   PO411408  15.186   3.808   6.048  0.2754 -0.3678  0.0621
  828YOPS   GL111409  15.226   4.062   6.469  0.1339  0.0416  0.4482
  828YOPS   GL211410  15.267   4.393   6.435 -0.2319  0.1555 -0.2185
  828YOPS   C1A11411  15.475   4.090   6.806  0.0289 -0.1174 -0.1173
  828YOPS   D2A11412  15.720   4.068   7.181  0.0160 -0.0399  0.0636
  828YOPS   C3A11413  15.759   4.110   7.589 -0.2184 -0.0362  0.3087
  828YOPS   C4A11414  15.370   4.219   7.845  0.1874  0.0175 -0.0991
  828YOPS   C1B11415  15.201   4.590   6.796  0.1485 -0.3228 -0.0797
  828YOPS   C2B11416  14.829   4.586   7.151 -0.0643 -0.0275  0.2933
  828YOPS   D3B11417  14.517   4.505   7.478 -0.1193  0.0068  0.0458
  828YOPS   C4B11418  14.291   4.233   7.557  0.0449  0.0779  0.1995
  829YOPS   CNO11419  14.431   2.890   5.766  0.0299  0.1997  0.1606
  829YOPS   PO411420  14.001   3.039   5.961  0.1944  0.3828  0.1024
  829YOPS   GL111421  13.806   3.066   6.265  0.1366 -0.3234  0.0622
  829YOPS   GL211422  13.576   3.168   6.216 -0.1083 -0.3194 -0.0390
  829YOPS   C1A11423  13.949   3.235   6.707 -0.0410  0.3097  0.1155
  829YOPS   D2A11424  13.857   3.148   7.043  0.0394  0.0268 -0.1991
  829YOPS   C3A11425  13.963   3.028   7.386 -0.2888 -0.1526  0.1118
  829YOPS   C4A11426  14.143   2.976   7.865  0.1337 -0.0431 -0.0092
  829YOPS   C1B11427  13.559   3.538   6.537  0.0707 -0.3394 -0.1314
  829YOPS   C2B11428  13.587   3.582   7.007 -0.0632  0.0663  0.0828
  829YOPS   D3B11429  13.655   3.615   7.384 -0.0882  0.1865  0.3554
  829YOPS   C4B11430  13.896   3.929   7.456  0.1204 -0.0427  0.0143
  830YOPS   CNO11431  12.894  17.887   5.906 -0.0283  0.0884 -0.0736
  830YOPS   PO411432  13.182  17.474   6.058 -0.0684  0.1214  0.0384
  830YOPS   GL111433  13.393  17.448   6.560  0.1120 -0.0437  0.3498
  830YOPS   GL211434  13.567  17.753   6.723 -0.3188  0.1548 -0.3193
  830YOPS   C1A11435  13.679  17.251   6.896  0.1859 -0.1220  0.5989
  830YOPS   D2A11436  14.042  17.449   7.082  0.3033  0.1529 -0.2745
  830YOPS   C3A11437  14.293  17.686   7.403  0.1409  0.2527 -0.3626
  830YOPS   C4A11438  14.351  17.583   7.768  0.0355  0.3697  0.1366
  830YOPS   C1B11439  13.476  17.880   7.123 -0.0343  0.3833 -0.1772
  830YOPS   C2B11440  13.626  17.870   7.495  0.0026  0.0802 -0.2161
  830YOPS   D3B11441  13.863  17.658   7.757  0.2582 -0.1367 -0.1240
  830YOPS   C4B11442  14.065  17.769   8.101  0.3335 -0.0462  0.1360
  831YOPS   CNO11443   4.983  10.869   5.507  0.0019  0.4062 -0.0833
  831YOPS   PO411444   5.406  10.860   5.679  0.1089  0.3738  0.0286
  831YOPS   GL111445   5.317  10.831   6.094  0.0136  0.0445 -0.2712
  831YOPS   GL211446   5.424  11.144   6.125 -0.3299 -0.0251 -0.1105
  831YOPS   C1A11447   5.343  10.530   6.350 -0.0421  0.2471 -0.1765
  831YOPS   D2A11448   5.409  10.461   6.777  0.1414 -0.1316  0.3001
  831YOPS   C3A11449   5.629  10.347   7.212 -0.1137  0.1384 -0.0847
  831YOPS   C4A11450   5.436  10.448   7.491 -0.1865  0.1275 -0.3688
  831YOPS   C1B11451   5.346  11.404   6.451 -0.0595  0.0043 -0.0178
  831YOPS   C2B11452   5.349  11.326   6.851  0.1657  0.3486 -0.0160
  831YOPS   D3B11453   5.326  11.287   7.294 -0.4325  0.1084 -0.2150
  831YOPS   C4B11454   5.053  11.363   7.610 -0.2502  0.1944 -0.0163
  832YOPS   CNO11455   7.100  13.529   5.544 -0.1117 -0.1973 -0.1369
  832YOPS   PO411456   7.214  13.187   5.843  0.0576  0.0676 -0.2363
  832YOPS   GL111457   7.213  13.245   6.276  0.1104  0.2039 -0.0487
  832YOPS   GL211458   7.050  13.032   6.451  0.0011 -0.4492  0.0549
  832YOPS   C1A11459   7.342  13.429   6.684  0.1275 -0.0924 -0.0777
  832YOPS   D2A11460   7.189  13.328   7.038 -0.2035  0.3358  0.1198
  832YOPS   C3A11461   6.945  13.276   7.397 -0.4485  0.0314  0.5231
  832YOPS   C4A11462   7.109  13.152   7.835 -0.0510 -0.2535  0.0800
  832YOPS   C1B11463   6.743  13.132   6.679  0.4278 -0.0628 -0.1353
  832YOPS   C2B11464   6.610  13.063   7.013 -0.0736  0.1570 -0.2335
  832YOPS   D3B11465   6.389  12.808   7.136  0.1545 -0.0405 -0.0129
  832YOPS   C4B11466   6.144  12.453   6.929  0.0902  0.0174 -0.0871
  833YOPS   CNO11467   8.530  13.870   6.185 -0.0846  0.1148  0.0211
  833YOPS   PO411468   8.301  14.122   5.869 -0.0404  0.0305  0.1585
  833YOPS   GL111469   8.051  14.059   6.194  0.2258 -0.3892  0.1005
  833YOPS   GL211470   8.148  14.255   6.377  0.0385 -0.5440  0.4886
  833YOPS   C1A11471   7.965  13.751   6.462 -0.1760 -0.3645  0.1522
  833YOPS   D2A11472   7.808  13.594   6.870 -0.0633 -0.3099  0.0039
  833YOPS   C3A11473   7.673  13.465   7.112 -0.0002 -0.1963  0.1324
  833YOPS   C4A11474   7.712  13.614   7.496 -0.0014 -0.1010 -0.0220
  833YOPS   C1B11475   7.907  14.090   6.775  0.2024  0.0099  0.4164
  833YOPS   C2B11476   7.961  14.045   7.207  0.0997  0.0861  0.3346
  833YOPS   D3B11477   7.965  14.077   7.689  0.1941  0.2190 -0.0527
  833YOPS   C4B11478   7.895  13.685   7.976 -0.0269  0.0379  0.2499
  834YOPS   CNO11479   2.250   3.086   6.074 -0.1727  0.0971  0.1694
  834YOPS   PO411480   1.963   3.328   5.899  0.0073  0.2332  0.2240
  834YOPS   GL111481   1.733   3.270   6.316 -0.0871  0.0695  0.2767
  834YOPS   GL211482   1.923   3.236   6.539 -0.3075 -0.0115 -0.1115
  834YOPS   C1A11483   1.353   3.286   6.640 -0.1085 -0.2206  0.0256
  834YOPS   D2A11484   1.172   3.203   6.986 -0.2681 -0.1252  0.1118
  834YOPS   C3A11485   1.145   3.200   7.421  0.3380 -0.0210 -0.1397
  834YOPS   C4A11486   0.953   2.839   7.560  0.1160 -0.1068 -0.1677
  834YOPS   C1B11487   1.766   3.028   6.866  0.0722 -0.1213 -0.1670
  834YOPS   C2B11488   1.596   3.052   7.240  0.1305  0.2256 -0.3551
  834YOPS   D3B11489   1.560   3.006   7.626 -0.2417  0.2869 -0.1789
  834YOPS   C4B11490   1.685   3.157   8.055 -0.0209 -0.1211  0.1388
  835YOPS   CNO11491   0.645  16.888   6.210  0.1096  0.0722  0.0079
  835YOPS   PO411492   0.830  17.204   6.333  0.4006 -0.1990 -0.0636
  835YOPS   GL111493   0.527  17.385   6.716  0.2956 -0.0335  0.3836
  835YOPS   GL211494   0.334  17.131   6.696 -0.0665 -0.2990 -0.1231
  835YOPS   C1A11495   0.716  17.275   7.176 -0.1077  0.0315  0.2540
  835YOPS   D2A11496   0.657  17.205   7.631 -0.0298 -0.2372  0.3091
  835YOPS   C3A11497   0.374  17.145   7.947  0.0053 -0.1042  0.0676
  835YOPS   C4A11498   0.295  16.878   8.324 -0.0822  0.2890 -0.1829
  835YOPS   C1B11499  -0.089  17.078   6.861 -0.0537  0.0127 -0.0481
  835YOPS   C2B11500  -0.296  17.271   7.172 -0.1797 -0.1853 -0.2455
  835YOPS   D3B11501  -0.587  17.391   7.401 -0.0188 -0.0261 -0.0116
  835YOPS   C4B11502  -0.627  17.477   7.805  0.1731  0.2505 -0.1776
  836YOPS   CNO11503   6.242  10.954   6.006 -0.4012 -0.1296  0.0620
  836YOPS   PO411504   5.895  10.863   5.727  0.1325 -0.2775 -0.0691
  836YOPS   GL111505   5.799  10.788   6.150  0.0788  0.2505  0.1047
  836YOPS   GL211506   6.028  10.936   6.423 -0.1208 -0.2746  0.0389
  836YOPS   C1A11507   5.575  10.970   6.578 -0.0744 -0.0638 -0.1049
  836YOPS   D2A11508   5.551  10.913   7.056  0.0330 -0.2500  0.0687
  836YOPS   C3A11509   5.732  10.835   7.561  0.1206 -0.2809  0.0501
  836YOPS   C4A11510   5.913  11.078   7.896  0.0867  0.1381 -0.1062
  836YOPS   C1B11511   5.929  10.554   6.657  0.2644 -0.1658 -0.0081
  836YOPS   C2B11512   6.115  10.427   7.070  0.1245 -0.1040 -0.0430
  836YOPS   D3B11513   6.067  10.399   7.553 -0.0763 -0.1005  0.1475
  836YOPS   C4B11514   6.255  10.840   7.587 -0.2986 -0.2976  0.0439
  837YOPS   CNO11515   9.399  16.055   6.255  0.1549 -0.0811 -0.0424
  837YOPS   PO411516   9.686  16.313   5.936  0.1544  0.0328  0.1548
  837YOPS   GL111517   9.786  16.292   6.493  0.0715 -0.1471  0.3076
  837YOPS   GL211518   9.796  15.967   6.565 -0.0182  0.2091 -0.3588
  837YOPS   C1A11519   9.960  16.532   6.793 -0.1581 -0.3346 -0.0691
  837YOPS   D2A11520   9.834  16.452   7.371 -0.2902  0.2881 -0.0435
  837YOPS   C3A11521   9.875  16.291   7.753 -0.0068 -0.2092 -0.0248
  837YOPS   C4A11522  10.172  16.346   8.115  0.2663 -0.1324 -0.3167
  837YOPS   C1B11523   9.956  16.048   6.961 -0.1416  0.1997  0.0987
  837YOPS   C2B11524   9.847  15.958   7.331  0.1517 -0.3914 -0.2002
  837YOPS   D3B11525   9.648  15.855   7.735  0.1571  0.3591  0.4212
  837YOPS   C4B11526   9.747  15.860   8.072 -0.0106  0.1621 -0.3622
  838YOPS   CNO11527  13.941  12.032   6.466 -0.0784 -0.1775 -0.1916
  838YOPS   PO411528  13.820  12.191   6.041  0.0796 -0.3551 -0.0528
  838YOPS   GL111529  13.664  12.462   6.256 -0.1566  0.0667 -0.2951
  838YOPS   GL211530  13.987  12.547   6.359 -0.1509  0.0907 -0.2493
  838YOPS   C1A11531  13.490  12.591   6.586  0.0653 -0.1212  0.0099
  838YOPS   D2A11532  13.549  12.657   6.925  0.0850 -0.0569 -0.2893
  838YOPS   C3A11533  13.566  12.649   7.359  0.3460  0.2486 -0.2347
  838YOPS   C4A11534  13.816  12.804   7.646  0.4515 -0.1029  0.0303
  838YOPS   C1B11535  13.999  12.510   6.707  0.0064 -0.1423  0.0472
  838YOPS   C2B11536  14.028  12.627   7.106 -0.2386 -0.1477 -0.0148
  838YOPS   D3B11537  14.250  12.461   7.600  0.1175  0.2661 -0.2306
  838YOPS   C4B11538  14.165  12.684   8.028 -0.1076 -0.1032 -0.2547
  839YOPS   CNO11539   6.705   5.607   5.170  0.0039 -0.0117  0.2178
  839YOPS   PO411540   6.386   5.536   5.343  0.1142  0.0278  0.0863
  839YOPS   GL111541   6.435   5.499   5.737  0.3075 -0.0011 -0.0589
  839YOPS   GL211542   6.187   5.342   5.935 -0.0490  0.1158  0.0839
  839YOPS   C1A11543   6.707   5.458   6.025 -0.0240  0.0331 -0.1070
  839YOPS   D2A11544   6.807   5.307   6.502  0.1581 -0.0556 -0.1082
  839YOPS   C3A11545   6.608   5.311   6.878 -0.1113  0.1891 -0.2194
  839YOPS   C4A11546   6.140   5.043   6.814  0.1502 -0.1370  0.0799
  839YOPS   C1B11547   6.329   5.260   6.312 -0.0937  0.1742 -0.0303
  839YOPS   C2B11548   6.466   4.864   6.552  0.0356  0.1271  0.1597
  839YOPS   D3B11549   6.598   4.572   6.798  0.2800 -0.0833  0.3135
  839YOPS   C4B11550   6.332   4.652   7.261 -0.5203  0.2439 -0.0607
  840YOPS   CNO11551   6.894   8.776   5.478  0.0279  0.1407  0.4492
  840YOPS   PO411552   6.558   8.446   5.508  0.4065  0.1206  0.2291
  840YOPS   GL111553   6.719   8.522   5.917  0.2900  0.1521  0.3010
  840YOPS   GL211554   6.716   8.830   5.992  0.0390 -0.2278  0.1525
  840YOPS   C1A11555   6.796   8.315   6.320 -0.0657 -0.1474 -0.0899
  840YOPS   D2A11556   6.879   8.311   6.756  0.0445  0.0732  0.1854
  840YOPS   C3A11557   6.576   8.285   7.144  0.0078 -0.2326  0.1995
  840YOPS   C4A11558   6.557   7.937   7.289 -0.0070 -0.0161  0.2597
  840YOPS   C1B11559   6.696   8.808   6.444 -0.1485 -0.0992  0.0164
  840YOPS   C2B11560   6.670   8.793   6.910  0.0087  0.0397  0.0121
  840YOPS   D3B11561   6.639   8.707   7.365  0.0318  0.1945 -0.3192
  840YOPS   C4B11562   6.728   9.096   7.642  0.1453  0.2648  0.1140
  841YOPS   CNO11563   3.811  15.663   5.847 -0.1610  0.0656  0.0960
  841YOPS   PO411564   3.615  15.312   6.056 -0.2841 -0.0405  0.1508
  841YOPS   GL111565   3.400  15.302   6.418 -0.1232 -0.1771 -0.4905
  841YOPS   GL211566   3.163  15.053   6.311  0.1563 -0.0321 -0.0845
  841YOPS   C1A11567   3.428  15.006   6.756  0.0618 -0.2949 -0.1597
  841YOPS   D2A11568   3.390  14.954   7.159  0.3155  0.1926 -0.2458
  841YOPS   C3A11569   3.411  15.010   7.518  0.1879  0.2081  0.2446
  841YOPS   C4A11570   3.729  14.862   7.798  0.0776 -0.0471  0.0998
  841YOPS   C1B11571   2.998  15.270   6.709 -0.0560 -0.1209 -0.3904
  841YOPS   C2B11572   2.979  15.331   7.142  0.3134 -0.3609  0.0581
  841YOPS   D3B11573   3.051  15.428   7.568  0.0807 -0.1412 -0.2036
  841YOPS   C4B11574   3.386  15.318   7.854  0.0365  0.3646  0.1254
  842POPE   NH311575   8.554   8.896   5.608 -0.0458 -0.0604 -0.4151
  842POPE   PO411576   8.838   8.457   5.533  0.2267  0.2434 -0.0237
  842POPE   GL111577   8.898   8.435   5.898  0.1848  0.0592 -0.0423
  842POPE   GL211578   8.858   8.740   6.035 -0.0613  0.1019 -0.2960
  842POPE   C1A11579   9.080   8.385   6.289 -0.2441  0.2873  0.0323
  842POPE   D2A11580   9.074   8.343   6.607 -0.1008  0.1407  0.0696
  842POPE   C3A11581   8.714   8.103   6.762  0.2726 -0.0651  0.0712
  842POPE   C4A11582   8.434   8.059   7.079  0.2046  0.2013 -0.1348
  842POPE   C1B11583   8.804   8.951   6.434  0.1841 -0.1563  0.0950
  842POPE   C2B11584   8.700   9.131   6.803  0.0141  0.2031  0.1022
  842POPE   C3B11585   8.575   9.296   7.189 -0.1433  0.0317  0.0267
  842POPE   C4B11586   8.878   9.306   7.528 -0.0551 -0.1488 -0.0053
  843POPE   NH311587  15.022   7.334   6.378  0.0370 -0.3913  0.1449
  843POPE   PO411588  14.990   7.783   6.268 -0.0592  0.0292 -0.0164
  843POPE   GL111589  14.890   7.991   6.603 -0.0579 -0.1395 -0.2827
  843POPE   GL211590  14.568   8.026   6.687  0.1180  0.0138 -0.0833
  843POPE   C1A11591  14.752   8.189   7.117 -0.0599 -0.0563 -0.4645
  843POPE   D2A11592  14.569   8.440   7.514  0.2455 -0.2380  0.0253
  843POPE   C3A11593  14.435   8.308   7.881 -0.1701 -0.0183 -0.2264
  843POPE   C4A11594  14.305   8.250   8.285  0.0467 -0.1929  0.1999
  843POPE   C1B11595  14.255   8.054   7.041 -0.0588 -0.3486  0.2703
  843POPE   C2B11596  14.162   8.156   7.470 -0.1755  0.1910  0.0974
  843POPE   C3B11597  13.962   8.157   7.846 -0.1185  0.0815  0.0986
  843POPE   C4B11598  13.892   8.017   8.314  0.3430 -0.0896 -0.1227
  844POPE   NH311599  10.262  13.568   5.758 -0.0500  0.0784 -0.2564
  844POPE   PO411600  10.633  13.821   5.804 -0.0944 -0.1310  0.0855
  844POPE   GL111601  10.683  13.483   6.046 -0.0271  0.0417 -0.2478
  844POPE   GL211602  10.798  13.184   6.129 -0.2261  0.1507 -0.0586
  844POPE   C1A11603  10.279  13.272   6.352 -0.2280 -0.1657  0.0964
  844POPE   D2A11604  10.225  13.263   6.802 -0.1635 -0.3229  0.1082
  844POPE   C3A11605  10.066  13.126   7.152  0.0365 -0.2146  0.0289
  844POPE   C4A11606   9.697  13.014   7.356  0.0195  0.0514  0.0579
  844POPE   C1B11607  10.724  13.355   6.612  0.0207 -0.0682 -0.1173
  844POPE   C2B11608  10.682  13.540   7.011  0.0400 -0.0838 -0.1561
  844POPE   C3B11609  10.898  13.574   7.256 -0.1663 -0.0154  0.0290
  844POPE   C4B11610  10.975  13.596   7.717  0.0745  0.0315 -0.0511
  845POPE   NH311611  16.869  17.133   6.343  0.1272 -0.1556 -0.0175
  845POPE   PO411612  17.147  17.434   6.436 -0.0524 -0.0942 -0.1959
  845POPE   GL111613  16.907  17.473   6.864 -0.5137 -0.1568  0.0809
  845POPE   GL211614  16.736  17.168   6.840  0.1216  0.0419  0.1580
  845POPE   C1A11615  16.700  17.614   7.212 -0.3737 -0.1861  0.2120
  845POPE   D2A11616  16.561  17.816   7.637  0.1400 -0.1396  0.1975
  845POPE   C3A11617  16.680  17.714   8.054  0.0010  0.1284 -0.2150
  845POPE   C4A11618  16.792  17.679   8.507  0.0405 -0.1238 -0.2299
  845POPE   C1B11619  16.617  16.969   7.212 -0.0662  0.0529  0.2672
  845POPE   C2B11620  16.438  16.788   7.495  0.1287 -0.0979  0.0726
  845POPE   C3B11621  16.652  16.517   7.855  0.0821 -0.0046  0.1417
  845POPE   C4B11622  16.727  16.203   7.713 -0.0545 -0.0256 -0.1638
  846POPE   NH311623   4.257   8.163   5.512 -0.0638  0.1096  0.0877
  846POPE   PO411624   4.672   8.290   5.506 -0.0329 -0.3021 -0.1006
  846POPE   GL111625   4.895   8.432   5.853 -0.1972 -0.2166 -0.1679
  846POPE   GL211626   5.005   8.314   6.274 -0.1732 -0.1608 -0.3820
  846POPE   C1A11627   5.341   8.469   5.918 -0.2558  0.1418 -0.1799
  846POPE   D2A11628   5.691   8.282   6.116 -0.0672 -0.2298 -0.1326
  846POPE   C3A11629   5.872   8.446   6.511  0.0701  0.1201  0.1510
  846POPE   C4A11630   5.761   8.586   6.833  0.0329 -0.4773 -0.0955
  846POPE   C1B11631   5.367   8.213   6.624 -0.1924  0.1650  0.0199
  846POPE   C2B11632   5.477   8.259   7.060 -0.0885  0.1642  0.0884
  846POPE   C3B11633   5.538   8.151   7.440  0.1481  0.0516  0.2784
  846POPE   C4B11634   5.733   7.741   7.514 -0.0306 -0.0300 -0.0559
  847POPE   NH311635   6.294   4.594   5.328 -0.1244  0.0291  0.1170
  847POPE   PO411636   6.006   4.576   5.576 -0.0490  0.1412  0.3458
  847POPE   GL111637   5.954   4.475   5.989  0.2986  0.0886  0.0541
  847POPE   GL211638   5.855   4.179   6.052  0.1655  0.1184 -0.0599
  847POPE   C1A11639   6.056   4.711   6.308 -0.2543  0.1282 -0.0802
  847POPE   D2A11640   6.120   4.571   6.802  0.0117  0.0509 -0.2297
  847POPE   C3A11641   5.991   4.183   7.064 -0.3174 -0.0750  0.1671
  847POPE   C4A11642   5.780   4.089   7.499  0.0562 -0.1207  0.0227
  847POPE   C1B11643   6.080   4.197   6.481  0.1931 -0.0009  0.2614
  847POPE   C2B11644   6.377   4.158   6.724  0.2804 -0.2490 -0.0422
  847POPE   C3B11645   6.483   4.101   7.152 -0.0282 -0.1195 -0.3042
  847POPE   C4B11646   6.870   4.299   7.394  0.0574 -0.3036 -0.1388
  848POPE   NH311647   4.584   3.010   5.600 -0.0406 -0.0061 -0.0293
  848POPE   PO411648   5.032   2.999   5.734  0.2059 -0.0470 -0.0420
  848POPE   GL111649   5.107   3.312   5.992  0.0228 -0.1756  0.1277
  848POPE   GL211650   4.812   3.371   5.972 -0.2193 -0.1889  0.0193
  848POPE   C1A11651   5.145   3.383   6.421 -0.0023  0.1411  0.0535
  848POPE   D2A11652   5.250   3.552   6.852  0.1099 -0.0199  0.1515
  848POPE   C3A11653   5.480   3.351   7.189 -0.2502 -0.0578 -0.0934
  848POPE   C4A11654   5.453   3.249   7.705  0.0152  0.0425 -0.2414
  848POPE   C1B11655   4.659   3.424   6.385  0.0267 -0.0749 -0.3449
  848POPE   C2B11656   4.737   3.395   6.686 -0.0715 -0.1526 -0.0095
  848POPE   C3B11657   4.832   3.438   7.028 -0.2875  0.3651 -0.2952
  848POPE   C4B11658   4.968   3.606   7.403  0.0454  0.1302  0.1593
  849POPE   NH311659  12.582  17.405   6.046 -0.1273 -0.0269  0.3925
  849POPE   PO411660  12.507  17.061   6.278  0.4603 -0.0484 -0.1378
  849POPE   GL111661  12.504  16.982   6.652 -0.0436 -0.0430 -0.0658
  849POPE   GL211662  12.749  16.832   6.713 -0.1393  0.1159  0.4826
  849POPE   C1A11663  12.542  17.201   7.073 -0.1266  0.0508  0.5497
  849POPE   D2A11664  12.750  17.359   7.497  0.1276 -0.2283  0.0943
  849POPE   C3A11665  13.041  17.123   7.734  0.1911  0.0499  0.2054
  849POPE   C4A11666  13.566  17.059   7.766 -0.0148  0.2009 -0.1331
  849POPE   C1B11667  12.799  16.781   7.118 -0.2681 -0.1251 -0.1409
  849POPE   C2B11668  12.932  16.695   7.521 -0.3374  0.2983 -0.3071
  849POPE   C3B11669  12.642  16.668   7.870  0.0035 -0.0392 -0.0114
  849POPE   C4B11670  12.184  16.619   7.872 -0.2078 -0.0319 -0.2874
  850POPE   NH311671   5.989  10.020   5.476  0.1217  0.1287  0.0499
  850POPE   PO411672   5.919   9.582   5.496 -0.0839 -0.0344 -0.1889
  850POPE   GL111673   6.128   9.420   5.800 -0.0050  0.2270 -0.1198
  850POPE   GL211674   6.482   9.334   5.924  0.0578 -0.1726  0.0496
  850POPE   C1A11675   5.951   9.068   6.094 -0.0098 -0.2778  0.0363
  850POPE   D2A11676   5.728   8.776   6.098 -0.2440  0.1890 -0.0396
  850POPE   C3A11677   5.403   8.663   6.416 -0.0324  0.0596 -0.1397
  850POPE   C4A11678   5.072   8.557   6.811 -0.2070  0.1449  0.2093
  850POPE   C1B11679   6.405   9.128   6.237 -0.0918 -0.1860 -0.0679
  850POPE   C2B11680   6.098   8.899   6.604 -0.0926 -0.1012  0.0133
  850POPE   C3B11681   5.993   9.043   7.018  0.1406 -0.0465 -0.4100
  850POPE   C4B11682   5.733   9.029   7.427 -0.0546  0.1722 -0.1664
  851POPE   NH311683   1.020  17.927   5.551  0.3017  0.0103 -0.3924
  851POPE   PO411684   0.849  18.097   5.926  0.0835  0.0094  0.3324
  851POPE   GL111685   1.047  18.154   6.419  0.0725 -0.3305  0.3815
  851POPE   GL211686   0.922  18.440   6.654  0.1313  0.0571 -0.0097
  851POPE   C1A11687   1.342  18.169   6.724  0.1394 -0.0092  0.0148
  851POPE   D2A11688   1.416  18.208   7.145 -0.1243 -0.2203  0.1522
  851POPE   C3A11689   1.721  18.551   7.198 -0.2796 -0.0160  0.0517
  851POPE   C4A11690   1.943  18.751   7.569 -0.0125  0.0411  0.0029
  851POPE   C1B11691   0.961  18.160   6.983  0.3539  0.2818 -0.2632
  851POPE   C2B11692   0.984  18.127   7.375 -0.0278  0.1558 -0.0869
  851POPE   C3B11693   1.335  18.334   7.596 -0.0893 -0.0231 -0.0429
  851POPE   C4B11694   1.155  18.425   7.954 -0.1017 -0.1495 -0.1643
  852POPE   NH311695   1.115   1.232   6.223  0.0321 -0.0308  0.1643
  852POPE   PO411696   0.774   1.446   6.277 -0.2262  0.2977 -0.2838
  852POPE   GL111697   0.684   1.155   6.539  0.1985  0.2741  0.3214
  852POPE   GL211698   0.411   1.168   6.636  0.0709  0.0056 -0.0729
  852POPE   C1A11699   0.895   1.135   6.851 -0.0852  0.1423  0.0139
  852POPE   D2A11700   1.061   1.033   7.159 -0.0512  0.0857 -0.0331
  852POPE   C3A11701   0.899   1.098   7.533  0.2520  0.1493  0.0131
  852POPE   C4A11702   0.844   1.103   7.928 -0.1296  0.2932 -0.0137
  852POPE   C1B11703   0.511   1.038   7.149  0.5055 -0.2719 -0.0794
  852POPE   C2B11704   0.442   0.888   7.576 -0.1424 -0.0252  0.0481
  852POPE   C3B11705   0.210   0.851   7.963 -0.0823 -0.2046  0.0788
  852POPE   C4B11706   0.099   0.554   8.247 -0.0110  0.2214 -0.1497
  853POPE   NH311707   0.159   2.318   5.849  0.0053 -0.0088  0.2293
  853POPE   PO411708  -0.113   2.027   5.800 -0.1400  0.2054  0.2867
  853POPE   GL111709  -0.101   2.062   6.205 -0.1382 -0.0326 -0.2640
  853POPE   GL211710   0.048   2.165   6.364  0.1910 -0.0567 -0.0320
  853POPE   C1A11711  -0.397   2.060   6.586  0.0889  0.4117 -0.0912
  853POPE   D2A11712  -0.845   1.898   6.546  0.0637  0.1019  0.1899
  853POPE   C3A11713  -1.171   2.156   6.530 -0.0004 -0.0036  0.0928
  853POPE   C4A11714  -1.394   2.531   6.378  0.1786 -0.2045 -0.0831
  853POPE   C1B11715   0.019   2.008   6.825 -0.0776 -0.1652 -0.2501
  853POPE   C2B11716  -0.133   1.804   7.205  0.3701  0.0635 -0.1709
  853POPE   C3B11717  -0.465   1.662   7.529  0.0996  0.0198 -0.3378
  853POPE   C4B11718  -0.900   1.490   7.593 -0.0323 -0.2407  0.0360
  854POPE   NH311719   0.207   8.096   5.648  0.0723 -0.0543 -0.0365
  854POPE   PO411720   0.310   7.694   5.806 -0.3266  0.1482 -0.2548
  854POPE   GL111721   0.120   7.784   6.079 -0.3119 -0.1710  0.0181
  854POPE   GL211722  -0.181   7.666   6.083 -0.0315 -0.2258 -0.0110
  854POPE   C1A11723   0.284   7.883   6.514 -0.1779 -0.2295  0.1636
  854POPE   D2A11724   0.402   8.038   6.860  0.3249 -0.2702 -0.0497
  854POPE   C3A11725   0.385   7.919   7.287  0.2587 -0.0446  0.1971
  854POPE   C4A11726   0.110   7.965   7.702  0.0618 -0.0427  0.1553
  854POPE   C1B11727  -0.159   7.595   6.529  0.0330  0.0058  0.1619
  854POPE   C2B11728  -0.066   7.901   6.922  0.0626  0.1299 -0.2765
  854POPE   C3B11729  -0.247   7.907   7.388  0.0991  0.2949 -0.1109
  854POPE   C4B11730  -0.442   7.959   7.811  0.0722  0.0210 -0.0780
  855POPE   NH311731   8.882  11.788   5.555 -0.1151 -0.2167 -0.1490
  855POPE   PO411732   8.636  12.124   5.786 -0.0140  0.1933  0.2462
  855POPE   GL111733   8.571  11.995   6.242 -0.0614  0.1653 -0.3060
  855POPE   GL211734   8.717  11.693   6.076  0.1634  0.0863  0.1246
  855POPE   C1A11735   8.622  11.842   6.689  0.0550 -0.1032  0.0628
  855POPE   D2A11736   8.484  11.456   6.942 -0.1400  0.1573 -0.0754
  855POPE   C3A11737   8.745  11.439   7.393  0.2890 -0.0975 -0.1342
  855POPE   C4A11738   8.766  11.614   7.769  0.0574  0.1822 -0.0313
  855POPE   C1B11739   8.869  11.485   6.385  0.0560  0.0104  0.0654
  855POPE   C2B11740   8.967  11.467   6.844 -0.0719 -0.1327  0.1857
  855POPE   C3B11741   9.239  11.602   7.070  0.0969 -0.0098 -0.1108
  855POPE   C4B11742   9.633  11.576   7.237  0.0790  0.0450 -0.1371
  856POPE   NH311743   9.159   6.409   5.783  0.1588  0.3136  0.1603
  856POPE   PO411744   8.629   6.139   5.699  0.1504 -0.2252  0.0220
  856POPE   GL111745   8.712   6.246   6.109 -0.0612  0.0222 -0.2364
  856POPE   GL211746   9.055   6.129   6.216 -0.0258  0.1642 -0.2600
  856POPE   C1A11747   8.658   6.142   6.549  0.2211 -0.0996 -0.0433
  856POPE   D2A11748   8.499   6.088   6.949  0.1998 -0.2043  0.2422
  856POPE   C3A11749   8.531   6.037   7.445 -0.1893 -0.0080  0.1891
  856POPE   C4A11750   8.366   5.885   7.873 -0.0980 -0.2482  0.1631
  856POPE   C1B11751   9.221   6.034   6.623  0.0085 -0.1625  0.2889
  856POPE   C2B11752   9.165   6.014   7.125  0.0187 -0.0559 -0.0877
  856POPE   C3B11753   9.068   5.724   7.474 -0.1831  0.0119  0.2725
  856POPE   C4B11754   9.306   5.472   7.744  0.2171  0.0380 -0.0804
  857POPE   NH311755   3.501   1.500   5.198  0.0128  0.3157  0.1151
  857POPE   PO411756   3.521   1.421   5.544  0.1631 -0.2327  0.0936
  857POPE   GL111757   3.614   1.072   5.902  0.0119 -0.1055 -0.2774
  857POPE   GL211758   3.453   0.935   6.073  0.1112 -0.0766  0.1115
  857POPE   C1A11759   3.886   1.185   6.195  0.0513 -0.2359  0.0329
  857POPE   D2A11760   4.021   1.605   6.401 -0.3359 -0.1242 -0.0844
  857POPE   C3A11761   3.774   1.825   6.582  0.4035  0.0819  0.0714
  857POPE   C4A11762   3.528   2.196   6.543  0.2137 -0.2655  0.2782
  857POPE   C1B11763   3.483   0.855   6.405  0.0504 -0.0174 -0.1239
  857POPE   C2B11764   3.397   0.856   6.806 -0.3406 -0.2645 -0.1381
  857POPE   C3B11765   3.423   1.194   7.114 -0.2402  0.0216 -0.1493
  857POPE   C4B11766   3.247   1.389   7.463 -0.1165  0.0431 -0.0482
  858POPE   NH311767  10.138   0.366   5.837 -0.0413 -0.1346  0.0541
  858POPE   PO411768  10.363   0.348   6.101  0.0595  0.0700 -0.0604
  858POPE   GL111769  10.473   0.395   6.545  0.5007  0.0606  0.2838
  858POPE   GL211770  10.866   0.476   6.535 -0.3688  0.1242  0.1292
  858POPE   C1A11771  10.285   0.412   6.954 -0.0432 -0.0603 -0.2783
  858POPE   D2A11772  10.147   0.419   7.444 -0.1564 -0.0193  0.3405
  858POPE   C3A11773  10.196   0.646   7.884  0.1021  0.0066 -0.0611
  858POPE   C4A11774  10.248   0.952   8.136 -0.1733 -0.0762  0.2724
  858POPE   C1B11775  10.775   0.504   6.916  0.2283  0.0702 -0.0312
  858POPE   C2B11776  10.663   0.377   7.315 -0.0651 -0.1560  0.0434
  858POPE   C3B11777  10.540   0.350   7.775 -0.1430  0.0598  0.0710
  858POPE   C4B11778  10.483   0.398   8.205  0.0776  0.1129 -0.4745
  859POPE   NH311779   2.653   8.033   5.616 -0.1462 -0.0004 -0.3290
  859POPE   PO411780   2.828   7.691   5.680  0.0457 -0.0428  0.2547
  859POPE   GL111781   3.019   7.850   6.036 -0.3368  0.0120 -0.0437
  859POPE   GL211782   2.976   8.174   6.174 -0.0557 -0.0935 -0.0596
  859POPE   C1A11783   3.023   7.624   6.467 -0.0658  0.2194 -0.2391
  859POPE   D2A11784   3.215   7.421   6.830  0.2066 -0.0201  0.1761
  859POPE   C3A11785   3.220   6.995   6.832 -0.1607 -0.0992 -0.0170
  859POPE   C4A11786   3.121   6.533   6.975  0.0998  0.2811  0.2555
  859POPE   C1B11787   3.077   8.124   6.527  0.0630  0.2668 -0.0055
  859POPE   C2B11788   3.110   7.922   6.902 -0.1005 -0.0332  0.2553
  859POPE   C3B11789   2.958   7.989   7.295  0.2136  0.0341 -0.1348
  859POPE   C4B11790   3.167   8.178   7.663 -0.1572  0.3563  0.0325
  860POPE   NH311791  14.855  15.748   5.926 -0.1410 -0.0215 -0.1235
  860POPE   PO411792  15.217  15.476   5.904  0.3535 -0.2154 -0.2483
  860POPE   GL111793  15.538  15.284   6.192 -0.0674 -0.1020 -0.0356
  860POPE   GL211794  15.327  15.197   6.373 -0.3090  0.3168 -0.2775
  860POPE   C1A11795  15.851  15.344   6.541  0.0415 -0.0546  0.0046
  860POPE   D2A11796  15.965  15.516   6.837  0.2387  0.0002  0.2364
  860POPE   C3A11797  15.971  15.491   7.168  0.3472 -0.0047 -0.1318
  860POPE   C4A11798  16.133  15.412   7.586  0.2755 -0.2904  0.1644
  860POPE   C1B11799  15.481  15.123   6.798  0.0948 -0.0477 -0.0930
  860POPE   C2B11800  15.574  15.065   7.145 -0.0109  0.0628  0.0818
  860POPE   C3B11801  15.665  15.229   7.580  0.0818  0.1082 -0.0961
  860POPE   C4B11802  15.785  15.120   7.986 -0.0425  0.0390 -0.2482
  861POPE   NH311803   9.384   7.287   5.679 -0.1191  0.2334 -0.0427
  861POPE   PO411804   9.486   7.617   5.380 -0.2269 -0.1344 -0.2325
  861POPE   GL111805   9.457   7.834   5.865  0.0602 -0.0448 -0.1344
  861POPE   GL211806   9.263   8.089   5.965 -0.0271 -0.2047  0.0641
  861POPE   C1A11807   9.698   8.118   6.233 -0.0197 -0.1790 -0.1244
  861POPE   D2A11808   9.692   8.130   6.713 -0.0893  0.0292  0.4054
  861POPE   C3A11809   9.485   8.107   7.127  0.0680  0.1254  0.0618
  861POPE   C4A11810   9.239   8.215   7.494 -0.0621  0.2413  0.2224
  861POPE   C1B11811   9.195   7.854   6.330  0.0327 -0.2039  0.0738
  861POPE   C2B11812   9.172   7.863   6.756  0.3689 -0.1143 -0.0171
  861POPE   C3B11813   8.933   7.874   7.147 -0.3179  0.1343 -0.0385
  861POPE   C4B11814   8.868   7.909   7.589 -0.0954 -0.0765 -0.4429
  862POPE   NH311815   0.801   0.317   6.097 -0.4979  0.1451  0.2319
  862POPE   PO411816   0.511   0.068   6.385 -0.1691  0.0389  0.1777
  862POPE   GL111817   0.317   0.137   6.625  0.1029 -0.1764 -0.2558
  862POPE   GL211818   0.530   0.116   6.928  0.0970 -0.3046  0.1927
  862POPE   C1A11819  -0.048   0.292   6.876  0.0398 -0.0479 -0.0483
  862POPE   D2A11820  -0.421   0.590   6.812 -0.3179 -0.2692 -0.1879
  862POPE   C3A11821  -0.614   0.720   7.124 -0.0163 -0.2531  0.3216
  862POPE   C4A11822  -0.937   1.002   7.188 -0.1435 -0.2394 -0.1051
  862POPE   C1B11823   0.557   0.127   7.385 -0.1275 -0.1092 -0.0217
  862POPE   C2B11824   0.690  -0.016   7.778  0.2680 -0.0114 -0.1710
  862POPE   C3B11825   0.751  -0.152   8.218  0.0446  0.3089  0.0916
  862POPE   C4B11826   0.651  -0.059   8.666 -0.1000  0.2083 -0.1052
  863POPE   NH311827   0.726  12.730   5.710  0.1225  0.0184  0.2502
  863POPE   PO411828   0.859  12.546   6.153 -0.1936  0.0021  0.0812
  863POPE   GL111829   0.808  12.822   6.466  0.0279 -0.0848 -0.0740
  863POPE   GL211830   1.148  12.856   6.462 -0.1099 -0.4563  0.2962
  863POPE   C1A11831   1.021  12.974   6.931 -0.1053 -0.0564  0.1254
  863POPE   D2A11832   0.937  12.881   7.448 -0.0974 -0.0100 -0.5103
  863POPE   C3A11833   1.224  12.785   7.680 -0.0308  0.4051  0.1128
  863POPE   C4A11834   1.669  12.880   7.772 -0.1688 -0.1913 -0.0677
  863POPE   C1B11835   1.364  12.636   6.777  0.3115  0.1652 -0.1242
  863POPE   C2B11836   1.437  12.597   7.249 -0.0973  0.0498  0.0265
  863POPE   C3B11837   1.720  12.452   7.495  0.1286 -0.0561 -0.1770
  863POPE   C4B11838   2.071  12.254   7.376 -0.1195 -0.0993  0.2499
  864POPE   NH311839   8.973   5.755   5.878  0.1064  0.2087 -0.3272
  864POPE   PO411840   8.472   5.668   5.795  0.1251 -0.1302  0.1376
  864POPE   GL111841   8.370   5.878   6.100 -0.1632  0.2788  0.0730
  864POPE   GL211842   8.004   5.889   6.170  0.0499 -0.3389  0.0498
  864POPE   C1A11843   8.241   5.777   6.567 -0.1910 -0.0105  0.1231
  864POPE   D2A11844   8.018   5.733   6.967 -0.0000 -0.0454 -0.0898
  864POPE   C3A11845   8.044   5.882   7.264 -0.1843 -0.0669  0.1241
  864POPE   C4A11846   7.908   5.741   7.672 -0.0178  0.3153  0.0199
  864POPE   C1B11847   7.784   6.031   6.552 -0.0063 -0.2051 -0.1453
  864POPE   C2B11848   7.580   6.278   6.884  0.2855 -0.1463 -0.2022
  864POPE   C3B11849   7.666   6.182   7.280  0.3521 -0.1578 -0.1618
  864POPE   C4B11850   7.513   5.792   7.411 -0.2616 -0.1240  0.0065
  865POPE   NH311851   6.894   1.541   5.604 -0.1435  0.1332 -0.0992
  865POPE   PO411852   6.477   1.401   5.543  0.3238  0.1785  0.2474
  865POPE   GL111853   6.463   1.190   5.890  0.3036  0.2561  0.2326
  865POPE   GL211854   6.625   0.887   5.932 -0.1211  0.0099  0.1940
  865POPE   C1A11855   6.545   1.245   6.295  0.2980 -0.0019 -0.0236
  865POPE   D2A11856   6.719   1.294   6.616  0.2404 -0.2628  0.0998
  865POPE   C3A11857   6.543   1.487   7.009 -0.2888 -0.1053 -0.1215
  865POPE   C4A11858   6.311   1.879   7.070 -0.1887 -0.3230  0.0271
  865POPE   C1B11859   7.001   1.041   6.294  0.1602  0.3198 -0.0882
  865POPE   C2B11860   7.159   1.127   6.632  0.0958 -0.3324 -0.3613
  865POPE   C3B11861   7.358   1.274   6.931  0.0087 -0.2555  0.2464
  865POPE   C4B11862   7.193   1.381   7.325  0.0478 -0.1831 -0.0242
  866POPE   NH311863  17.535  16.696   6.271 -0.0057  0.2547 -0.3895
  866POPE   PO411864  17.167  16.747   6.196  0.0076  0.3868 -0.3237
  866POPE   GL111865  17.225  16.887   6.661  0.1191  0.1378  0.0019
  866POPE   GL211866  17.426  16.821   6.729 -0.3435 -0.1072 -0.2019
  866POPE   C1A11867  17.128  17.040   7.116 -0.1670  0.1326 -0.0406
  866POPE   D2A11868  17.248  16.930   7.446 -0.1713  0.1490 -0.1234
  866POPE   C3A11869  17.311  17.125   7.885  0.2031 -0.0483 -0.0603
  866POPE   C4A11870  17.130  17.504   7.841 -0.0801 -0.1072  0.0442
  866POPE   C1B11871  17.659  16.965   7.143  0.2799  0.1434 -0.0825
  866POPE   C2B11872  17.710  16.953   7.590 -0.3833  0.1990 -0.0503
  866POPE   C3B11873  17.622  16.794   8.059 -0.0194  0.5713 -0.0210
  866POPE   C4B11874  17.842  16.879   8.493  0.0351  0.0997  0.1486
  867POPE   NH311875  16.703   1.750   5.893 -0.1743 -0.0473 -0.0401
  867POPE   PO411876  16.257   1.875   5.914 -0.1612 -0.0325  0.1338
  867POPE   GL111877  16.177   1.984   6.354  0.0340  0.0073 -0.1598
  867POPE   GL211878  15.941   2.238   6.431  0.1989  0.4821  0.2126
  867POPE   C1A11879  16.315   1.818   6.813 -0.1425 -0.2279  0.1150
  867POPE   D2A11880  16.211   1.819   7.296 -0.1111 -0.2185 -0.0344
  867POPE   C3A11881  16.568   1.638   7.639  0.0867  0.1566  0.3007
  867POPE   C4A11882  16.928   1.553   7.866  0.1467 -0.0446  0.1423
  867POPE   C1B11883  16.201   2.311   6.807 -0.3266  0.1242 -0.0597
  867POPE   C2B11884  16.333   2.373   7.264 -0.1115  0.0388  0.0500
  867POPE   C3B11885  16.581   2.147   7.581 -0.0742 -0.1826 -0.0473
  867POPE   C4B11886  16.992   1.964   7.600  0.0613  0.0220  0.3372
  868POPE   NH311887  12.352  10.237   6.234 -0.2061  0.0776 -0.1945
  868POPE   PO411888  12.469   9.751   6.094  0.0258  0.0644 -0.2558
  868POPE   GL111889  12.442   9.721   6.516 -0.0693 -0.0116  0.2155
  868POPE   GL211890  12.335   9.447   6.614 -0.3218  0.2469 -0.0570
  868POPE   C1A11891  12.625   9.703   6.953 -0.0955 -0.0333  0.1391
  868POPE   D2A11892  12.522   9.626   7.407  0.0613  0.0261 -0.1346
  868POPE   C3A11893  12.436   9.799   7.752  0.1124  0.2967 -0.0499
  868POPE   C4A11894  12.273   9.788   8.250 -0.1153 -0.1096 -0.1081
  868POPE   C1B11895  12.173   9.478   7.047 -0.2514 -0.0659 -0.0578
  868POPE   C2B11896  12.024   9.533   7.514  0.1264 -0.0045 -0.0540
  868POPE   C3B11897  11.904   9.747   7.795  0.0203  0.1747 -0.1907
  868POPE   C4B11898  11.873   9.503   8.155 -0.0116  0.2643 -0.0513
  869POPE   NH311899  16.387   8.642   5.907  0.2563 -0.0643 -0.0563
  869POPE   PO411900  16.523   9.008   5.833 -0.1936 -0.0442 -0.0705
  869POPE   GL111901  16.850   8.861   6.132 -0.0826  0.0426  0.1441
  869POPE   GL211902  16.676   8.693   6.320 -0.3885  0.2616  0.1445
  869POPE   C1A11903  16.927   9.025   6.632 -0.1311 -0.0310  0.2442
  869POPE   D2A11904  17.050   9.399   6.851  0.1790 -0.2303 -0.0041
  869POPE   C3A11905  17.319   9.334   7.311  0.3207  0.0895 -0.0797
  869POPE   C4A11906  17.206   9.259   7.776 -0.0389  0.1869  0.0319
  869POPE   C1B11907  16.927   8.530   6.549  0.1419  0.0749 -0.3122
  869POPE   C2B11908  17.002   8.684   7.003  0.2163 -0.0221  0.1514
  869POPE   C3B11909  16.903   8.992   7.271  0.0184 -0.0929  0.2736
  869POPE   C4B11910  16.677   8.987   7.672  0.0997  0.0953  0.3254
  870POPE   NH311911  14.827   6.595   6.191  0.1548  0.3273 -0.4331
  870POPE   PO411912  15.167   6.890   6.245 -0.0273  0.1895 -0.0190
  870POPE   GL111913  15.576   6.861   6.373  0.0469 -0.0666 -0.1491
  870POPE   GL211914  15.948   7.037   6.411 -0.1792 -0.1683  0.1831
  870POPE   C1A11915  15.838   6.581   6.753  0.2322  0.3593 -0.0824
  870POPE   D2A11916  16.103   6.438   7.080 -0.2083  0.2128  0.2359
  870POPE   C3A11917  16.072   6.593   7.472  0.3131  0.2919 -0.0822
  870POPE   C4A11918  15.956   6.873   7.716 -0.1678  0.1667  0.2616
  870POPE   C1B11919  15.762   7.111   6.823 -0.0561 -0.2322  0.1034
  870POPE   C2B11920  15.505   7.273   7.245 -0.2954  0.0957  0.1740
  870POPE   C3B11921  15.582   7.407   7.665  0.0445  0.1393  0.1997
  870POPE   C4B11922  15.902   7.414   8.043  0.3143 -0.2422 -0.0916
  871POPE   NH311923   8.611   4.302   5.813 -0.0504 -0.1883  0.1046
  871POPE   PO411924   8.220   4.390   5.800 -0.1471 -0.0964 -0.0360
  871POPE   GL111925   8.305   4.475   6.208 -0.0528 -0.1249 -0.0285
  871POPE   GL211926   8.615   4.738   6.251 -0.0306  0.1459  0.0928
  871POPE   C1A11927   8.202   4.366   6.565  0.2109  0.3084 -0.2570
  871POPE   D2A11928   8.314   4.176   6.940 -0.1951 -0.2057  0.2585
  871POPE   C3A11929   8.169   4.178   7.282 -0.3465 -0.2842 -0.0514
  871POPE   C4A11930   8.286   4.117   7.769 -0.3250  0.3499 -0.0430
  871POPE   C1B11931   8.607   4.790   6.586 -0.1029  0.0601  0.0242
  871POPE   C2B11932   8.668   5.011   6.839 -0.3144  0.3006 -0.0626
  871POPE   C3B11933   8.557   5.028   7.240 -0.1064 -0.0807  0.2182
  871POPE   C4B11934   8.306   4.962   7.548 -0.0939 -0.2183  0.0050
  872YOPE   NH311935   4.134  10.138   5.516 -0.3246 -0.1929 -0.1750
  872YOPE   PO411936   3.639   9.961   5.713  0.1617 -0.0260 -0.0403
  872YOPE   GL111937   3.674   9.761   6.146  0.0155 -0.0668 -0.1933
  872YOPE   GL211938   3.521   9.872   6.422  0.0099  0.0125 -0.4641
  872YOPE   C1A11939   4.067   9.695   6.458 -0.2733  0.2111 -0.2310
  872YOPE   D2A11940   4.116   9.654   6.850  0.0725  0.1928 -0.1074
  872YOPE   C3A11941   3.722   9.806   6.920 -0.1445  0.0295 -0.0577
  872YOPE   C4A11942   3.296   9.752   6.948 -0.0947 -0.0400 -0.5367
  872YOPE   C1B11943   3.537   9.433   6.622  0.1112 -0.1334  0.2378
  872YOPE   C2B11944   3.558   9.117   7.068 -0.0755 -0.1248  0.0112
  872YOPE   D3B11945   3.701   9.075   7.506 -0.1230 -0.1970  0.0954
  872YOPE   C4B11946   3.945   9.416   7.780  0.1313  0.2228 -0.0483
  873YOPE   NH311947   7.601   1.400   5.877 -0.2375  0.1618  0.1207
  873YOPE   PO411948   7.407   1.652   5.641  0.2005 -0.1078 -0.0024
  873YOPE   GL111949   7.302   1.860   6.094 -0.1323  0.2011 -0.0423
  873YOPE   GL211950   7.050   1.529   6.121 -0.0842  0.4355 -0.0377
  873YOPE   C1A11951   7.319   2.085   6.472 -0.3554 -0.2102 -0.0504
  873YOPE   D2A11952   7.312   2.091   7.027  0.1436 -0.1722 -0.0360
  873YOPE   C3A11953   7.417   1.945   7.396  0.2553 -0.2171  0.0021
  873YOPE   C4A11954   7.186   1.766   7.769  0.3449  0.0393  0.2764
  873YOPE   C1B11955   7.081   1.586   6.518  0.0071 -0.0498  0.0668
  873YOPE   C2B11956   6.979   1.676   6.953  0.1664  0.0505  0.0998
  873YOPE   D3B11957   6.794   1.717   7.415 -0.0779  0.4966 -0.1584
  873YOPE   C4B11958   6.897   1.351   7.746 -0.0311  0.0468  0.1765
  874YOPE   NH311959   0.615  11.485   5.824 -0.2024  0.1049  0.1094
  874YOPE   PO411960   0.510  11.907   5.862 -0.0307  0.0673  0.2997
  874YOPE   GL111961   0.595  11.925   6.318  0.1605  0.1380  0.1421
  874YOPE   GL211962   0.444  11.515   6.304  0.1436  0.0242 -0.1935
  874YOPE   C1A11963   0.606  11.932   6.772  0.0225 -0.4045 -0.0542
  874YOPE   D2A11964   0.801  11.861   7.240 -0.0119 -0.0527 -0.2563
  874YOPE   C3A11965   0.718  12.103   7.676 -0.1902  0.2507  0.0109
  874YOPE   C4A11966   0.754  12.461   7.712 -0.0632 -0.2923 -0.0528
  874YOPE   C1B11967   0.409  11.489   6.713  0.1919 -0.0153 -0.2181
  874YOPE   C2B11968   0.454  11.551   7.098  0.0689 -0.1514 -0.0285
  874YOPE   D3B11969   0.223  11.651   7.396 -0.2453 -0.0301 -0.0672
  874YOPE   C4B11970   0.270  11.727   7.821  0.3387  0.1356 -0.1446
  875YOPE   NH311971  12.970  14.501   5.847 -0.1567  0.3502  0.0476
  875YOPE   PO411972  13.367  14.521   5.618  0.0475  0.1533  0.0945
  875YOPE   GL111973  13.548  14.520   5.969 -0.1208  0.0821  0.1001
  875YOPE   GL211974  13.329  14.421   6.219  0.0768 -0.1848  0.3861
  875YOPE   C1A11975  13.776  14.577   6.379 -0.0116  0.1307 -0.0685
  875YOPE   D2A11976  13.734  14.632   6.752  0.1617  0.0644  0.7982
  875YOPE   C3A11977  13.753  14.629   7.135 -0.0559  0.0277 -0.2437
  875YOPE   C4A11978  13.569  14.961   7.434 -0.1395 -0.1208  0.1898
  875YOPE   C1B11979  13.196  14.625   6.629 -0.0732 -0.0897 -0.0169
  875YOPE   C2B11980  13.218  14.815   7.134 -0.0012  0.0248  0.0189
  875YOPE   D3B11981  13.146  14.643   7.529  0.0800 -0.2517 -0.0710
  875YOPE   C4B11982  13.169  14.319   7.857  0.0414 -0.2116  0.0156
  876YOPE   NH311983  13.735   7.030   6.644  0.0895  0.2863  0.1350
  876YOPE   PO411984  13.522   7.371   6.606 -0.0241 -0.1274  0.0017
  876YOPE   GL111985  13.484   7.328   7.028  0.0588  0.1414  0.0063
  876YOPE   GL211986  13.724   7.104   7.151  0.2582 -0.4392  0.0894
  876YOPE   C1A11987  13.475   7.422   7.488  0.2912  0.0288 -0.1678
  876YOPE   D2A11988  13.293   7.595   7.924 -0.2606  0.0942 -0.0890
  876YOPE   C3A11989  13.223   7.251   8.200  0.0346 -0.4047 -0.2347
  876YOPE   C4A11990  13.257   6.767   8.308  0.1361  0.0809  0.0354
  876YOPE   C1B11991  13.811   7.033   7.523  0.1372 -0.0932  0.3140
  876YOPE   C2B11992  13.779   7.098   7.940  0.2738 -0.0862 -0.1631
  876YOPE   D3B11993  13.662   7.036   8.420 -0.2010  0.1627  0.0515
  876YOPE   C4B11994  13.547   6.818   8.806  0.3260  0.2140 -0.2911
  877YOPE   NH311995   1.276  17.132   6.232 -0.0345  0.0034  0.1666
  877YOPE   PO411996   1.109  16.727   6.161  0.0414  0.0472 -0.0775
  877YOPE   GL111997   1.156  16.883   6.654 -0.0572 -0.0597  0.1476
  877YOPE   GL211998   1.017  17.130   6.781  0.2362  0.2145 -0.0296
  877YOPE   C1A11999   1.398  16.622   7.009  0.0895  0.1552  0.1763
  877YOPE   D2A12000   1.441  16.688   7.427 -0.2954  0.0927  0.2751
  877YOPE   C3A12001   1.458  16.311   7.710  0.0999 -0.1177 -0.1903
  877YOPE   C4A12002   1.652  16.277   8.150  0.3825  0.0835  0.2912
  877YOPE   C1B12003   1.015  16.887   7.207 -0.2209  0.1534  0.2063
  877YOPE   C2B12004   1.036  16.884   7.609 -0.0240 -0.0719  0.1219
  877YOPE   D3B12005   1.134  17.192   7.945  0.0145  0.1469 -0.0183
  877YOPE   C4B12006   1.458  17.577   8.001 -0.1807  0.0086 -0.1459
  878YOPE   NH312007   1.558   7.091   5.736 -0.4664  0.1498 -0.3467
  878YOPE   PO412008   1.196   7.445   5.689 -0.4253  0.0537  0.0469
  878YOPE   GL112009   1.164   7.603   6.139 -0.0522  0.2460  0.0274
  878YOPE   GL212010   0.769   7.706   6.018 -0.1091  0.0821  0.1497
  878YOPE   C1A12011   1.204   7.548   6.610 -0.0064 -0.2983 -0.1113
  878YOPE   D2A12012   1.504   7.342   6.907 -0.1696 -0.0170 -0.1414
  878YOPE   C3A12013   1.346   6.987   7.121 -0.1914 -0.0641 -0.1138
  878YOPE   C4A12014   1.286   6.850   7.437  0.0862  0.5633  0.0395
  878YOPE   C1B12015   0.717   7.639   6.398 -0.0048  0.2161 -0.0117
  878YOPE   C2B12016   0.718   7.617   6.758 -0.0209 -0.1240  0.2063
  878YOPE   D3B12017   1.042   7.512   7.106 -0.0964 -0.2427 -0.1123
  878YOPE   C4B12018   1.244   7.398   7.407 -0.2416 -0.0715  0.0879
  879YOPE   NH312019  13.668  10.805   5.211  0.1790 -0.2805  0.1135
  879YOPE   PO412020  13.918  10.823   5.666 -0.0764 -0.3916 -0.5374
  879YOPE   GL112021  14.135  10.874   6.111 -0.1010 -0.0970 -0.1196
  879YOPE   GL212022  14.130  10.863   6.390 -0.2479 -0.1813  0.1606
  879YOPE   C1A12023  14.476  10.561   6.308 -0.0218 -0.2091  0.0855
  879YOPE   D2A12024  14.517  10.127   6.431 -0.1872  0.1056 -0.0077
  879YOPE   C3A12025  14.148   9.889   6.672  0.0038 -0.4724  0.0051
  879YOPE   C4A12026  13.914   9.814   6.947  0.2376  0.2112  0.1927
  879YOPE   C1B12027  14.420  11.026   6.745  0.1606  0.0498  0.1411
  879YOPE   C2B12028  14.738  11.061   7.004  0.3456  0.1642  0.0873
  879YOPE   D3B12029  14.751  11.100   7.462  0.0787  0.1480  0.1278
  879YOPE   C4B12030  14.873  10.997   7.856  0.1369 -0.1174  0.1341
  880YOPE   NH312031   8.802   0.440   5.350 -0.0174  0.1282 -0.2529
  880YOPE   PO412032   9.015   0.787   5.590  0.0481  0.0227 -0.1895
  880YOPE   GL112033   8.823   0.527   5.921 -0.2667  0.0129 -0.2655
  880YOPE   GL212034   8.849   0.243   5.812 -0.0962 -0.2607 -0.1172
  880YOPE   C1A12035   8.750   0.660   6.266 -0.3936 -0.0735  0.0248
  880YOPE   D2A12036   8.613   0.807   6.758  0.2119  0.1551  0.0922
  880YOPE   C3A12037   8.270   0.897   6.853  0.1324  0.2274  0.3929
  880YOPE   C4A12038   7.882   0.699   7.097 -0.1535 -0.0686 -0.2740
  880YOPE   C1B12039   9.027   0.199   6.202 -0.3652  0.1319 -0.0571
  880YOPE   C2B12040   9.350   0.271   6.476 -0.0682  0.1173 -0.0453
  880YOPE   D3B12041   9.321   0.111   6.930  0.1067  0.0919  0.1356
  880YOPE   C4B12042   9.300  -0.079   7.318 -0.0107 -0.0725 -0.3427
  881YOPE   NH312043   8.378   5.205   5.589  0.2716  0.0952  0.1140
  881YOPE   PO412044   8.567   4.861   5.754 -0.0887  0.1252  0.0488
  881YOPE   GL112045   8.171   5.008   5.985 -0.2814 -0.1431 -0.0647
  881YOPE   GL212046   7.800   5.016   5.953  0.0211 -0.1916  0.2840
  881YOPE   C1A12047   8.094   4.916   6.462 -0.0822  0.1146  0.1252
  881YOPE   D2A12048   8.156   4.825   6.854  0.0499 -0.0150 -0.0001
  881YOPE   C3A12049   8.522   4.560   7.060 -0.2196  0.0329  0.3936
  881YOPE   C4A12050   8.566   4.516   7.499 -0.1272 -0.1914 -0.2791
  881YOPE   C1B12051   7.637   5.100   6.345 -0.1937 -0.2008 -0.0050
  881YOPE   C2B12052   7.299   5.248   6.672 -0.1096 -0.0934 -0.1548
  881YOPE   D3B12053   7.110   5.426   7.028 -0.0445 -0.2196 -0.2902
  881YOPE   C4B12054   7.022   5.629   7.368 -0.2670  0.0891 -0.0783
  882YOPE   NH312055   3.050   8.611   5.755  0.2670  0.0223 -0.1415
  882YOPE   PO412056   2.686   8.522   5.644  0.2251 -0.3502 -0.2477
  882YOPE   GL112057   2.562   8.507   5.995 -0.1324  0.0500 -0.1522
  882YOPE   GL212058   2.413   8.818   6.161 -0.2623 -0.0201 -0.1822
  882YOPE   C1A12059   2.603   8.311   6.378 -0.1284  0.0996  0.0675
  882YOPE   D2A12060   2.749   8.243   6.875 -0.0195 -0.0949  0.3198
  882YOPE   C3A12061   2.449   7.899   7.193 -0.0285 -0.0929 -0.0153
  882YOPE   C4A12062   2.468   7.710   7.638 -0.2207  0.1841 -0.1420
  882YOPE   C1B12063   2.458   8.655   6.675 -0.0433  0.0012  0.0842
  882YOPE   C2B12064   2.325   8.512   7.046  0.0037  0.1090 -0.3036
  882YOPE   D3B12065   1.984   8.535   7.293  0.1160  0.1393  0.3045
  882YOPE   C4B12066   1.617   8.334   7.450 -0.0561  0.2872  0.0266
  883YOPE   NH312067   4.057   3.789   5.737  0.1994  0.0564  0.1280
  883YOPE   PO412068   4.270   3.384   5.747 -0.2870  0.1429  0.1431
  883YOPE   GL112069   4.260   3.232   6.133 -0.2213  0.4226 -0.2341
  883YOPE   GL212070   4.085   3.046   6.290  0.0348 -0.1679  0.2591
  883YOPE   C1A12071   4.222   3.399   6.581  0.0934 -0.1674  0.1447
  883YOPE   D2A12072   4.270   3.333   6.989  0.1663  0.0981  0.4655
  883YOPE   C3A12073   4.104   3.501   7.222 -0.1852  0.2711 -0.0128
  883YOPE   C4A12074   3.935   3.401   7.691  0.1468  0.1436 -0.1386
  883YOPE   C1B12075   4.033   2.971   6.713  0.4239  0.1074 -0.0673
  883YOPE   C2B12076   4.189   2.948   7.298  0.0380 -0.0784  0.0743
  883YOPE   D3B12077   4.215   2.868   7.680  0.1210  0.1585 -0.0542
  883YOPE   C4B12078   4.194   3.151   8.091  0.1938 -0.0197 -0.1049
  884YOPE   NH312079  11.788  15.654   6.096  0.0771  0.0281 -0.0859
  884YOPE   PO412080  11.671  16.100   6.203 -0.2094  0.1265 -0.0080
  884YOPE   GL112081  11.507  15.843   6.506 -0.1379 -0.0321 -0.0164
  884YOPE   GL212082  11.599  15.551   6.679 -0.0111 -0.2483 -0.3273
  884YOPE   C1A12083  11.293  15.883   6.868 -0.1482  0.1677 -0.3745
  884YOPE   D2A12084  11.418  16.054   7.198  0.1466 -0.5059  0.0274
  884YOPE   C3A12085  11.471  15.979   7.675  0.1221  0.2418  0.1302
  884YOPE   C4A12086  11.549  15.706   8.065 -0.0602 -0.3662  0.1077
  884YOPE   C1B12087  11.522  15.547   7.166 -0.0850 -0.2663  0.2924
  884YOPE   C2B12088  11.477  15.422   7.572 -0.2893  0.0407 -0.0244
  884YOPE   D3B12089  11.570  15.245   7.917  0.0709 -0.0230  0.1022
  884YOPE   C4B12090  11.721  14.994   8.313 -0.1797  0.1883  0.0708
  885YOPE   NH312091   1.673   9.376   5.927 -0.0258  0.0301  0.0168
  885YOPE   PO412092   1.597   9.739   5.948  0.3708  0.0428  0.1734
  885YOPE   GL112093   1.333   9.512   6.347 -0.1708  0.0984 -0.0597
  885YOPE   GL212094   1.258   9.155   6.217  0.0205 -0.1665  0.3111
  885YOPE   C1A12095   1.228   9.430   6.824  0.0379 -0.2135 -0.2946
  885YOPE   D2A12096   1.143   9.172   7.099 -0.1600 -0.0572 -0.0400
  885YOPE   C3A12097   1.299   9.220   7.561  0.1407 -0.2192 -0.2860
  885YOPE   C4A12098   1.324   9.119   8.031  0.1103 -0.2537 -0.0768
  885YOPE   C1B12099   1.000   8.994   6.616 -0.1774  0.0879  0.0335
  885YOPE   C2B12100   0.669   8.952   6.995  0.0406  0.0061  0.0331
  885YOPE   D3B12101   0.522   8.872   7.479  0.2465  0.1676 -0.3109
  885YOPE   C4B12102   0.109   8.623   7.636 -0.1571  0.2165 -0.0032
  886YOPE   NH312103  17.492  15.408   5.970  0.4992  0.0926 -0.0711
  886YOPE   PO412104  17.293  14.980   5.991  0.0311  0.1115  0.1639
  886YOPE   GL112105  16.992  14.825   6.296  0.0371 -0.5700  0.0233
  886YOPE   GL212106  16.680  14.691   6.160 -0.0759  0.0845  0.2888
  886YOPE   C1A12107  16.748  14.975   6.614  0.2105  0.1838 -0.0819
  886YOPE   D2A12108  16.791  14.852   7.083 -0.2194  0.2925  0.0606
  886YOPE   C3A12109  16.532  14.692   7.393  0.1951 -0.2552  0.2292
  886YOPE   C4A12110  16.169  14.502   7.373 -0.0418 -0.2165  0.2807
  886YOPE   C1B12111  16.577  14.472   6.525 -0.0626  0.0560  0.0454
  886YOPE   C2B12112  16.487  14.459   6.896  0.0693  0.0966  0.0124
  886YOPE   D3B12113  16.505  14.148   7.190 -0.0778  0.0146 -0.0028
  886YOPE   C4B12114  16.460  14.016   7.588 -0.0359  0.0520  0.0799
  887YOPE   NH312115   6.292  12.018   5.965 -0.0463  0.0530 -0.0713
  887YOPE   PO412116   5.866  11.865   5.929  0.1852  0.3532 -0.1942
  887YOPE   GL112117   5.741  11.797   6.321 -0.3246  0.0681  0.1187
  887YOPE   GL212118   5.522  12.049   6.399  0.3546 -0.3962  0.1320
  887YOPE   C1A12119   5.712  11.615   6.667 -0.1328 -0.0585 -0.1008
  887YOPE   D2A12120   5.849  11.393   6.937  0.1311 -0.1178 -0.0342
  887YOPE   C3A12121   5.808  11.337   7.393 -0.0188  0.0033 -0.0701
  887YOPE   C4A12122   5.562  11.409   7.737 -0.1893  0.3667  0.0351
  887YOPE   C1B12123   5.717  12.258   6.681  0.1190  0.1280 -0.2038
  887YOPE   C2B12124   5.656  12.375   7.039 -0.1272  0.1683 -0.1234
  887YOPE   D3B12125   5.479  12.273   7.522 -0.2960  0.0089  0.2581
  887YOPE   C4B12126   5.407  12.283   7.934  0.2085  0.0874  0.3676
  888YOPE   NH312127  13.680  13.279   5.719  0.1513  0.1517  0.1413
  888YOPE   PO412128  13.501  13.702   5.723  0.2174  0.1264  0.0461
  888YOPE   GL112129  13.567  13.547   6.161 -0.3011 -0.0852 -0.0322
  888YOPE   GL212130  13.920  13.502   6.193  0.3077 -0.0302  0.4040
  888YOPE   C1A12131  13.708  13.598   6.642 -0.0458 -0.0926  0.1918
  888YOPE   D2A12132  13.747  13.648   7.114  0.0184  0.0437  0.3625
  888YOPE   C3A12133  13.467  13.795   7.384 -0.0101 -0.0404 -0.1024
  888YOPE   C4A12134  13.139  13.770   7.723  0.0640 -0.0814  0.0771
  888YOPE   C1B12135  14.289  13.625   6.479 -0.2951 -0.0732 -0.3349
  888YOPE   C2B12136  14.178  13.616   6.923  0.4458 -0.0874 -0.0970
  888YOPE   D3B12137  14.290  13.575   7.381 -0.1800  0.1670  0.1132
  888YOPE   C4B12138  14.268  13.557   7.825  0.0954 -0.1689  0.1386
  889YOPE   NH312139   1.341   2.445   6.039 -0.0827  0.0362 -0.2982
  889YOPE   PO412140   0.994   2.417   6.073  0.1371 -0.2494  0.1371
  889YOPE   GL112141   0.979   2.370   6.434 -0.0323  0.1332 -0.0449
  889YOPE   GL212142   1.280   2.153   6.424  0.3430 -0.1412  0.1827
  889YOPE   C1A12143   0.820   2.396   6.774  0.2963 -0.0232  0.2033
  889YOPE   D2A12144   0.752   2.647   7.077 -0.0366 -0.0463 -0.0679
  889YOPE   C3A12145   0.826   2.374   7.416  0.1605  0.2894  0.2227
  889YOPE   C4A12146   0.658   2.164   7.755 -0.1963  0.0181  0.0290
  889YOPE   C1B12147   1.514   2.119   6.832 -0.2874  0.0317  0.3458
  889YOPE   C2B12148   1.615   2.192   7.220 -0.1762 -0.1689 -0.3277
  889YOPE   D3B12149   1.594   2.192   7.688  0.1246 -0.1633  0.1045
  889YOPE   C4B12150   1.763   2.393   8.041  0.1389  0.0599 -0.0308
  890YOPE   NH312151  16.153   3.605   5.954 -0.4553  0.2968 -0.4122
  890YOPE   PO412152  16.346   3.279   6.072 -0.2017  0.0276 -0.0024
  890YOPE   GL112153  16.676   3.705   6.096 -0.0512 -0.1151  0.1109
  890YOPE   GL212154  16.950   3.560   6.193  0.0218 -0.2917 -0.0282
  890YOPE   C1A12155  16.691   4.099   6.372 -0.1875 -0.1053  0.0370
  890YOPE   D2A12156  16.674   4.435   6.674 -0.2979  0.3675  0.2268
  890YOPE   C3A12157  16.667   4.443   7.139 -0.0315 -0.1998 -0.1395
  890YOPE   C4A12158  16.826   4.639   7.500  0.1660  0.0652 -0.2021
  890YOPE   C1B12159  16.875   3.681   6.641 -0.2936  0.0831  0.2275
  890YOPE   C2B12160  16.980   3.641   7.044 -0.2773 -0.4114 -0.4541
  890YOPE   D3B12161  17.036   3.673   7.516 -0.1460  0.2330  0.2510
  890YOPE   C4B12162  17.253   3.845   7.886  0.1043  0.0492 -0.0242
  891YOPE   NH312163   5.703   7.196   5.164 -0.3230  0.1858  0.1182
  891YOPE   PO412164   6.174   7.185   5.210 -0.0723 -0.2957  0.0103
  891YOPE   GL112165   6.447   7.113   5.595 -0.0691 -0.1915  0.1622
  891YOPE   GL212166   6.476   6.890   5.731 -0.0476  0.1832 -0.0697
  891YOPE   C1A12167   6.707   7.403   5.931  0.0689  0.2982  0.0377
  891YOPE   D2A12168   6.874   7.568   6.251  0.1042  0.1508 -0.0704
  891YOPE   C3A12169   6.911   7.510   6.618 -0.2769  0.0272  0.0735
  891YOPE   C4A12170   6.986   7.262   6.981  0.0212  0.0306  0.3204
  891YOPE   C1B12171   6.522   6.881   6.041  0.1418  0.2011  0.1205
  891YOPE   C2B12172   6.850   7.063   6.268  0.1166 -0.2573  0.0385
  891YOPE   D3B12173   7.226   7.172   6.365 -0.1264 -0.1991 -0.1741
  891YOPE   C4B12174   7.408   7.571   6.247 -0.2565  0.0007 -0.0296
  892YOPE   NH312175  11.331  14.970   5.789 -0.0158 -0.0465 -0.1246
  892YOPE   PO412176  11.362  14.575   5.845  0.4388 -0.0127 -0.0840
  892YOPE   GL112177  11.620  14.809   6.206  0.0162 -0.0077 -0.2163
  892YOPE   GL212178  11.852  15.109   6.148 -0.0990  0.3816  0.2784
  892YOPE   C1A12179  11.727  14.593   6.588 -0.3238  0.0806 -0.1912
  892YOPE   D2A12180  11.779  14.685   7.122  0.0293 -0.0647  0.7618
  892YOPE   C3A12181  11.867  14.567   7.574  0.1066  0.0710 -0.0518
  892YOPE   C4A12182  11.809  14.739   7.914 -0.0331  0.0330  0.1797
  892YOPE   C1B12183  11.859  15.154   6.532  0.2850 -0.1963 -0.1502
  892YOPE   C2B12184  12.124  14.963   6.864  0.3013 -0.0725  0.1942
  892YOPE   D3B12185  12.328  14.815   7.218  0.1994  0.0280 -0.2688
  892YOPE   C4B12186  12.322  14.803   7.615  0.2615 -0.1601  0.0455
  893YOPE   NH312187   4.473  13.831   6.151 -0.1701  0.0540 -0.0117
  893YOPE   PO412188   4.429  13.420   6.015 -0.0245  0.0481 -0.0481
  893YOPE   GL112189   4.457  13.278   6.313 -0.2269 -0.0716 -0.1670
  893YOPE   GL212190   4.704  13.018   6.290  0.1630  0.0723  0.0123
  893YOPE   C1A12191   4.409  13.348   6.765  0.1242 -0.1609 -0.1067
  893YOPE   D2A12192   4.399  13.224   7.167  0.0341 -0.2843 -0.0112
  893YOPE   C3A12193   4.058  12.893   7.229  0.1280 -0.0074  0.0182
  893YOPE   C4A12194   3.964  12.529   7.455  0.0704 -0.0565  0.1125
  893YOPE   C1B12195   4.898  13.209   6.583  0.2007  0.0472  0.1807
  893YOPE   C2B12196   4.911  13.058   7.085 -0.3719 -0.0850 -0.1484
  893YOPE   D3B12197   4.694  12.970   7.470 -0.3269 -0.0840  0.0318
  893YOPE   C4B12198   4.264  13.057   7.696  0.2704 -0.1300  0.1126
  894YOPE   NH312199   2.273  13.108   5.739 -0.1549 -0.1147 -0.1011
  894YOPE   PO412200   2.443  12.673   5.823  0.1910  0.0555  0.1285
  894YOPE   GL112201   2.197  12.837   6.168  0.1056  0.2559 -0.3033
  894YOPE   GL212202   2.094  13.144   6.223  0.0911  0.1001  0.0119
  894YOPE   C1A12203   2.386  12.834   6.621 -0.1432 -0.1409  0.1473
  894YOPE   D2A12204   2.303  12.789   7.064  0.0926 -0.0709 -0.2718
  894YOPE   C3A12205   1.912  12.852   7.213 -0.0346  0.1455 -0.2752
  894YOPE   C4A12206   1.521  13.079   7.283 -0.1257  0.2758 -0.0916
  894YOPE   C1B12207   2.344  13.279   6.420 -0.3987  0.1617  0.1980
  894YOPE   C2B12208   2.310  13.312   6.883 -0.1903 -0.1753  0.0212
  894YOPE   D3B12209   2.181  13.276   7.347  0.0524 -0.0585  0.0000
  894YOPE   C4B12210   2.177  13.199   7.736 -0.0636  0.0147  0.0778
  895YOPE   NH312211   1.462   3.658   5.842  0.0564 -0.1565 -0.0065
  895YOPE   PO412212   0.994   3.672   5.835 -0.2956 -0.0872 -0.0240
  895YOPE   GL112213   0.715   3.701   6.249  0.1871  0.1445 -0.0440
  895YOPE   GL212214   0.919   3.602   6.485  0.3364  0.3279  0.2125
  895YOPE   C1A12215   0.465   3.799   6.594 -0.2030  0.1513  0.1452
  895YOPE   D2A12216   0.475   3.842   7.085 -0.0781 -0.2801 -0.1059
  895YOPE   C3A12217   0.439   3.757   7.547  0.1132 -0.0310  0.2352
  895YOPE   C4A12218   0.244   3.577   7.989  0.1559  0.0202 -0.2994
  895YOPE   C1B12219   0.757   3.409   6.776  0.0319 -0.0973  0.0853
  895YOPE   C2B12220   0.702   3.395   7.231  0.2853  0.4860 -0.3972
  895YOPE   D3B12221   0.715   3.370   7.674 -0.0448  0.0792  0.0413
  895YOPE   C4B12222   0.637   2.973   7.972 -0.0108 -0.1168  0.2101
  896YOPE   NH312223  11.037   6.296   5.965  0.2311 -0.2184  0.0451
  896YOPE   PO412224  10.743   6.652   5.758 -0.0404 -0.0075 -0.4862
  896YOPE   GL112225  10.952   6.751   6.140  0.0740 -0.0499  0.1735
  896YOPE   GL212226  10.813   7.050   6.206 -0.1964 -0.0099  0.0199
  896YOPE   C1A12227  11.215   6.926   6.604  0.2053 -0.0281  0.0265
  896YOPE   D2A12228  11.531   7.220   6.882  0.2510  0.2585 -0.1971
  896YOPE   C3A12229  11.481   7.265   7.307 -0.0623  0.2280 -0.0342
  896YOPE   C4A12230  11.582   6.895   7.656  0.3231  0.1502 -0.1952
  896YOPE   C1B12231  10.763   7.075   6.645  0.1775 -0.2386  0.0488
  896YOPE   C2B12232  10.653   6.855   7.041  0.1200  0.2441 -0.1679
  896YOPE   D3B12233  10.744   6.718   7.407  0.0663  0.0137  0.3099
  896YOPE   C4B12234  11.039   6.407   7.416  0.0411  0.0872 -0.0328
  897YOPE   NH312235   7.978   8.050   5.571 -0.1225 -0.3174 -0.0333
  897YOPE   PO412236   8.229   8.463   5.567  0.0631 -0.1536  0.1729
  897YOPE   GL112237   8.188   8.696   5.897 -0.0186 -0.1419 -0.3229
  897YOPE   GL212238   8.370   8.614   6.084  0.1758 -0.2418  0.2993
  897YOPE   C1A12239   8.081   9.000   6.267  0.1177 -0.0836 -0.0329
  897YOPE   D2A12240   8.303   8.827   6.534  0.0620 -0.0380 -0.0971
  897YOPE   C3A12241   8.259   8.847   6.925 -0.0943 -0.1781  0.5041
  897YOPE   C4A12242   8.154   8.986   7.294 -0.1712 -0.3195 -0.1408
  897YOPE   C1B12243   8.617   8.463   6.408  0.2660 -0.0400  0.2087
  897YOPE   C2B12244   8.745   8.603   6.839 -0.1007  0.0548  0.2560
  897YOPE   D3B12245   8.829   8.852   7.229  0.0788 -0.0452  0.1068
  897YOPE   C4B12246   8.575   8.909   7.566  0.1941 -0.2428 -0.2573
  898YOPE   NH312247  15.546  14.272   5.793 -0.2591  0.1939  0.0193
  898YOPE   PO412248  15.438  13.938   5.457 -0.2486  0.1126 -0.0075
  898YOPE   GL112249  15.307  13.772   5.915  0.0448 -0.0387 -0.0385
  898YOPE   GL212250  15.602  13.873   6.164  0.1142 -0.3576 -0.3216
  898YOPE   C1A12251  15.202  13.479   6.239  0.0641  0.0605 -0.3432
  898YOPE   D2A12252  15.150  13.211   6.580  0.0493 -0.2531  0.0154
  898YOPE   C3A12253  15.107  13.268   6.918  0.0694 -0.0862 -0.0566
  898YOPE   C4A12254  15.275  13.319   7.385 -0.1868 -0.1537  0.0390
  898YOPE   C1B12255  15.562  13.806   6.471  0.0459 -0.1551  0.2153
  898YOPE   C2B12256  15.587  13.806   6.908  0.0393 -0.2344 -0.2587
  898YOPE   D3B12257  15.614  13.699   7.347 -0.1413 -0.0332 -0.0120
  898YOPE   C4B12258  15.404  13.955   7.735 -0.2637 -0.2321  0.2847
  899YOPE   NH312259  13.934  15.268   5.805  0.1599 -0.0396 -0.0941
  899YOPE   PO412260  13.638  14.927   5.604 -0.1208 -0.0794 -0.2535
  899YOPE   GL112261  13.974  14.776   5.909 -0.0476  0.0917  0.3153
  899YOPE   GL212262  14.136  14.904   6.153  0.0664  0.2567  0.2214
  899YOPE   C1A12263  14.224  14.400   6.002  0.0068  0.2084 -0.2828
  899YOPE   D2A12264  14.533  14.134   6.248 -0.0558 -0.2104 -0.0064
  899YOPE   C3A12265  14.526  14.035   6.696  0.3005 -0.0708  0.0899
  899YOPE   C4A12266  14.333  14.045   7.108  0.0549  0.1479  0.2857
  899YOPE   C1B12267  14.302  14.500   6.482  0.0938 -0.0794  0.4003
  899YOPE   C2B12268  14.309  14.571   6.867 -0.1381 -0.1427  0.2242
  899YOPE   D3B12269  14.400  14.517   7.296  0.3020 -0.2060 -0.0487
  899YOPE   C4B12270  14.449  14.805   7.766  0.2413  0.0199 -0.0528
  900YOPE   NH312271   8.844   2.402   5.667  0.3355  0.4457 -0.2521
  900YOPE   PO412272   9.195   2.421   5.536 -0.0539  0.0705 -0.1726
  900YOPE   GL112273   9.221   2.279   6.032 -0.0480 -0.0809  0.2951
  900YOPE   GL212274   8.897   2.542   6.108 -0.4292 -0.1683 -0.0797
  900YOPE   C1A12275   9.293   2.244   6.455  0.1820  0.2164  0.0251
  900YOPE   D2A12276   9.417   2.232   6.908 -0.0669  0.0920 -0.0471
  900YOPE   C3A12277   9.147   2.019   7.202  0.3799  0.0254 -0.0541
  900YOPE   C4A12278   8.881   2.066   7.586  0.3754  0.0246  0.0373
  900YOPE   C1B12279   8.886   2.568   6.420  0.0795  0.0831 -0.0704
  900YOPE   C2B12280   9.027   2.504   6.804  0.0414 -0.1316 -0.1603
  900YOPE   D3B12281   9.174   2.579   7.235 -0.0167 -0.2294 -0.0558
  900YOPE   C4B12282   9.081   2.503   7.586  0.0482  0.4371 -0.0125
  901YOPE   NH312283   3.670  16.181   5.940  0.1195  0.0720  0.1618
  901YOPE   PO412284   3.518  16.324   6.275 -0.1103  0.0413 -0.0816
  901YOPE   GL112285   3.637  16.089   6.727  0.0134 -0.3947 -0.3886
  901YOPE   GL212286   3.441  16.303   6.864  0.2029  0.2398 -0.3466
  901YOPE   C1A12287   3.748  15.945   7.083 -0.3352 -0.2064  0.0275
  901YOPE   D2A12288   3.800  16.188   7.546  0.1701  0.2320 -0.1333
  901YOPE   C3A12289   4.128  16.389   7.825 -0.4059  0.0140 -0.1377
  901YOPE   C4A12290   4.444  16.296   8.097 -0.1532 -0.2384  0.1986
  901YOPE   C1B12291   3.358  16.217   7.230 -0.3493  0.1030 -0.2439
  901YOPE   C2B12292   3.294  16.216   7.632 -0.1490  0.2609  0.3175
  901YOPE   D3B12293   2.956  15.904   7.846 -0.0519  0.0357  0.1840
  901YOPE   C4B12294   2.688  15.927   8.237 -0.3990  0.1055 -0.1320
  902YOPE   NH312295  10.137  10.588   5.164  0.1529 -0.2915 -0.0534
  902YOPE   PO412296   9.754  10.705   5.005  0.0111 -0.2058  0.0249
  902YOPE   GL112297   9.691  10.895   5.433 -0.1411 -0.0861  0.0276
  902YOPE   GL212298   9.655  11.273   5.510  0.0586  0.1024 -0.1594
  902YOPE   C1A12299   9.445  10.651   5.794  0.0225  0.3414 -0.1506
  902YOPE   D2A12300   9.183  10.616   6.172 -0.0564 -0.0987  0.0913
  902YOPE   C3A12301   8.921  10.392   6.321 -0.2853  0.3395  0.0055
  902YOPE   C4A12302   8.640  10.217   6.664  0.1448  0.2759 -0.2182
  902YOPE   C1B12303   9.588  11.154   5.930  0.2811  0.3199 -0.1854
  902YOPE   C2B12304   9.687  11.188   6.336 -0.1519  0.0717 -0.1434
  902YOPE   D3B12305   9.983  11.057   6.539  0.0255  0.0247  0.0987
  902YOPE   C4B12306   9.970  11.080   6.921  0.1376  0.2100  0.1009
  903YOPE   NH312307  10.568  15.567   6.294 -0.4127  0.1305  0.1441
  903YOPE   PO412308  10.959  15.321   6.104  0.0543 -0.3523 -0.2500
  903YOPE   GL112309  10.972  15.286   6.464 -0.0142  0.2310  0.0736
  903YOPE   GL212310  11.138  15.442   6.687 -0.2509 -0.0486  0.1031
  903YOPE   C1A12311  10.845  15.009   6.743 -0.0497 -0.0721  0.0312
  903YOPE   D2A12312  10.924  14.663   7.023 -0.0082 -0.0903  0.1645
  903YOPE   C3A12313  10.950  14.587   7.528  0.0453 -0.0706  0.1851
  903YOPE   C4A12314  10.786  14.833   7.792 -0.2659  0.3245 -0.0813
  903YOPE   C1B12315  10.999  15.528   7.074  0.3081 -0.0359 -0.0720
  903YOPE   C2B12316  11.007  15.614   7.481 -0.1552 -0.2628  0.0366
  903YOPE   D3B12317  11.096  15.542   7.883  0.0341  0.0511 -0.3919
  903YOPE   C4B12318  11.063  15.218   8.094 -0.0623  0.3679 -0.0783
  904YOPE   NH312319  16.335  12.807   5.755  0.1949  0.3036 -0.0610
  904YOPE   PO412320  15.971  13.103   5.765 -0.1878 -0.1162  0.0539
  904YOPE   GL112321  15.900  13.052   6.149 -0.0482 -0.0353 -0.1827
  904YOPE   GL212322  15.632  13.334   6.147  0.3316  0.2401 -0.2110
  904YOPE   C1A12323  16.023  13.084   6.609 -0.0873  0.0148  0.0215
  904YOPE   D2A12324  16.320  13.268   6.824  0.2782 -0.0183  0.2731
  904YOPE   C3A12325  16.238  13.118   7.164 -0.2747 -0.1113  0.0316
  904YOPE   C4A12326  16.482  13.037   7.588  0.1607 -0.1611  0.0297
  904YOPE   C1B12327  15.588  13.368   6.612 -0.0442  0.0303  0.1656
  904YOPE   C2B12328  15.605  13.213   7.059  0.1923  0.2250 -0.0536
  904YOPE   D3B12329  15.773  13.238   7.416  0.1057  0.2216  0.3571
  904YOPE   C4B12330  15.914  12.971   7.639  0.3396 -0.0893  0.0096
  905YOPE   NH312331   1.179  13.900   5.618  0.0732 -0.1241 -0.0891
  905YOPE   PO412332   0.920  14.099   5.928 -0.2347 -0.2199  0.0594
  905YOPE   GL112333   0.952  14.207   6.310 -0.4200  0.0131  0.1996
  905YOPE   GL212334   0.666  14.171   6.345  0.3055  0.3536 -0.0207
  905YOPE   C1A12335   0.863  14.063   6.815 -0.0783 -0.0173  0.1547
  905YOPE   D2A12336   0.925  13.905   7.196 -0.0796 -0.1513  0.0611
  905YOPE   C3A12337   1.114  14.105   7.506 -0.0552  0.2341 -0.0811
  905YOPE   C4A12338   1.069  14.451   7.747  0.0208 -0.2035  0.2461
  905YOPE   C1B12339   0.401  14.159   6.755  0.0716 -0.1734  0.0457
  905YOPE   C2B12340   0.456  13.992   7.190 -0.0510  0.1425 -0.1462
  905YOPE   D3B12341   0.483  13.829   7.656 -0.0828  0.0405 -0.1376
  905YOPE   C4B12342   0.148  13.830   7.951 -0.1645  0.3980 -0.2111
  906YOPE   NH312343  15.690   3.811   5.982  0.3342  0.1087  0.2234
  906YOPE   PO412344  16.005   4.132   5.797  0.2097 -0.0074 -0.0799
  906YOPE   GL112345  15.876   4.292   6.196  0.0589  0.2164 -0.0783
  906YOPE   GL212346  15.828   4.077   6.402  0.2406 -0.2608 -0.1069
  906YOPE   C1A12347  15.714   4.636   6.524  0.2507  0.0465  0.1270
  906YOPE   D2A12348  15.623   4.597   6.987 -0.0331 -0.0464  0.0580
  906YOPE   C3A12349  15.791   4.630   7.377 -0.0156 -0.1791 -0.0053
  906YOPE   C4A12350  15.976   4.520   7.819  0.0243 -0.4151  0.2672
  906YOPE   C1B12351  15.874   3.808   6.739  0.0581 -0.0627  0.1597
  906YOPE   C2B12352  16.005   3.689   7.079 -0.0904  0.0313 -0.0267
  906YOPE   D3B12353  16.159   3.697   7.573 -0.1345 -0.1676  0.0456
  906YOPE   C4B12354  16.187   3.997   7.917 -0.1625 -0.1611  0.0926
  907YOPE   NH312355   6.465   6.019   5.523  0.0773 -0.0086  0.0045
  907YOPE   PO412356   6.035   6.202   5.456  0.1519 -0.0761 -0.0012
  907YOPE   GL112357   5.803   6.319   5.825 -0.1126 -0.4349  0.2510
  907YOPE   GL212358   5.575   6.565   5.823 -0.1483 -0.0001 -0.0466
  907YOPE   C1A12359   5.820   6.135   6.262  0.0125 -0.1313  0.2206
  907YOPE   D2A12360   5.838   6.283   6.595  0.0204 -0.3029  0.0334
  907YOPE   C3A12361   5.971   6.046   6.860 -0.0833 -0.0017 -0.2589
  907YOPE   C4A12362   6.241   6.083   7.202  0.2811  0.1280  0.1068
  907YOPE   C1B12363   5.589   6.659   6.261  0.0782 -0.1354 -0.2910
  907YOPE   C2B12364   5.618   6.734   6.757  0.2504 -0.2322 -0.0950
  907YOPE   D3B12365   5.723   7.062   7.062 -0.1132 -0.1628 -0.1285
  907YOPE   C4B12366   6.000   7.239   7.400  0.1726 -0.0080 -0.1454
  908YOPE   NH312367   1.296   4.373   6.035 -0.2034 -0.2861 -0.2802
  908YOPE   PO412368   1.047   4.058   6.137 -0.1962 -0.3794 -0.1421
  908YOPE   GL112369   0.969   4.169   6.515  0.1471  0.0151 -0.0764
  908YOPE   GL212370   1.244   4.270   6.621 -0.0859  0.0981  0.2616
  908YOPE   C1A12371   0.955   4.026   6.995 -0.0025 -0.0457  0.0070
  908YOPE   D2A12372   0.964   3.796   7.434  0.0601 -0.1363 -0.1033
  908YOPE   C3A12373   0.808   3.914   7.818 -0.1741  0.1480 -0.0388
  908YOPE   C4A12374   0.433   4.100   7.941  0.2322 -0.1548 -0.2977
  908YOPE   C1B12375   1.437   4.242   6.911  0.1556 -0.2599  0.0498
  908YOPE   C2B12376   1.410   4.133   7.342  0.0298 -0.3958 -0.0889
  908YOPE   D3B12377   1.349   3.966   7.699  0.2643 -0.1504 -0.2441
  908YOPE   C4B12378   1.153   3.807   8.147  0.1911  0.0502  0.2440
  909YOPE   NH312379   8.925   1.535   5.418  0.1439 -0.2231 -0.0378
  909YOPE   PO412380   9.170   1.320   5.680 -0.1133 -0.0163 -0.0354
  909YOPE   GL112381   8.845   1.101   5.904  0.0642  0.0412 -0.1763
  909YOPE   GL212382   8.499   1.025   5.907 -0.3451 -0.1367 -0.2749
  909YOPE   C1A12383   8.885   1.112   6.351 -0.0366  0.1125 -0.3382
  909YOPE   D2A12384   8.991   1.193   6.778 -0.1215  0.1536 -0.1092
  909YOPE   C3A12385   8.714   1.129   7.167 -0.2550 -0.1055 -0.0511
  909YOPE   C4A12386   8.648   1.111   7.585  0.2052  0.1753 -0.0963
  909YOPE   C1B12387   8.412   1.045   6.388 -0.3011 -0.2195 -0.0486
  909YOPE   C2B12388   8.233   1.378   6.731 -0.2681 -0.0413  0.0704
  909YOPE   D3B12389   8.319   1.367   7.200 -0.1799  0.3301 -0.0849
  909YOPE   C4B12390   8.178   1.473   7.512  0.1349  0.2217  0.2851
  910YOPE   NH312391  11.490  10.126   5.963  0.0753  0.0468  0.0219
  910YOPE   PO412392  11.552  10.542   5.773  0.0864  0.1020  0.0704
  910YOPE   GL112393  11.120  10.568   5.937 -0.0710 -0.1646 -0.1617
  910YOPE   GL212394  11.169  10.407   6.234  0.1698  0.3324 -0.2683
  910YOPE   C1A12395  10.763  10.799   6.197  0.0218 -0.0332  0.0070
  910YOPE   D2A12396  10.427  10.910   6.411  0.1163 -0.2079  0.1240
  910YOPE   C3A12397  10.555  11.103   6.803  0.1438  0.1030  0.0976
  910YOPE   C4A12398  10.381  11.281   7.184  0.0600  0.0744  0.2307
  910YOPE   C1B12399  11.123  10.654   6.567  0.1790  0.1344 -0.1545
  910YOPE   C2B12400  10.986  10.879   6.917  0.1158 -0.1690  0.3104
  910YOPE   D3B12401  10.825  11.034   7.309 -0.0640 -0.1687  0.0084
  910YOPE   C4B12402  11.090  11.192   7.689  0.0069 -0.0961  0.2070
  911YOPE   NH312403  10.948   9.231   5.562 -0.0198  0.0938 -0.1068
  911YOPE   PO412404  10.560   9.099   5.569  0.0698 -0.1232  0.0593
  911YOPE   GL112405  10.707   9.052   5.926 -0.0600 -0.0290 -0.0703
  911YOPE   GL212406  10.704   8.762   5.954  0.0900  0.0406 -0.1941
  911YOPE   C1A12407  10.809   9.063   6.380 -0.1520 -0.1278 -0.2176
  911YOPE   D2A12408  10.571   9.093   6.710 -0.0980  0.0123 -0.0337
  911YOPE   C3A12409  10.646   9.212   7.085  0.0099  0.0357  0.0320
  911YOPE   C4A12410  10.768   9.179   7.491  0.1504 -0.3303  0.2492
  911YOPE   C1B12411  10.420   8.802   6.266  0.0479  0.1984 -0.0690
  911YOPE   C2B12412  10.104   8.959   6.615 -0.0095 -0.4345 -0.1182
  911YOPE   D3B12413  10.089   9.146   7.000  0.3780 -0.0807  0.0290
  911YOPE   C4B12414  10.112   9.469   7.289 -0.0803  0.0386  0.2984
  912YOPE   NH312415  16.884   9.350   5.933  0.1793  0.1201 -0.3017
  912YOPE   PO412416  16.537   9.591   5.864  0.0107 -0.1496  0.2680
  912YOPE   GL112417  16.678   9.712   6.207  0.1396  0.1639  0.1191
  912YOPE   GL212418  16.894   9.574   6.381 -0.0329  0.2577 -0.3764
  912YOPE   C1A12419  16.630  10.000   6.610  0.0337 -0.0173 -0.0099
  912YOPE   D2A12420  16.925  10.318   6.745 -0.1642 -0.0526 -0.2056
  912YOPE   C3A12421  17.103  10.433   7.116  0.0060 -0.1886 -0.0639
  912YOPE   C4A12422  17.006  10.581   7.434  0.0440 -0.3085 -0.1265
  912YOPE   C1B12423  17.075   9.851   6.642  0.3728  0.4360 -0.0733
  912YOPE   C2B12424  17.164   9.815   7.100 -0.0887 -0.3335  0.2512
  912YOPE   D3B12425  17.412   9.784   7.524  0.0748  0.0264 -0.4971
  912YOPE   C4B12426  17.450   9.692   8.031 -0.1012  0.0905  0.1189
  913YOPE   NH312427   2.040  11.042   5.631 -0.3842 -0.2771  0.2266
  913YOPE   PO412428   1.607  11.107   5.593  0.0528 -0.2585  0.1624
  913YOPE   GL112429   1.774  10.894   5.996 -0.0097 -0.2207 -0.4242
  913YOPE   GL212430   2.007  11.056   6.207 -0.2183 -0.0813 -0.0817
  913YOPE   C1A12431   1.660  10.790   6.442 -0.2767  0.3027 -0.0892
  913YOPE   D2A12432   1.715  10.862   6.853 -0.3127 -0.1584 -0.0839
  913YOPE   C3A12433   1.839  10.960   7.295  0.0158 -0.4540  0.1335
  913YOPE   C4A12434   1.904  10.771   7.598 -0.1551  0.0706 -0.0541
  913YOPE   C1B12435   1.966  11.251   6.589 -0.1951 -0.2545 -0.0937
  913YOPE   C2B12436   1.996  11.354   7.043 -0.1785  0.0039  0.3017
  913YOPE   D3B12437   2.110  11.418   7.512  0.1735  0.1075  0.0195
  913YOPE   C4B12438   2.177  11.127   7.759 -0.2288 -0.2628 -0.1987
  914YOPE   NH312439   7.897   3.596   5.878  0.0574 -0.0506 -0.0542
  914YOPE   PO412440   8.376   3.810   5.787  0.1945  0.1682 -0.1495
  914YOPE   GL112441   8.532   3.554   6.159  0.0501 -0.0531 -0.0217
  914YOPE   GL212442   8.225   3.514   6.268  0.1721  0.0274  0.1389
  914YOPE   C1A12443   8.685   3.418   6.596  0.0896 -0.0159 -0.0176
  914YOPE   D2A12444   8.809   3.416   7.036  0.2482 -0.1198  0.2652
  914YOPE   C3A12445   8.668   3.419   7.401  0.3441 -0.2647 -0.0142
  914YOPE   C4A12446   8.696   3.492   7.864  0.1447  0.0590  0.0081
  914YOPE   C1B12447   8.004   3.429   6.622  0.2485  0.0742 -0.1294
  914YOPE   C2B12448   7.935   3.404   7.099  0.0496 -0.2644 -0.1303
  914YOPE   D3B12449   7.912   3.432   7.517 -0.0504  0.0062 -0.2733
  914YOPE   C4B12450   7.819   3.188   7.869 -0.1912  0.0118  0.3384
  915YOPE   NH312451   2.745   3.267   5.982  0.2721 -0.1934 -0.1040
  915YOPE   PO412452   3.191   3.093   5.914 -0.2224 -0.1397  0.0584
  915YOPE   GL112453   3.041   2.905   6.219 -0.3000 -0.1184 -0.0041
  915YOPE   GL212454   2.710   2.881   6.288  0.0629  0.0551  0.0157
  915YOPE   C1A12455   3.251   2.629   6.567  0.2399 -0.1241  0.0946
  915YOPE   D2A12456   3.282   2.444   6.945 -0.3040 -0.0553  0.0178
  915YOPE   C3A12457   3.082   2.567   7.336  0.0433  0.1259 -0.0299
  915YOPE   C4A12458   2.870   2.879   7.580 -0.3263 -0.2413  0.1002
  915YOPE   C1B12459   2.383   2.782   6.615  0.2711 -0.2846  0.0531
  915YOPE   C2B12460   2.194   2.847   7.032  0.3532 -0.1324 -0.2161
  915YOPE   D3B12461   2.322   2.861   7.425 -0.1835  0.2494 -0.3098
  915YOPE   C4B12462   2.419   2.868   7.876  0.0569 -0.0405 -0.4394
  916YOPE   NH312463   7.587   7.850   5.143  0.0086  0.0001  0.1638
  916YOPE   PO412464   7.560   8.261   5.512  0.1342  0.1281 -0.2453
  916YOPE   GL112465   7.773   8.391   5.942 -0.0975  0.1513 -0.0563
  916YOPE   GL212466   8.052   8.153   6.034 -0.1578  0.0244  0.1650
  916YOPE   C1A12467   7.741   8.649   6.352 -0.1155 -0.1753 -0.0441
  916YOPE   D2A12468   7.776   8.737   6.852 -0.1873  0.2184 -0.3572
  916YOPE   C3A12469   7.688   9.037   7.151  0.0632 -0.0845 -0.3164
  916YOPE   C4A12470   7.768   9.340   7.512  0.2489  0.1560  0.0846
  916YOPE   C1B12471   8.128   8.367   6.409 -0.3471  0.0766 -0.0611
  916YOPE   C2B12472   8.096   8.411   6.768  0.0522 -0.1446 -0.0523
  916YOPE   D3B12473   7.895   8.087   7.077  0.3042  0.2467 -0.0359
  916YOPE   C4B12474   7.916   8.103   7.567 -0.1418 -0.2269  0.2184
  917YOPE   NH312475  10.525   5.411   6.217 -0.1698  0.2436 -0.0527
  917YOPE   PO412476  10.930   5.349   6.132  0.1205 -0.1709 -0.2259
  917YOPE   GL112477  10.991   5.066   6.496  0.1284  0.2241  0.2909
  917YOPE   GL212478  10.643   5.095   6.597 -0.0150  0.0700  0.0901
  917YOPE   C1A12479  11.057   4.869   6.787  0.1944  0.2390  0.2193
  917YOPE   D2A12480  11.141   4.811   7.219 -0.2286  0.0874  0.0914
  917YOPE   C3A12481  10.931   4.837   7.599  0.1799 -0.2999  0.0992
  917YOPE   C4A12482  10.840   5.015   7.920 -0.1164 -0.4051  0.4643
  917YOPE   C1B12483  10.610   4.986   7.016 -0.2649 -0.2100 -0.3826
  917YOPE   C2B12484  10.506   5.049   7.434  0.1687 -0.0508  0.1470
  917YOPE   D3B12485  10.162   5.175   7.651 -0.0631  0.2898 -0.5166
  917YOPE   C4B12486   9.972   5.524   7.796 -0.1445 -0.0946  0.2055
  918YOPE   NH312487   0.424  13.952   5.955 -0.1128  0.0533  0.1106
  918YOPE   PO412488   0.052  14.205   5.941 -0.2222 -0.0178 -0.0127
  918YOPE   GL112489   0.122  14.152   6.341  0.0239 -0.0493 -0.3709
  918YOPE   GL212490  -0.063  14.227   6.569 -0.1308 -0.1198 -0.1598
  918YOPE   C1A12491   0.108  13.763   6.639 -0.0357 -0.2007  0.1848
  918YOPE   D2A12492   0.119  13.686   6.998  0.2783 -0.0160  0.2408
  918YOPE   C3A12493   0.273  13.502   7.283 -0.2104 -0.0178 -0.1416
  918YOPE   C4A12494   0.575  13.347   7.596 -0.2456  0.3224 -0.3122
  918YOPE   C1B12495  -0.078  14.133   7.033  0.2214 -0.1109 -0.2371
  918YOPE   C2B12496   0.044  13.987   7.427 -0.1408  0.0105  0.1249
  918YOPE   D3B12497  -0.079  13.637   7.534  0.3301  0.0115  0.1342
  918YOPE   C4B12498   0.115  13.295   7.779  0.1019  0.0130 -0.0796
  919YOPE   NH312499   2.090   9.888   6.101  0.0838  0.0322  0.0848
  919YOPE   PO412500   2.425  10.170   5.888  0.1954  0.0020 -0.4806
  919YOPE   GL112501   2.648  10.472   6.143 -0.1466 -0.2383  0.1596
  919YOPE   GL212502   3.029  10.427   6.170 -0.2759 -0.0952 -0.0309
  919YOPE   C1A12503   2.851  10.931   6.213 -0.2439 -0.0112  0.2041
  919YOPE   D2A12504   2.811  11.351   6.208  0.0363 -0.0627 -0.1250
  919YOPE   C3A12505   2.918  11.475   6.627 -0.0364 -0.1642  0.2019
  919YOPE   C4A12506   2.788  11.625   6.973 -0.2515 -0.0465 -0.1013
  919YOPE   C1B12507   3.096  10.545   6.659  0.1957  0.2323  0.0024
  919YOPE   C2B12508   3.019  10.619   7.070 -0.0226 -0.2266 -0.0500
  919YOPE   D3B12509   2.798  10.820   7.439  0.0407  0.1253  0.1252
  919YOPE   C4B12510   2.515  10.739   7.843  0.0286 -0.0452  0.0915
  920YOPE   NH312511  15.214   5.260   5.995 -0.0856  0.1389 -0.1714
  920YOPE   PO412512  14.834   5.143   5.906  0.0363  0.1765 -0.0487
  920YOPE   GL112513  14.528   5.147   6.351  0.0563 -0.2201 -0.2033
  920YOPE   GL212514  14.411   4.904   6.465 -0.1087 -0.0041  0.2452
  920YOPE   C1A12515  14.435   5.303   6.717 -0.2653  0.1095  0.1706
  920YOPE   D2A12516  14.515   5.595   7.008 -0.1238  0.2270  0.2467
  920YOPE   C3A12517  14.625   5.428   7.360 -0.0601 -0.1300 -0.0490
  920YOPE   C4A12518  14.671   5.357   7.871  0.1585 -0.0723  0.2449
  920YOPE   C1B12519  14.425   4.585   6.823  0.1133 -0.0614 -0.0185
  920YOPE   C2B12520  14.501   4.099   6.987  0.1197 -0.0535 -0.0899
  920YOPE   D3B12521  14.302   3.867   7.171  0.0209  0.1579  0.0229
  920YOPE   C4B12522  14.069   3.607   7.046 -0.3027  0.0504 -0.0177
  921YOPE   NH312523  16.132  17.867   6.246 -0.0320  0.1714  0.1251
  921YOPE   PO412524  16.480  18.056   6.416 -0.0100  0.1683 -0.3171
  921YOPE   GL112525  16.559  18.124   6.864  0.1529 -0.0350  0.0095
  921YOPE   GL212526  16.776  18.363   6.854 -0.0026  0.3374  0.0004
  921YOPE   C1A12527  16.439  18.044   7.243  0.0007 -0.0472 -0.1310
  921YOPE   D2A12528  16.348  18.282   7.688 -0.2411 -0.1455  0.0526
  921YOPE   C3A12529  16.614  18.234   7.977  0.0646  0.3191 -0.1277
  921YOPE   C4A12530  16.625  18.160   8.419 -0.0180 -0.1072 -0.2053
  921YOPE   C1B12531  16.845  18.389   7.281 -0.1491  0.1998  0.5008
  921YOPE   C2B12532  16.728  18.629   7.684 -0.2254 -0.3885 -0.0164
  921YOPE   D3B12533  16.711  19.083   7.824 -0.0835  0.0990  0.0581
  921YOPE   C4B12534  16.505  19.386   7.678  0.1279  0.1619 -0.2031
  922YOPE   NH312535  16.576   7.741   5.986  0.1666  0.3146 -0.1933
  922YOPE   PO412536  16.852   7.583   5.740  0.0374  0.1783  0.0020
  922YOPE   GL112537  16.730   7.311   6.133 -0.1638  0.0225  0.1899
  922YOPE   GL212538  16.790   7.513   6.379 -0.1494 -0.1866 -0.0419
  922YOPE   C1A12539  16.679   7.074   6.511  0.0819 -0.0709  0.2810
  922YOPE   D2A12540  16.750   7.185   6.939 -0.2829 -0.2779  0.0730
  922YOPE   C3A12541  16.742   7.222   7.445  0.0791  0.2813  0.2070
  922YOPE   C4A12542  16.988   7.422   7.831 -0.0833 -0.0939  0.0117
  922YOPE   C1B12543  17.090   7.626   6.704  0.1224  0.2223 -0.0305
  922YOPE   C2B12544  17.053   7.892   7.107  0.0669  0.0523 -0.1045
  922YOPE   D3B12545  17.061   8.111   7.465 -0.2194 -0.1354  0.1950
  922YOPE   C4B12546  17.005   8.437   7.825 -0.0427 -0.0240  0.1885
  923YOPE   NH312547   7.680   8.776   5.613  0.0127  0.0995 -0.0033
  923YOPE   PO412548   7.577   9.229   5.492 -0.2787  0.0817  0.1453
  923YOPE   GL112549   7.672   9.348   5.909  0.0531  0.2809 -0.1312
  923YOPE   GL212550   7.481   9.636   5.941 -0.2107  0.1285 -0.1151
  923YOPE   C1A12551   7.850   9.440   6.297  0.2794 -0.0751 -0.1440
  923YOPE   D2A12552   8.034   9.236   6.689 -0.1938  0.0683  0.1898
  923YOPE   C3A12553   8.081   9.420   7.095  0.2225 -0.1064 -0.1131
  923YOPE   C4A12554   8.293   9.535   7.515  0.1647 -0.0256  0.6067
  923YOPE   C1B12555   7.294   9.575   6.334  0.2503  0.2773  0.0927
  923YOPE   C2B12556   7.377   9.595   6.791  0.0828  0.0430  0.2092
  923YOPE   D3B12557   7.403   9.430   7.204 -0.0134  0.2169  0.0630
  923YOPE   C4B12558   7.201   9.453   7.597  0.1194  0.0025  0.1833
  924YOPE   NH312559   5.866   3.178   5.694  0.1808 -0.1702  0.1757
  924YOPE   PO412560   5.794   3.664   5.448 -0.0644  0.1646  0.1301
  924YOPE   GL112561   5.809   3.712   5.898 -0.0985 -0.1994 -0.1033
  924YOPE   GL212562   5.520   3.507   6.122 -0.0973  0.1895 -0.0496
  924YOPE   C1A12563   5.968   3.754   6.293 -0.1423 -0.1680  0.2026
  924YOPE   D2A12564   6.053   3.742   6.670  0.2154  0.3063 -0.2492
  924YOPE   C3A12565   5.761   3.730   7.062  0.1820 -0.1965  0.1947
  924YOPE   C4A12566   5.848   3.536   7.479  0.1258  0.0803  0.1683
  924YOPE   C1B12567   5.649   3.320   6.482  0.4871 -0.0992 -0.1728
  924YOPE   C2B12568   5.857   3.258   6.862 -0.2798 -0.0420  0.0842
  924YOPE   D3B12569   5.926   3.077   7.172  0.0900 -0.1984 -0.2331
  924YOPE   C4B12570   5.597   2.878   7.374  0.0307 -0.0754  0.1988
  925YOPE   NH312571  12.984   8.005   6.198 -0.3154  0.0264 -0.2001
  925YOPE   PO412572  12.696   8.030   6.376  0.3364 -0.3046  0.1310
  925YOPE   GL112573  12.957   7.698   6.592  0.1987 -0.0160  0.0541
  925YOPE   GL212574  13.285   7.780   6.742  0.3444  0.1364 -0.1692
  925YOPE   C1A12575  12.932   7.359   6.909 -0.1193 -0.0101  0.1300
  925YOPE   D2A12576  13.070   7.088   7.253 -0.0946  0.1169  0.0477
  925YOPE   C3A12577  13.006   7.266   7.684 -0.0497  0.2243 -0.1442
  925YOPE   C4A12578  12.750   7.469   8.016  0.2585 -0.4323 -0.1184
  925YOPE   C1B12579  13.131   7.766   7.134  0.2217 -0.0843 -0.0380
  925YOPE   C2B12580  12.986   7.771   7.490  0.0660 -0.3995 -0.1605
  925YOPE   D3B12581  12.606   7.894   7.686  0.0116 -0.1711 -0.3129
  925YOPE   C4B12582  12.441   7.924   8.044 -0.0198  0.1158  0.2219
  926YOPE   NH312583   9.130  15.685   6.007  0.1295 -0.0141 -0.1937
  926YOPE   PO412584   8.764  15.845   5.747 -0.1801  0.1854  0.0505
  926YOPE   GL112585   8.638  15.958   6.211 -0.0920 -0.0237 -0.0864
  926YOPE   GL212586   8.851  16.167   6.465  0.0221  0.0111  0.2213
  926YOPE   C1A12587   8.411  15.893   6.667  0.1480 -0.2034 -0.4000
  926YOPE   D2A12588   8.641  16.086   7.037  0.1678  0.0972  0.1606
  926YOPE   C3A12589   8.618  16.105   7.452 -0.1072  0.2451 -0.3568
  926YOPE   C4A12590   8.715  16.200   7.892 -0.0456 -0.0687  0.0634
  926YOPE   C1B12591   9.169  15.997   6.749 -0.0097  0.2153  0.2670
  926YOPE   C2B12592   8.995  15.716   7.113  0.0096  0.1225  0.2676
  926YOPE   D3B12593   8.790  15.629   7.428 -0.0801 -0.0214 -0.4780
  926YOPE   C4B12594   8.712  15.709   7.829 -0.3414  0.0176 -0.0346
  927YOPE   NH312595   2.783   8.831   5.298  0.0842 -0.0766  0.0996
  927YOPE   PO412596   3.139   9.067   5.517  0.3488  0.5881 -0.2971
  927YOPE   GL112597   3.320   8.962   5.957 -0.0674 -0.2281  0.3405
  927YOPE   GL212598   3.148   9.148   6.139  0.0470 -0.1776 -0.0039
  927YOPE   C1A12599   3.446   8.815   6.303  0.0839 -0.0563 -0.1188
  927YOPE   D2A12600   3.619   8.825   6.724  0.1057 -0.0125  0.3068
  927YOPE   C3A12601   3.746   8.645   7.131  0.2140  0.0626 -0.0786
  927YOPE   C4A12602   4.176   8.698   7.336 -0.1307  0.0843 -0.1163
  927YOPE   C1B12603   3.140   9.180   6.536 -0.0047  0.1562  0.0274
  927YOPE   C2B12604   3.069   9.293   6.996 -0.3382  0.3273 -0.0866
  927YOPE   D3B12605   3.137   9.373   7.448  0.1294 -0.0070 -0.0854
  927YOPE   C4B12606   2.987   9.197   7.804  0.0909  0.0161  0.0655
  928YOPE   NH312607   0.911  12.088   6.028 -0.0442 -0.1601  0.2696
  928YOPE   PO412608   1.054  11.637   6.072 -0.0317  0.0098 -0.1465
  928YOPE   GL112609   0.923  11.595   6.432  0.2743  0.0850 -0.1939
  928YOPE   GL212610   0.951  11.279   6.467  0.1552  0.0454  0.0419
  928YOPE   C1A12611   0.990  11.582   6.892 -0.2268  0.0448  0.0086
  928YOPE   D2A12612   1.038  11.393   7.271 -0.0994  0.1799 -0.1307
  928YOPE   C3A12613   0.984  11.191   7.657  0.0890 -0.3080 -0.2935
  928YOPE   C4A12614   1.023  11.028   8.080 -0.2809 -0.2565  0.0952
  928YOPE   C1B12615   0.806  11.150   6.898  0.1017 -0.1263  0.2036
  928YOPE   C2B12616   0.860  10.815   7.188 -0.1033  0.1906  0.0232
  928YOPE   D3B12617   0.522  10.678   7.524 -0.0466 -0.1163  0.0719
  928YOPE   C4B12618   0.262  10.585   7.735 -0.1540 -0.2265 -0.0918
  929YOPE   NH312619   0.690  17.702   6.270  0.2259 -0.3233  0.3488
  929YOPE   PO412620   1.020  17.528   6.005  0.4199  0.0674 -0.1101
  929YOPE   GL112621   1.145  17.613   6.435  0.1070  0.0979 -0.1261
  929YOPE   GL212622   0.984  17.628   6.675 -0.1602 -0.0702 -0.0472
  929YOPE   C1A12623   1.456  17.716   6.779 -0.0479  0.0331 -0.0199
  929YOPE   D2A12624   1.712  17.611   7.057 -0.0969  0.2827  0.0880
  929YOPE   C3A12625   1.617  17.828   7.492  0.1431 -0.0122 -0.1279
  929YOPE   C4A12626   1.663  18.026   7.795 -0.0593  0.0219  0.2128
  929YOPE   C1B12627   1.034  17.654   7.088 -0.0848 -0.5633 -0.1017
  929YOPE   C2B12628   1.002  17.634   7.521 -0.0518  0.1106  0.0081
  929YOPE   D3B12629   1.010  17.896   7.882 -0.0105 -0.3136  0.3230
  929YOPE   C4B12630   1.343  18.008   8.136 -0.0009 -0.1688  0.1513
  930YOPE   NH312631   7.661  15.650   5.408 -0.0267  0.0771  0.0510
  930YOPE   PO412632   7.891  15.800   5.641  0.0774  0.1154  0.0007
  930YOPE   GL112633   7.823  15.691   6.101 -0.2060  0.0063 -0.1679
  930YOPE   GL212634   8.115  15.549   6.325  0.1666  0.2977 -0.0125
  930YOPE   C1A12635   7.492  15.678   6.372 -0.3150 -0.1087  0.1033
  930YOPE   D2A12636   7.400  15.817   6.695 -0.1100  0.2756 -0.2100
  930YOPE   C3A12637   7.514  15.672   7.032 -0.2725 -0.2252 -0.0194
  930YOPE   C4A12638   7.466  15.361   7.302  0.0615  0.1300 -0.1936
  930YOPE   C1B12639   8.012  15.591   6.776  0.1246 -0.1442  0.1073
  930YOPE   C2B12640   7.933  15.452   7.170 -0.2126 -0.1982 -0.0175
  930YOPE   D3B12641   7.736  15.740   7.461 -0.0411  0.1054 -0.3542
  930YOPE   C4B12642   7.505  15.980   7.663  0.0332  0.0718 -0.2631
  931YOPE   NH312643   0.364   0.858   6.183 -0.0196 -0.0309  0.0061
  931YOPE   PO412644   0.506   0.580   6.446 -0.2034 -0.1964 -0.0653
  931YOPE   GL112645   0.311   0.643   6.792  0.1549  0.0127 -0.0036
  931YOPE   GL212646   0.021   0.809   6.678 -0.1589 -0.0455 -0.2928
  931YOPE   C1A12647   0.317   0.476   7.212  0.2635 -0.0177 -0.1008
  931YOPE   D2A12648   0.155   0.422   7.627  0.1261 -0.1768  0.2769
  931YOPE   C3A12649   0.457   0.406   7.939  0.0141 -0.1302 -0.0789
  931YOPE   C4A12650   0.609   0.299   8.380  0.0957  0.0827  0.1397
  931YOPE   C1B12651  -0.071   0.774   7.135  0.3025  0.1610 -0.0522
  931YOPE   C2B12652  -0.261   0.688   7.629  0.0111 -0.0834  0.1595
  931YOPE   D3B12653  -0.414   0.604   8.102 -0.0592 -0.2280  0.2549
  931YOPE   C4B12654  -0.642   0.378   8.459  0.0149  0.0376  0.0619
  932YOPE   NH312655   1.287   5.850   5.661 -0.1587  0.2811 -0.0006
  932YOPE   PO412656   1.376   5.378   5.711 -0.2385 -0.2281  0.1025
  932YOPE   GL112657   1.602   5.424   6.040  0.0034 -0.0012 -0.0375
  932YOPE   GL212658   1.960   5.555   5.892 -0.2548  0.0710 -0.3612
  932YOPE   C1A12659   1.724   5.104   6.330  0.0300 -0.3723 -0.1478
  932YOPE   D2A12660   1.930   5.081   6.781 -0.1664  0.0310  0.1823
  932YOPE   C3A12661   2.022   4.982   7.290 -0.2154  0.1456  0.2001
  932YOPE   C4A12662   2.155   5.009   7.758 -0.0009 -0.2658  0.0260
  932YOPE   C1B12663   1.993   5.515   6.404 -0.0422 -0.0171  0.1286
  932YOPE   C2B12664   1.920   5.787   6.810 -0.2614  0.0022  0.3360
  932YOPE   D3B12665   1.714   5.822   7.261 -0.0809 -0.0751 -0.2817
  932YOPE   C4B12666   1.848   5.909   7.654 -0.0762 -0.1081 -0.2253
  933YOPE   NH312667  17.100   5.058   5.701  0.1826 -0.1014  0.2565
  933YOPE   PO412668  17.363   5.340   5.571 -0.0789 -0.1614  0.1307
  933YOPE   GL112669  17.567   5.500   5.934 -0.3087 -0.2711 -0.0746
  933YOPE   GL212670  17.366   5.620   6.181  0.0584  0.0303 -0.0422
  933YOPE   C1A12671  17.629   5.160   6.149 -0.1764 -0.0250 -0.0284
  933YOPE   D2A12672  17.752   4.975   6.590  0.0999 -0.0299 -0.1620
  933YOPE   C3A12673  17.752   5.269   6.853 -0.0661 -0.4637  0.1221
  933YOPE   C4A12674  17.668   5.569   7.181  0.1622  0.1594  0.3073
  933YOPE   C1B12675  17.435   5.827   6.651  0.1002  0.3007  0.0663
  933YOPE   C2B12676  17.647   6.009   6.972 -0.0719 -0.0217 -0.2174
  933YOPE   D3B12677  17.570   6.048   7.449  0.1376 -0.0584  0.2142
  933YOPE   C4B12678  17.371   6.163   7.876 -0.0179 -0.0111 -0.0100
  934YOPE   NH312679  15.470  18.196   6.199 -0.1400 -0.0161  0.3816
  934YOPE   PO412680  15.164  18.457   5.990  0.2494 -0.2194  0.3393
  934YOPE   GL112681  15.004  18.179   6.292 -0.1028  0.0702  0.3983
  934YOPE   GL212682  15.076  17.857   6.334  0.1132  0.1140  0.2126
  934YOPE   C1A12683  14.536  18.265   6.569  0.2134 -0.2724 -0.0207
  934YOPE   D2A12684  14.367  18.410   6.948 -0.0406  0.0397 -0.0965
  934YOPE   C3A12685  14.692  18.635   7.119 -0.1142 -0.2798  0.2589
  934YOPE   C4A12686  15.006  18.629   7.406 -0.1206  0.2845  0.1310
  934YOPE   C1B12687  14.857  17.921   6.767  0.2459  0.2995 -0.2415
  934YOPE   C2B12688  14.560  17.980   7.019  0.0925  0.0364  0.0666
  934YOPE   D3B12689  14.537  18.142   7.471 -0.1227  0.2116  0.1264
  934YOPE   C4B12690  14.791  18.406   7.824  0.1587 -0.0338  0.2557
  935YOPE   NH312691   4.902  16.802   5.729  0.0178 -0.2215  0.1563
  935YOPE   PO412692   4.578  16.527   5.879 -0.0583 -0.3391  0.0268
  935YOPE   GL112693   4.352  16.628   6.220 -0.1998 -0.1093  0.4902
  935YOPE   GL212694   4.087  16.403   6.296  0.2937 -0.2767 -0.2646
  935YOPE   C1A12695   4.378  16.945   6.601  0.0875  0.1680  0.3121
  935YOPE   D2A12696   4.091  17.211   6.823  0.0445  0.3269 -0.1820
  935YOPE   C3A12697   3.899  16.914   7.007 -0.0657 -0.3115  0.0235
  935YOPE   C4A12698   3.965  16.686   7.457 -0.0425  0.0264 -0.5542
  935YOPE   C1B12699   3.929  16.562   6.676  0.3047  0.0364  0.1646
  935YOPE   C2B12700   3.893  16.426   7.026  0.1060  0.3095 -0.1502
  935YOPE   D3B12701   4.233  16.209   7.277  0.1907 -0.0811 -0.0905
  935YOPE   C4B12702   4.406  16.039   7.587 -0.3060  0.2788  0.0591
  936YOPE   NH312703  10.210   4.894   5.764 -0.1753  0.2716 -0.0316
  936YOPE   PO412704  10.492   4.924   6.107 -0.1550  0.0012 -0.1044
  936YOPE   GL112705  10.354   4.670   6.377  0.2055  0.0045  0.1038
  936YOPE   GL212706  10.067   4.449   6.320 -0.0169 -0.1808  0.1644
  936YOPE   C1A12707  10.416   4.560   6.816  0.1443  0.0741 -0.0034
  936YOPE   D2A12708  10.509   4.539   7.230 -0.2116 -0.0788  0.2549
  936YOPE   C3A12709  10.480   4.331   7.671  0.0656  0.0738  0.0779
  936YOPE   C4A12710  10.658   4.525   8.063 -0.0782 -0.0415  0.0731
  936YOPE   C1B12711   9.780   4.440   6.751 -0.1073  0.0998  0.1592
  936YOPE   C2B12712   9.655   4.630   7.071  0.1359 -0.1648 -0.0760
  936YOPE   D3B12713   9.606   4.571   7.451  0.3078  0.0466  0.2400
  936YOPE   C4B12714   9.536   4.545   7.896  0.1039 -0.1144 -0.4951
  937YOPE   NH312715  17.815  15.384   5.376  0.0811  0.0266  0.1289
  937YOPE   PO412716  18.100  15.119   5.767  0.1347 -0.1411 -0.0198
  937YOPE   GL112717  18.248  14.998   6.229  0.1469 -0.0037 -0.1909
  937YOPE   GL212718  18.091  14.647   6.338 -0.1283 -0.2357  0.0367
  937YOPE   C1A12719  18.024  15.134   6.614  0.3626  0.1361  0.0615
  937YOPE   D2A12720  17.625  15.147   6.858 -0.2227 -0.1636  0.1131
  937YOPE   C3A12721  17.575  15.140   7.323 -0.2963 -0.0718 -0.0033
  937YOPE   C4A12722  17.579  15.055   7.697 -0.1039  0.3034 -0.0137
  937YOPE   C1B12723  17.934  14.605   6.746  0.0411  0.2962 -0.1133
  937YOPE   C2B12724  17.925  14.565   7.136  0.0048 -0.1598  0.1581
  937YOPE   D3B12725  17.840  14.275   7.535 -0.0846  0.0354  0.0336
  937YOPE   C4B12726  17.955  14.174   7.966  0.2443  0.2308  0.0026
  938YOPE   NH312727  13.867  16.273   5.913 -0.3593  0.1155  0.1307
  938YOPE   PO412728  13.994  15.841   5.975 -0.0687  0.0180  0.0781
  938YOPE   GL112729  13.810  15.808   6.288 -0.1772  0.2637  0.1556
  938YOPE   GL212730  14.037  16.075   6.429  0.1604 -0.1644 -0.1896
  938YOPE   C1A12731  13.661  15.689   6.686  0.1066  0.0618  0.2876
  938YOPE   D2A12732  13.596  15.649   7.159 -0.1448 -0.1680 -0.1346
  938YOPE   C3A12733  13.841  15.424   7.482  0.3802  0.0303  0.2967
  938YOPE   C4A12734  13.709  15.251   7.922 -0.0098  0.0328 -0.2205
  938YOPE   C1B12735  14.261  15.975   6.778 -0.1006  0.3725 -0.3749
  938YOPE   C2B12736  14.513  16.189   7.113 -0.2162  0.0054 -0.0736
  938YOPE   D3B12737  14.512  16.051   7.513 -0.1113  0.1339  0.1553
  938YOPE   C4B12738  14.610  16.067   7.898  0.0253  0.0493 -0.1620
  939YOPE   NH312739   5.245  15.766   5.648  0.3475 -0.3374 -0.2732
  939YOPE   PO412740   4.886  15.672   5.838  0.0181 -0.1118 -0.1814
  939YOPE   GL112741   4.995  15.386   6.159  0.2925  0.0327  0.1431
  939YOPE   GL212742   4.873  15.091   6.214  0.2368 -0.1136 -0.2316
  939YOPE   C1A12743   5.269  15.385   6.482 -0.1283 -0.1091  0.1732
  939YOPE   D2A12744   5.495  15.712   6.734 -0.2148 -0.1022  0.0905
  939YOPE   C3A12745   5.445  15.847   7.169  0.0763  0.1608  0.3453
  939YOPE   C4A12746   5.435  15.928   7.614  0.1781 -0.3057 -0.0463
  939YOPE   C1B12747   4.848  15.231   6.678 -0.0921  0.0102 -0.3099
  939YOPE   C2B12748   4.632  15.487   6.963  0.0786  0.1233  0.2079
  939YOPE   D3B12749   4.391  15.526   7.426  0.0698 -0.1162 -0.0706
  939YOPE   C4B12750   4.034  15.751   7.595 -0.0048  0.0017  0.0609
  940YOPE   NH312751   9.566   2.120   5.698 -0.1785 -0.2620 -0.0119
  940YOPE   PO412752   9.092   1.951   5.677 -0.2334 -0.3488  0.0190
  940YOPE   GL112753   8.853   1.719   5.944  0.1037  0.0556  0.0709
  940YOPE   GL212754   8.839   1.930   6.139 -0.3083 -0.0215 -0.1529
  940YOPE   C1A12755   8.756   1.578   6.419  0.2630  0.0250 -0.1126
  940YOPE   D2A12756   8.620   1.594   6.919 -0.2205 -0.0564 -0.0333
  940YOPE   C3A12757   8.696   1.646   7.423 -0.2389 -0.0228 -0.1983
  940YOPE   C4A12758   8.961   1.466   7.759 -0.2131 -0.0695  0.2811
  940YOPE   C1B12759   8.801   2.073   6.641  0.0822 -0.0208  0.0325
  940YOPE   C2B12760   8.696   2.183   7.117  0.1862  0.0433  0.1894
  940YOPE   D3B12761   8.617   2.436   7.277 -0.0128  0.2199  0.0604
  940YOPE   C4B12762   8.581   2.598   7.612  0.0100  0.3735  0.0258
  941YOPE   NH312763   0.271   4.212   5.331 -0.4380  0.0182 -0.3658
  941YOPE   PO412764   0.106   4.022   5.676  0.1020  0.0568 -0.1805
  941YOPE   GL112765  -0.047   3.935   6.120 -0.0651 -0.1312  0.2092
  941YOPE   GL212766   0.186   3.698   6.177 -0.1245 -0.0106  0.2186
  941YOPE   C1A12767   0.009   4.007   6.609  0.3281  0.0359  0.5218
  941YOPE   D2A12768   0.087   4.143   6.958  0.1998 -0.1364  0.0451
  941YOPE   C3A12769  -0.257   4.234   7.291  0.0275  0.2896  0.0986
  941YOPE   C4A12770  -0.252   4.625   7.652 -0.2134  0.1389 -0.0932
  941YOPE   C1B12771   0.351   4.140   6.275 -0.1611 -0.1048 -0.0626
  941YOPE   C2B12772   0.523   4.337   6.620 -0.1806  0.2969 -0.2920
  941YOPE   D3B12773   0.544   4.347   7.115 -0.1555  0.1159 -0.0022
  941YOPE   C4B12774   0.665   4.183   7.462 -0.3917  0.0064 -0.4362
  942POPC   NC312775   5.916   1.280   5.390 -0.0584  0.0660 -0.1238
  942POPC   PO412776   5.367   1.428   5.490  0.0379 -0.2064 -0.0594
  942POPC   GL112777   5.343   1.382   5.942  0.3025 -0.1097 -0.0379
  942POPC   GL212778   5.599   1.504   5.989  0.0290  0.2304  0.2629
  942POPC   C1A12779   5.251   1.494   6.398 -0.2725  0.1512 -0.3191
  942POPC   D2A12780   5.319   1.843   6.636 -0.0214  0.0944  0.1720
  942POPC   C3A12781   5.123   2.148   6.725  0.0245 -0.0982 -0.1155
  942POPC   C4A12782   4.728   2.362   6.908  0.0394 -0.1202 -0.1361
  942POPC   C1B12783   5.659   1.244   6.428  0.0134 -0.0442 -0.0078
  942POPC   C2B12784   5.642   1.353   6.853  0.0184 -0.0414  0.0020
  942POPC   C3B12785   5.724   1.229   7.249  0.1260 -0.1971  0.0179
  942POPC   C4B12786   5.881   1.115   7.659 -0.4275 -0.1133  0.0759
  943POPC   NC312787   8.186   1.143   5.531  0.0199  0.1753 -0.3086
  943POPC   PO412788   7.982   0.849   5.770  0.0993 -0.1946  0.2292
  943POPC   GL112789   7.776   0.869   6.170  0.0105  0.2099 -0.0236
  943POPC   GL212790   7.494   0.969   6.163  0.0537  0.0211  0.0770
  943POPC   C1A12791   7.677   0.776   6.606  0.0689 -0.0310 -0.0332
  943POPC   D2A12792   7.332   0.808   7.043  0.1168 -0.2301  0.1463
  943POPC   C3A12793   7.321   0.505   7.312 -0.1584  0.0693  0.1351
  943POPC   C4A12794   7.397   0.179   7.603 -0.3592 -0.2555  0.1049
  943POPC   C1B12795   7.730   1.256   6.505  0.1615 -0.2184  0.0277
  943POPC   C2B12796   7.821   1.207   6.936 -0.1534  0.3262 -0.0548
  943POPC   C3B12797   7.727   1.120   7.389 -0.0318 -0.0237 -0.1413
  943POPC   C4B12798   7.906   1.097   7.727  0.1954 -0.4241  0.1931
  944POPC   NC312799   0.521   7.323   5.507 -0.3500 -0.1381  0.0154
  944POPC   PO412800   0.133   7.224   5.412  0.0080 -0.1119 -0.0058
  944POPC   GL112801   0.022   7.207   5.850 -0.1354 -0.2248  0.0646
  944POPC   GL212802   0.224   7.284   6.087 -0.1349 -0.1977 -0.3639
  944POPC   C1A12803  -0.308   7.176   6.261  0.2265 -0.1616 -0.1792
  944POPC   D2A12804  -0.563   7.288   6.657 -0.2208  0.1455  0.1991
  944POPC   C3A12805  -0.387   7.517   7.057  0.0865 -0.0321  0.4066
  944POPC   C4A12806  -0.458   7.461   7.498  0.0379  0.1147  0.1457
  944POPC   C1B12807   0.300   7.292   6.504  0.1691 -0.2822 -0.0191
  944POPC   C2B12808   0.265   7.523   6.957 -0.1913 -0.2677  0.1574
  944POPC   C3B12809   0.038   7.486   7.282 -0.0178  0.1157  0.0079
  944POPC   C4B12810   0.050   7.305   7.632 -0.1089  0.2841 -0.0856
  945POPC   NC312811  14.834   3.240   5.933  0.1692  0.0321  0.4282
  945POPC   PO412812  14.838   2.971   6.157 -0.2192 -0.0889  0.1671
  945POPC   GL112813  14.868   3.094   6.550  0.0720 -0.2320 -0.0439
  945POPC   GL212814  14.920   2.809   6.826  0.0153  0.1703  0.0621
  945POPC   C1A12815  14.914   3.291   6.861  0.2718  0.0365  0.4776
  945POPC   D2A12816  14.778   3.345   7.283  0.1046 -0.0613 -0.1560
  945POPC   C3A12817  14.688   3.713   7.491 -0.2407 -0.0962  0.1885
  945POPC   C4A12818  14.375   3.845   7.813  0.0338 -0.0376  0.3182
  945POPC   C1B12819  14.708   2.843   7.238 -0.1517 -0.1152  0.1460
  945POPC   C2B12820  14.591   2.934   7.586  0.2676 -0.1078 -0.3251
  945POPC   C3B12821  14.790   2.777   8.060  0.1879  0.0030  0.0815
  945POPC   C4B12822  14.908   2.742   8.560 -0.1319  0.3583 -0.1172
  946POPC   NC312823  15.178   2.710   6.326 -0.0152 -0.2103 -0.0200
  946POPC   PO412824  15.528   2.409   6.133  0.1235 -0.0447 -0.0219
  946POPC   GL112825  15.448   2.230   6.482 -0.2179  0.0656 -0.2904
  946POPC   GL212826  15.174   2.387   6.712 -0.4898  0.0115  0.0585
  946POPC   C1A12827  15.670   2.341   6.878 -0.2991 -0.1369 -0.2106
  946POPC   D2A12828  15.841   2.106   7.130 -0.3091 -0.0467  0.2966
  946POPC   C3A12829  16.047   2.167   7.585 -0.1355 -0.1866  0.2478
  946POPC   C4A12830  16.153   2.406   7.934 -0.3051  0.1850 -0.0891
  946POPC   C1B12831  15.068   2.352   7.156  0.1330 -0.0002 -0.1352
  946POPC   C2B12832  15.399   2.379   7.374  0.0466  0.2101  0.3619
  946POPC   C3B12833  15.535   2.003   7.505  0.3969 -0.0262 -0.1106
  946POPC   C4B12834  15.649   1.607   7.503 -0.4183 -0.1853 -0.3363
  947POPC   NC312835  18.163   6.838   5.223 -0.0089 -0.0076  0.2002
  947POPC   PO412836  18.141   6.759   5.598  0.2054 -0.2092 -0.0974
  947POPC   GL112837  18.367   6.697   6.047 -0.1558  0.3320 -0.0111
  947POPC   GL212838  18.581   6.452   6.065 -0.0155  0.3725 -0.0760
  947POPC   C1A12839  18.276   6.879   6.510 -0.0760  0.0248 -0.1677
  947POPC   D2A12840  18.184   7.189   6.823  0.1741  0.1987 -0.0960
  947POPC   C3A12841  18.052   7.069   7.263  0.0340 -0.0133  0.3432
  947POPC   C4A12842  17.961   6.826   7.550 -0.1634 -0.2930 -0.3032
  947POPC   C1B12843  18.709   6.657   6.477 -0.0581 -0.2569  0.1664
  947POPC   C2B12844  18.628   6.848   6.842  0.1823  0.0783 -0.1506
  947POPC   C3B12845  18.636   7.081   7.234 -0.0667 -0.1183 -0.1331
  947POPC   C4B12846  18.809   7.473   7.426  0.2313  0.1411  0.0365
  948POPC   NC312847  16.253  12.011   5.181  0.2409 -0.1395 -0.2237
  948POPC   PO412848  16.300  12.281   5.675  0.1056  0.2034  0.0109
  948POPC   GL112849  16.440  12.375   6.055 -0.2393  0.1139  0.0372
  948POPC   GL212850  16.161  12.529   6.094  0.0502  0.1027 -0.0637
  948POPC   C1A12851  16.645  12.377   6.453  0.1109  0.1363 -0.0002
  948POPC   D2A12852  17.007  12.511   6.689 -0.0461  0.3023  0.0144
  948POPC   C3A12853  17.021  12.626   7.101 -0.0843  0.0955 -0.3920
  948POPC   C4A12854  16.788  12.446   7.448 -0.2023 -0.2288  0.0326
  948POPC   C1B12855  16.348  12.738   6.438  0.1401 -0.2799 -0.1268
  948POPC   C2B12856  16.549  12.744   6.883  0.2254  0.4225 -0.1075
  948POPC   C3B12857  16.360  12.635   7.278 -0.0536  0.4865  0.1014
  948POPC   C4B12858  16.239  12.452   7.678  0.1016  0.5267  0.3047
  949POPC   NC312859  16.795   4.184   5.408 -0.0268 -0.1846 -0.0251
  949POPC   PO412860  16.920   4.606   5.561 -0.0830 -0.1228  0.1909
  949POPC   GL112861  17.061   4.502   5.899 -0.1532  0.0132 -0.2597
  949POPC   GL212862  17.319   4.724   6.032 -0.1088  0.2703  0.1742
  949POPC   C1A12863  16.861   4.562   6.225 -0.2306 -0.0378 -0.3599
  949POPC   D2A12864  16.591   4.878   6.416 -0.1552  0.0024  0.2776
  949POPC   C3A12865  16.183   4.951   6.478  0.0100 -0.0944 -0.3311
  949POPC   C4A12866  16.026   4.899   6.848  0.3256  0.0756  0.1576
  949POPC   C1B12867  17.239   4.766   6.431  0.0074 -0.0024  0.2313
  949POPC   C2B12868  16.951   4.832   6.800 -0.0879 -0.0746  0.0059
  949POPC   C3B12869  16.548   4.917   6.925  0.0178 -0.2193  0.0742
  949POPC   C4B12870  16.336   4.839   7.227  0.0146  0.0536 -0.3468
  950POPC   NC312871  16.046   7.624   5.866 -0.1839 -0.1406  0.1568
  950POPC   PO412872  16.259   7.289   5.963  0.1017  0.2296 -0.4451
  950POPC   GL112873  16.261   7.436   6.363 -0.0623  0.1052 -0.3098
  950POPC   GL212874  15.937   7.589   6.388 -0.0687 -0.0029  0.0635
  950POPC   C1A12875  16.269   7.309   6.835  0.2172 -0.1452 -0.1554
  950POPC   D2A12876  16.335   6.909   7.175  0.0899 -0.2170 -0.3363
  950POPC   C3A12877  16.332   7.167   7.657  0.2062 -0.3612 -0.0136
  950POPC   C4A12878  16.522   7.479   7.915 -0.0470 -0.1031 -0.0502
  950POPC   C1B12879  15.934   7.717   6.815  0.1625  0.2438 -0.0740
  950POPC   C2B12880  15.815   7.762   7.311  0.0775 -0.0360  0.2456
  950POPC   C3B12881  16.063   7.691   7.657 -0.0802  0.2158 -0.1952
  950POPC   C4B12882  16.139   7.822   8.102  0.2034  0.1501  0.1922
  951POPC   NC312883   5.622   6.399   5.308  0.1193  0.3212  0.0651
  951POPC   PO412884   5.565   5.964   5.417  0.1727 -0.3040  0.0136
  951POPC   GL112885   5.434   5.588   5.758  0.0872 -0.1542 -0.1235
  951POPC   GL212886   5.696   5.649   5.958 -0.1183 -0.2768  0.1264
  951POPC   C1A12887   5.177   5.749   6.037 -0.0336  0.1866 -0.0312
  951POPC   D2A12888   4.833   5.836   6.383 -0.2637 -0.0012  0.2856
  951POPC   C3A12889   4.783   5.819   6.830  0.1447 -0.0939  0.0843
  951POPC   C4A12890   4.731   5.602   7.161 -0.0601  0.0347 -0.2425
  951POPC   C1B12891   5.663   5.681   6.335  0.0054  0.1476  0.1828
  951POPC   C2B12892   5.614   5.736   6.723 -0.0373  0.1643 -0.1234
  951POPC   C3B12893   5.704   5.851   7.251 -0.5787 -0.0817 -0.3684
  951POPC   C4B12894   5.932   6.070   7.556 -0.2190  0.1068  0.1754
  952POPC   NC312895   2.542   2.675   5.772  0.2349 -0.0616  0.3066
  952POPC   PO412896   2.853   2.612   5.888 -0.0011  0.2364 -0.3930
  952POPC   GL112897   2.932   2.379   6.277  0.1483  0.0072 -0.1203
  952POPC   GL212898   2.721   2.431   6.523  0.1615 -0.0346 -0.1927
  952POPC   C1A12899   3.022   2.087   6.706 -0.0736  0.0978 -0.2475
  952POPC   D2A12900   2.966   2.113   7.161  0.3676 -0.2576 -0.0376
  952POPC   C3A12901   3.084   2.056   7.578 -0.1315  0.2114 -0.0254
  952POPC   C4A12902   3.487   1.813   7.644  0.0135 -0.2293  0.1389
  952POPC   C1B12903   2.825   2.572   6.789 -0.1282 -0.0373  0.2892
  952POPC   C2B12904   2.656   2.800   7.069  0.1011  0.2050  0.0398
  952POPC   C3B12905   2.659   3.246   7.243  0.0467 -0.0318  0.0641
  952POPC   C4B12906   2.739   3.659   6.887  0.1407 -0.1161  0.3293
  953POPC   NC312907  11.921  11.757   5.605  0.0761  0.0929  0.1664
  953POPC   PO412908  11.854  11.265   5.536  0.0424 -0.1833 -0.3804
  953POPC   GL112909  11.852  11.457   5.992  0.1797  0.1672  0.1556
  953POPC   GL212910  11.653  11.696   6.065  0.0324  0.0833  0.2461
  953POPC   C1A12911  12.012  11.531   6.386  0.0108  0.0028  0.1036
  953POPC   D2A12912  12.148  11.733   6.639 -0.0411  0.0050  0.1517
  953POPC   C3A12913  12.286  11.559   6.909 -0.1282  0.2646  0.1365
  953POPC   C4A12914  12.544  11.245   6.898 -0.2562  0.0534  0.2137
  953POPC   C1B12915  11.630  11.872   6.462 -0.1964 -0.0564  0.0168
  953POPC   C2B12916  11.408  12.082   6.815  0.3577  0.4481 -0.0897
  953POPC   C3B12917  11.331  11.823   7.270 -0.2050  0.1606 -0.0564
  953POPC   C4B12918  11.451  11.405   7.400 -0.0572  0.1028  0.1903
  954POPC   NC312919   2.931   9.432   5.789 -0.1756  0.1076  0.3539
  954POPC   PO412920   2.776   9.046   5.863  0.1705 -0.0038 -0.1047
  954POPC   GL112921   2.661   9.210   6.312  0.0091 -0.5029 -0.0815
  954POPC   GL212922   2.821   9.515   6.353 -0.0932 -0.0619 -0.0900
  954POPC   C1A12923   2.681   9.125   6.730  0.4254  0.1341 -0.2145
  954POPC   D2A12924   2.612   8.897   7.094  0.2408 -0.2375  0.5066
  954POPC   C3A12925   2.677   9.152   7.456  0.0570  0.0300 -0.0410
  954POPC   C4A12926   2.440   9.262   7.793  0.1477  0.0087  0.0917
  954POPC   C1B12927   2.758   9.715   6.856 -0.0702  0.1463 -0.1277
  954POPC   C2B12928   2.749   9.740   7.199 -0.1933  0.2618 -0.0773
  954POPC   C3B12929   2.777   9.626   7.655 -0.1505  0.0268 -0.1878
  954POPC   C4B12930   2.451   9.901   7.892  0.0469 -0.1644  0.1435
  955POPC   NC312931  10.902  10.594   5.499  0.2079  0.3350 -0.3487
  955POPC   PO412932  10.484  10.615   5.500  0.0802 -0.1502  0.0397
  955POPC   GL112933  10.057  10.620   5.664  0.1317 -0.2349  0.1788
  955POPC   GL212934  10.004  10.370   5.874 -0.0254 -0.0604  0.0180
  955POPC   C1A12935  10.022  10.817   6.070  0.1511 -0.2041 -0.1920
  955POPC   D2A12936  10.069  10.541   6.495  0.3087 -0.1747 -0.2491
  955POPC   C3A12937  10.267  10.677   6.863  0.1230  0.1295  0.0169
  955POPC   C4A12938  10.545  10.566   7.079 -0.0117 -0.0199 -0.0902
  955POPC   C1B12939   9.543  10.079   5.886 -0.3065 -0.0196 -0.2064
  955POPC   C2B12940   9.289  10.062   6.233  0.0890 -0.3348  0.1226
  955POPC   C3B12941   9.067   9.933   6.635 -0.1055 -0.0792 -0.0050
  955POPC   C4B12942   9.004  10.175   7.026  0.0434 -0.3300  0.0063
  956POPC   NC312943   5.780   4.155   5.582 -0.3560  0.0879  0.3991
  956POPC   PO412944   5.504   4.298   5.329  0.2466  0.2805  0.1206
  956POPC   GL112945   5.352   4.090   5.789 -0.0330  0.2431  0.3004
  956POPC   GL212946   5.176   3.727   5.761 -0.1118 -0.0952 -0.2196
  956POPC   C1A12947   5.383   3.978   6.173 -0.0337 -0.1494  0.0142
  956POPC   D2A12948   5.498   3.909   6.528  0.0413  0.0685 -0.1809
  956POPC   C3A12949   5.493   4.164   6.932  0.0013  0.2213 -0.2697
  956POPC   C4A12950   5.368   3.878   7.300  0.0236  0.3340  0.1466
  956POPC   C1B12951   4.895   3.773   6.212  0.0267 -0.5214  0.0114
  956POPC   C2B12952   4.933   3.824   6.621 -0.4158  0.0342 -0.1760
  956POPC   C3B12953   4.993   4.024   6.955  0.1641  0.0094  0.2943
  956POPC   C4B12954   4.940   4.132   7.363 -0.0722  0.2324  0.0981
  957POPC   NC312955   2.588  14.659   5.955 -0.0168 -0.1417  0.2129
  957POPC   PO412956   2.125  14.872   6.014  0.0113 -0.2172  0.2130
  957POPC   GL112957   1.875  14.575   6.292  0.2672  0.1384  0.0651
  957POPC   GL212958   1.657  14.890   6.377  0.2068  0.2237  0.3881
  957POPC   C1A12959   1.863  14.588   6.725 -0.0220 -0.0163  0.1637
  957POPC   D2A12960   1.743  14.765   7.057 -0.1100  0.1660  0.0298
  957POPC   C3A12961   1.886  14.990   7.473 -0.0204  0.2571 -0.0315
  957POPC   C4A12962   2.240  15.071   7.692 -0.1326 -0.0177  0.0780
  957POPC   C1B12963   1.525  15.105   6.657 -0.1977 -0.2062  0.2642
  957POPC   C2B12964   1.467  15.205   7.165 -0.0116  0.0214  0.0368
  957POPC   C3B12965   1.484  15.218   7.544 -0.0254 -0.1514 -0.4079
  957POPC   C4B12966   1.671  15.219   7.966 -0.1457 -0.1007  0.0808
  958POPC   NC312967  10.266  17.366   5.946  0.1803  0.1404 -0.0677
  958POPC   PO412968  10.385  17.724   6.178  0.0174 -0.2111  0.0464
  958POPC   GL112969  10.344  17.442   6.508 -0.1002 -0.2856  0.3116
  958POPC   GL212970  10.612  17.224   6.727 -0.0610  0.2144 -0.0944
  958POPC   C1A12971  10.228  17.473   6.955  0.1457  0.3087  0.0750
  958POPC   D2A12972  10.111  17.721   7.366 -0.0882  0.0458 -0.1615
  958POPC   C3A12973  10.374  17.783   7.768 -0.4138 -0.1992  0.0921
  958POPC   C4A12974  10.751  17.767   7.853 -0.4550  0.0394 -0.4978
  958POPC   C1B12975  10.515  17.099   7.198  0.0744  0.1411  0.1514
  958POPC   C2B12976  10.269  17.266   7.435 -0.1766  0.0168  0.3765
  958POPC   C3B12977  10.093  17.284   7.786 -0.3169  0.0610  0.1260
  958POPC   C4B12978  10.199  17.317   8.157  0.0362  0.2301 -0.3917
  959POPC   NC312979  12.243  14.140   5.714 -0.0635  0.1608 -0.1754
  959POPC   PO412980  12.521  14.411   5.968  0.0808 -0.1678 -0.1483
  959POPC   GL112981  12.216  14.558   6.330  0.1521  0.2898  0.0873
  959POPC   GL212982  12.202  14.838   6.386  0.1245 -0.0363 -0.0479
  959POPC   C1A12983  12.236  14.316   6.785 -0.1360  0.1264  0.0126
  959POPC   D2A12984  12.194  14.320   7.198 -0.2523 -0.0801 -0.1429
  959POPC   C3A12985  12.395  14.094   7.425 -0.1116  0.0751 -0.3390
  959POPC   C4A12986  12.643  13.895   7.803  0.0310 -0.1821  0.0090
  959POPC   C1B12987  12.399  15.169   6.449 -0.0673  0.1163  0.0422
  959POPC   C2B12988  12.461  15.374   6.720  0.1203 -0.0655  0.0520
  959POPC   C3B12989  12.516  15.305   7.104  0.1236  0.1422  0.0258
  959POPC   C4B12990  12.357  15.306   7.490  0.0015 -0.2073 -0.2411
  960POPC   NC312991  13.740   0.171   6.094  0.2265 -0.0003 -0.1072
  960POPC   PO412992  13.683   0.493   6.215 -0.2623  0.1326  0.0472
  960POPC   GL112993  13.581   0.567   6.580  0.3696  0.1282  0.1459
  960POPC   GL212994  13.709   0.811   6.714 -0.1159  0.0149 -0.1231
  960POPC   C1A12995  13.769   0.333   6.901 -0.0126  0.0409 -0.1471
  960POPC   D2A12996  13.964   0.234   7.350 -0.0548  0.0967 -0.0845
  960POPC   C3A12997  14.372   0.342   7.429  0.0914  0.4563 -0.1665
  960POPC   C4A12998  14.614   0.556   7.690 -0.0112 -0.4335 -0.0555
  960POPC   C1B12999  13.781   0.747   7.147  0.0830  0.0015  0.1776
  960POPC   C2B13000  14.168   0.872   7.489  0.0925  0.1367 -0.1496
  960POPC   C3B13001  14.493   1.034   7.829  0.2672 -0.0905 -0.1633
  960POPC   C4B13002  14.933   0.964   7.858  0.1437  0.0591 -0.0053
  961POPC   NC313003   4.123  16.350   5.798  0.0958  0.0154  0.0645
  961POPC   PO413004   4.049  16.034   5.565 -0.1258  0.2173  0.2535
  961POPC   GL113005   4.168  15.950   6.084 -0.0222 -0.3796 -0.0522
  961POPC   GL213006   4.436  15.664   6.098  0.2276  0.1653  0.1833
  961POPC   C1A13007   4.197  15.960   6.524  0.1142  0.0084  0.4730
  961POPC   D2A13008   4.292  15.820   6.915 -0.1343  0.0369  0.1549
  961POPC   C3A13009   4.707  15.963   7.170  0.2880  0.0046  0.1924
  961POPC   C4A13010   4.838  15.831   7.516 -0.2212 -0.1056 -0.0833
  961POPC   C1B13011   4.594  15.644   6.447 -0.0756 -0.0284 -0.3028
  961POPC   C2B13012   4.952  15.718   6.570  0.0245  0.0807  0.0166
  961POPC   C3B13013   5.060  15.606   6.948  0.0286  0.2601  0.0684
  961POPC   C4B13014   5.198  15.466   7.454  0.1251  0.2610  0.0025
  962POPC   NC313015   2.324  15.406   5.834  0.0405  0.1388  0.0728
  962POPC   PO413016   2.663  15.708   5.892  0.2724  0.3593  0.2240
  962POPC   GL113017   2.782  15.505   6.321  0.1066  0.0545 -0.1193
  962POPC   GL213018   3.044  15.644   6.424  0.0393 -0.3260  0.0331
  962POPC   C1A13019   2.531  15.598   6.619  0.0773  0.0165 -0.2080
  962POPC   D2A13020   2.515  15.631   7.030 -0.1362 -0.0170  0.1021
  962POPC   C3A13021   2.168  15.908   7.229 -0.0234  0.1985  0.1699
  962POPC   C4A13022   1.788  15.850   7.012 -0.0445 -0.1787  0.1618
  962POPC   C1B13023   3.379  15.658   6.753  0.0183  0.0562 -0.2612
  962POPC   C2B13024   3.398  15.595   7.159 -0.1779 -0.2423 -0.1529
  962POPC   C3B13025   3.470  15.730   7.637 -0.3962  0.1056  0.2565
  962POPC   C4B13026   3.697  15.756   8.035 -0.1361  0.0725 -0.1284
  963POPC   NC313027  11.842   5.594   6.035 -0.1828  0.3865 -0.3157
  963POPC   PO413028  12.316   5.638   5.903  0.0078  0.0311  0.2501
  963POPC   GL113029  12.389   5.569   6.397  0.0035  0.3711  0.0160
  963POPC   GL213030  12.343   5.697   6.746  0.0238 -0.2043 -0.2472
  963POPC   C1A13031  12.761   5.625   6.534  0.0743 -0.0615 -0.0751
  963POPC   D2A13032  13.030   5.310   6.558 -0.0418  0.0978  0.0240
  963POPC   C3A13033  13.188   5.023   6.899  0.1011 -0.0214  0.2387
  963POPC   C4A13034  13.422   4.580   6.941 -0.0303 -0.1393 -0.0159
  963POPC   C1B13035  12.399   5.695   7.163 -0.0848 -0.1045 -0.1460
  963POPC   C2B13036  12.582   5.468   7.517  0.1304 -0.0289  0.1514
  963POPC   C3B13037  12.915   5.487   7.849 -0.0450  0.0550  0.2101
  963POPC   C4B13038  13.132   5.271   8.193  0.1597 -0.3915 -0.1260
  964POPC   NC313039  13.837   1.782   6.492  0.1007 -0.0850  0.2300
  964POPC   PO413040  13.576   1.390   6.609  0.0986  0.0273  0.0403
  964POPC   GL113041  13.446   1.221   7.007 -0.1199  0.0249  0.0874
  964POPC   GL213042  13.164   1.324   6.979 -0.2238  0.1506  0.0009
  964POPC   C1A13043  13.601   1.066   7.461  0.1148  0.1838  0.2331
  964POPC   D2A13044  13.711   1.044   7.711 -0.0999 -0.0230  0.2120
  964POPC   C3A13045  13.571   0.784   8.145 -0.3111 -0.2585 -0.1596
  964POPC   C4A13046  13.438   0.541   8.543  0.0315 -0.3068 -0.1163
  964POPC   C1B13047  13.059   1.099   7.371 -0.1673  0.0774 -0.0297
  964POPC   C2B13048  13.204   1.013   7.797  0.0947  0.0261  0.1017
  964POPC   C3B13049  13.432   1.270   8.081  0.0735  0.0650 -0.1640
  964POPC   C4B13050  13.255   1.744   8.176 -0.0965 -0.1680 -0.2466
  965POPC   NC313051  10.974   0.970   5.789  0.0806  0.0173  0.1996
  965POPC   PO413052  11.353   0.780   6.152 -0.2470 -0.0362  0.0690
  965POPC   GL113053  11.266   0.852   6.511  0.0391  0.0078 -0.1611
  965POPC   GL213054  11.189   1.152   6.496 -0.2334 -0.1781  0.2194
  965POPC   C1A13055  11.139   0.835   6.934 -0.1939 -0.4550  0.2191
  965POPC   D2A13056  11.046   0.706   7.276  0.0796 -0.2283 -0.0963
  965POPC   C3A13057  10.747   0.749   7.606 -0.1658  0.2316  0.2154
  965POPC   C4A13058  10.641   1.021   7.861  0.3051  0.0476 -0.0438
  965POPC   C1B13059  11.109   1.341   6.884  0.1633  0.0660  0.3213
  965POPC   C2B13060  11.022   1.299   7.337  0.0858 -0.4118  0.2489
  965POPC   C3B13061  11.181   1.583   7.584  0.0128  0.4181  0.0348
  965POPC   C4B13062  11.270   1.653   8.095  0.0683  0.1901 -0.0087
  966POPC   NC313063  14.248   0.645   5.596  0.1213 -0.5002  0.0515
  966POPC   PO413064  14.613   0.398   5.697 -0.1375  0.3092  0.1902
  966POPC   GL113065  14.702   0.357   6.143 -0.0362 -0.1909  0.0748
  966POPC   GL213066  14.947   0.376   6.415 -0.0203 -0.1118  0.2228
  966POPC   C1A13067  14.568   0.466   6.665 -0.2112 -0.1590 -0.0711
  966POPC   D2A13068  14.217   0.601   6.939 -0.2561 -0.0114 -0.2982
  966POPC   C3A13069  14.188   1.023   6.942  0.1501 -0.1465  0.0202
  966POPC   C4A13070  14.481   1.414   7.019  0.1660  0.0775 -0.1338
  966POPC   C1B13071  14.999   0.076   6.824 -0.1995  0.1773  0.2336
  966POPC   C2B13072  14.981  -0.080   7.164  0.0554  0.0310 -0.0405
  966POPC   C3B13073  15.178  -0.178   7.549 -0.0114  0.1059  0.0155
  966POPC   C4B13074  15.614  -0.367   7.678  0.1368  0.2186 -0.1166
  967POPC   NC313075   0.260   8.947   5.383 -0.0054  0.0687  0.2688
  967POPC   PO413076  -0.182   8.947   5.470  0.3019  0.2306  0.3237
  967POPC   GL113077   0.021   9.117   5.810  0.2954  0.3209  0.2919
  967POPC   GL213078  -0.223   8.784   6.000  0.1495 -0.4110  0.2798
  967POPC   C1A13079   0.124   9.245   6.137 -0.2194 -0.1315 -0.0492
  967POPC   D2A13080   0.423   9.222   6.512  0.0735 -0.0678  0.0599
  967POPC   C3A13081   0.198   9.186   6.848 -0.0606 -0.0513  0.0656
  967POPC   C4A13082   0.200   8.787   7.163 -0.0114  0.1251  0.2752
  967POPC   C1B13083  -0.437   8.571   6.333  0.1180 -0.1227 -0.2951
  967POPC   C2B13084  -0.566   8.404   6.753 -0.0733  0.0573  0.0815
  967POPC   C3B13085  -0.352   8.337   7.062 -0.0748 -0.2255 -0.0534
  967POPC   C4B13086   0.097   8.334   7.233  0.1090  0.1863  0.0089
  968POPC   NC313087  15.610  13.500   5.665 -0.2387  0.0730  0.3626
  968POPC   PO413088  15.951  13.954   5.746  0.1559 -0.0592  0.4252
  968POPC   GL113089  16.061  13.807   6.029 -0.1255 -0.1862 -0.1466
  968POPC   GL213090  16.084  13.565   6.129  0.0288 -0.4259  0.0996
  968POPC   C1A13091  16.378  13.925   6.398  0.0296  0.0253  0.2046
  968POPC   D2A13092  16.835  14.011   6.647  0.0710  0.2463  0.1231
  968POPC   C3A13093  16.955  13.985   7.020 -0.1638 -0.1082  0.1174
  968POPC   C4A13094  16.942  13.895   7.350  0.1260 -0.1295  0.0337
  968POPC   C1B13095  15.989  13.646   6.581 -0.3001  0.1602  0.0093
  968POPC   C2B13096  16.022  13.603   7.001  0.0921  0.0430 -0.0306
  968POPC   C3B13097  16.101  13.617   7.487  0.1752 -0.2300 -0.1859
  968POPC   C4B13098  15.997  13.837   7.950  0.0767  0.3537  0.1176
  969POPC   NC313099   1.666   1.846   6.146  0.1383 -0.0528  0.1568
  969POPC   PO413100   1.230   1.694   6.312  0.2030  0.1999  0.6100
  969POPC   GL113101   1.105   1.566   6.688 -0.3288 -0.4170  0.0951
  969POPC   GL213102   0.951   1.767   6.680  0.1113 -0.1037 -0.4648
  969POPC   C1A13103   1.019   1.549   7.197 -0.1383  0.1197  0.0464
  969POPC   D2A13104   0.977   1.593   7.651  0.2328  0.1517 -0.0262
  969POPC   C3A13105   1.276   1.574   7.823  0.0564  0.3772 -0.1034
  969POPC   C4A13106   1.562   1.845   8.029 -0.1914  0.0328 -0.2755
  969POPC   C1B13107   0.971   2.063   7.077 -0.1266 -0.0636  0.0685
  969POPC   C2B13108   1.204   1.998   7.458  0.2075 -0.2231 -0.1197
  969POPC   C3B13109   1.157   2.151   7.938 -0.0309  0.1933 -0.3114
  969POPC   C4B13110   0.923   2.444   8.095 -0.4844 -0.2320 -0.2878
  970POPC   NC313111  10.853   7.847   5.829  0.0099  0.0463  0.0771
  970POPC   PO413112  10.627   8.087   5.525 -0.0434  0.0793  0.1951
  970POPC   GL113113  10.456   8.294   5.874  0.0595 -0.2977 -0.1300
  970POPC   GL213114  10.685   8.242   6.116  0.0926  0.0156  0.1340
  970POPC   C1A13115  10.197   8.385   6.189 -0.1124 -0.1121  0.0295
  970POPC   D2A13116  10.047   8.455   6.547  0.0932 -0.0057 -0.3157
  970POPC   C3A13117  10.131   8.251   6.970  0.0742  0.2065  0.1081
  970POPC   C4A13118  10.175   8.431   7.343 -0.2015  0.1563  0.2238
  970POPC   C1B13119  10.665   8.079   6.485 -0.1254  0.2699 -0.1506
  970POPC   C2B13120  10.548   7.965   6.970  0.2066  0.2036 -0.2615
  970POPC   C3B13121  10.418   7.918   7.319 -0.1850 -0.0211  0.2419
  970POPC   C4B13122  10.186   7.986   7.693 -0.2661  0.0993 -0.0257
  971POPC   NC313123   7.312   2.138   5.505 -0.1506  0.0159  0.5314
  971POPC   PO413124   6.983   1.992   5.766  0.0950  0.0463 -0.0158
  971POPC   GL113125   6.863   2.135   6.239 -0.0756  0.0847 -0.0450
  971POPC   GL213126   6.738   2.311   6.282 -0.1193  0.1073  0.1623
  971POPC   C1A13127   6.719   2.104   6.748  0.1529 -0.1092  0.0647
  971POPC   D2A13128   6.789   2.138   7.102  0.0677  0.1152  0.0619
  971POPC   C3A13129   6.590   2.155   7.400  0.2221  0.1620  0.2193
  971POPC   C4A13130   6.765   2.060   7.819 -0.2247 -0.2305  0.0762
  971POPC   C1B13131   6.624   2.629   6.586 -0.3004 -0.1497  0.2289
  971POPC   C2B13132   6.633   2.568   6.994 -0.1755  0.0143 -0.1252
  971POPC   C3B13133   6.725   2.627   7.423 -0.3468 -0.0855  0.1759
  971POPC   C4B13134   6.514   2.500   7.854  0.0801 -0.1502  0.0162
  972POPC   NC313135  17.974  17.794   6.373 -0.2584 -0.1090 -0.0994
  972POPC   PO413136  18.462  17.723   6.313  0.0451  0.0151 -0.1630
  972POPC   GL113137  18.379  17.623   6.682 -0.1329 -0.1660  0.1215
  972POPC   GL213138  18.251  17.987   6.795  0.2857  0.0335 -0.0503
  972POPC   C1A13139  18.286  17.632   7.117  0.4576  0.1727  0.1199
  972POPC   D2A13140  18.006  17.812   7.420 -0.1991 -0.2528  0.2405
  972POPC   C3A13141  18.029  17.906   7.841  0.0162 -0.3657  0.0110
  972POPC   C4A13142  17.777  17.708   8.215 -0.0345  0.0175  0.1364
  972POPC   C1B13143  18.357  18.127   7.144 -0.1329  0.0848 -0.0307
  972POPC   C2B13144  18.346  18.192   7.579  0.1367  0.1727  0.0529
  972POPC   C3B13145  18.530  18.164   8.012  0.0350 -0.1066  0.1906
  972POPC   C4B13146  18.495  18.281   8.380  0.0355 -0.1926 -0.0478
  973POPC   NC313147   0.711  16.360   6.190 -0.0053 -0.1181 -0.0920
  973POPC   PO413148   0.251  16.347   6.239 -0.0242  0.0449 -0.2928
  973POPC   GL113149   0.427  16.154   6.585 -0.1140 -0.3410 -0.2575
  973POPC   GL213150   0.446  15.910   6.448 -0.2309 -0.2090 -0.1834
  973POPC   C1A13151   0.473  16.178   7.051 -0.0699 -0.2517  0.3054
  973POPC   D2A13152   0.794  15.852   7.210  0.1211 -0.2348 -0.3790
  973POPC   C3A13153   1.042  16.009   7.609  0.1140 -0.0524 -0.0876
  973POPC   C4A13154   1.213  15.993   8.016 -0.0471 -0.1641 -0.0908
  973POPC   C1B13155   0.414  15.729   6.894 -0.1880  0.0175  0.0560
  973POPC   C2B13156   0.271  15.522   7.318 -0.1092 -0.0125 -0.0167
  973POPC   C3B13157   0.404  15.547   7.718 -0.0071  0.1096  0.2012
  973POPC   C4B13158   0.220  15.803   8.007 -0.0612 -0.1250 -0.3298
  974POPC   NC313159  12.111   4.864   5.747  0.1587 -0.0090 -0.1278
  974POPC   PO413160  11.775   4.944   5.897  0.1017 -0.0968  0.0524
  974POPC   GL113161  11.902   4.635   6.141 -0.0617  0.1924  0.1825
  974POPC   GL213162  11.881   4.300   6.154  0.0762  0.3298 -0.3349
  974POPC   C1A13163  12.008   4.561   6.622 -0.1343 -0.2238 -0.0853
  974POPC   D2A13164  11.935   4.600   7.055  0.1324 -0.1942 -0.4397
  974POPC   C3A13165  12.012   4.607   7.447  0.2095  0.3010  0.2075
  974POPC   C4A13166  11.843   4.334   7.871  0.1468  0.0010  0.1564
  974POPC   C1B13167  11.769   4.036   6.528  0.0679  0.2530 -0.0391
  974POPC   C2B13168  11.788   4.044   6.993 -0.2829  0.2529 -0.1602
  974POPC   C3B13169  11.995   4.068   7.412 -0.1224  0.1330 -0.1510
  974POPC   C4B13170  12.306   4.186   7.633 -0.0503  0.0780  0.3153
  975POPC   NC313171   8.309  16.804   5.640  0.1327  0.1948  0.3599
  975POPC   PO413172   8.683  16.762   5.990 -0.0694  0.2204  0.1379
  975POPC   GL113173   8.462  16.730   6.420 -0.1033  0.0649 -0.0822
  975POPC   GL213174   8.345  16.394   6.450  0.2155 -0.0795  0.1243
  975POPC   C1A13175   8.129  16.900   6.654  0.0349 -0.2593 -0.1443
  975POPC   D2A13176   8.002  17.121   7.020 -0.0802  0.0541  0.0508
  975POPC   C3A13177   7.775  17.397   7.188  0.3127 -0.0886  0.0004
  975POPC   C4A13178   7.785  17.569   7.641  0.2455  0.2614  0.1863
  975POPC   C1B13179   8.466  16.522   6.872  0.1907  0.0856  0.0091
  975POPC   C2B13180   8.412  16.533   7.329 -0.3721 -0.0712  0.0411
  975POPC   C3B13181   8.296  16.625   7.718 -0.0402 -0.0937 -0.0498
  975POPC   C4B13182   8.537  16.676   8.092  0.0533 -0.2764 -0.1473
  976POPC   NC313183   8.019   0.284   5.734  0.0326  0.0472  0.2145
  976POPC   PO413184   8.377   0.147   5.427 -0.0799  0.0218  0.0776
  976POPC   GL113185   8.430   0.029   5.886  0.1835  0.1001 -0.0546
  976POPC   GL213186   8.113  -0.089   6.104 -0.0256  0.2801  0.1686
  976POPC   C1A13187   8.538   0.214   6.258  0.4559  0.0600 -0.2581
  976POPC   D2A13188   8.724   0.102   6.641  0.1679 -0.1999  0.1027
  976POPC   C3A13189   8.946   0.429   6.741  0.0961  0.3059 -0.3367
  976POPC   C4A13190   9.121   0.773   6.615 -0.0106  0.1061  0.1292
  976POPC   C1B13191   8.270  -0.081   6.542 -0.0332 -0.1539 -0.4707
  976POPC   C2B13192   8.238  -0.447   6.716 -0.0099  0.1158  0.2459
  976POPC   C3B13193   8.327  -0.744   7.034 -0.0935 -0.3074  0.1215
  976POPC   C4B13194   8.224  -0.802   7.463  0.0018  0.2287  0.3104
  977POPC   NC313195  17.430   5.732   5.273 -0.2068  0.3262 -0.0213
  977POPC   PO413196  17.451   5.936   5.760 -0.3445  0.0451  0.1096
  977POPC   GL113197  17.712   5.958   6.120  0.1624  0.3299 -0.2269
  977POPC   GL213198  17.458   6.202   6.255 -0.3566 -0.1718  0.1440
  977POPC   C1A13199  17.814   6.014   6.513 -0.0024  0.2271  0.2990
  977POPC   D2A13200  18.065   6.179   6.855  0.0270  0.3564 -0.0939
  977POPC   C3A13201  18.289   6.500   6.850 -0.2150 -0.1061 -0.1499
  977POPC   C4A13202  18.377   6.668   7.292 -0.3481  0.0724  0.1911
  977POPC   C1B13203  17.356   6.405   6.674 -0.4133  0.0975  0.0379
  977POPC   C2B13204  17.201   6.654   6.932  0.0009 -0.1751  0.0075
  977POPC   C3B13205  17.036   6.843   7.290  0.0344  0.1419  0.1505
  977POPC   C4B13206  17.115   6.884   7.722  0.1542  0.1706 -0.3049
  978POPC   NC313207   4.723  10.130   5.720  0.0952  0.1120  0.0396
  978POPC   PO413208   4.401  10.298   5.978  0.0960 -0.0251  0.0657
  978POPC   GL113209   4.447  10.263   6.398 -0.0713  0.3389 -0.1456
  978POPC   GL213210   4.468  10.581   6.523 -0.2755  0.0483  0.2636
  978POPC   C1A13211   4.540   9.950   6.692 -0.1269  0.1308 -0.3276
  978POPC   D2A13212   4.508   9.774   7.110  0.1908 -0.0408  0.0791
  978POPC   C3A13213   4.400   9.494   7.515  0.0976  0.2186 -0.0478
  978POPC   C4A13214   4.349   9.714   7.904 -0.0135 -0.0889 -0.1675
  978POPC   C1B13215   4.479  10.592   6.939 -0.2120  0.2597  0.1767
  978POPC   C2B13216   4.613  10.345   7.198  0.0034 -0.2718 -0.0478
  978POPC   C3B13217   4.550  10.066   7.580 -0.1538 -0.1757  0.1435
  978POPC   C4B13218   4.629  10.171   8.060  0.2387  0.2122  0.1235
  979POPC   NC313219   5.853  17.525   5.312 -0.1376 -0.1684  0.1832
  979POPC   PO413220   5.714  17.805   5.659  0.3286 -0.0400 -0.0490
  979POPC   GL113221   5.825  17.572   5.900  0.2023  0.1037  0.0599
  979POPC   GL213222   5.885  17.911   6.119 -0.0584 -0.3367  0.0724
  979POPC   C1A13223   5.890  17.225   6.204 -0.0824 -0.2044 -0.1518
  979POPC   D2A13224   5.872  17.196   6.718 -0.1844 -0.2195  0.1287
  979POPC   C3A13225   6.272  17.017   6.912  0.0963  0.0191 -0.2672
  979POPC   C4A13226   6.243  16.722   7.283  0.2378  0.1533  0.0327
  979POPC   C1B13227   6.059  17.986   6.458  0.2459 -0.0171 -0.1917
  979POPC   C2B13228   6.257  18.100   6.807  0.1161  0.1284 -0.0603
  979POPC   C3B13229   6.340  18.051   7.163 -0.1742 -0.1606  0.0229
  979POPC   C4B13230   6.070  18.219   7.449 -0.0730  0.1316  0.0818
  980POPC   NC313231   6.475  16.802   5.691  0.2595  0.0181  0.0152
  980POPC   PO413232   6.864  16.960   5.889 -0.1700  0.0411  0.0027
  980POPC   GL113233   6.946  17.027   6.226  0.3057  0.0554 -0.0302
  980POPC   GL213234   7.153  17.276   6.241 -0.0141  0.0400  0.1111
  980POPC   C1A13235   6.945  17.024   6.623 -0.2487  0.0676  0.0988
  980POPC   D2A13236   6.979  17.056   7.054 -0.2448  0.1013  0.1340
  980POPC   C3A13237   6.654  17.112   7.234  0.3199  0.2227  0.2609
  980POPC   C4A13238   6.368  17.026   7.721  0.0910 -0.0610  0.1707
  980POPC   C1B13239   7.281  17.416   6.643 -0.0459 -0.0445 -0.1854
  980POPC   C2B13240   7.244  17.508   6.981 -0.0696 -0.3487  0.4168
  980POPC   C3B13241   7.076  17.362   7.451 -0.1492  0.0130 -0.2056
  980POPC   C4B13242   6.970  16.926   7.548 -0.0240  0.0925 -0.0254
  981POPC   NC313243   6.595  15.437   5.598  0.0579  0.0339 -0.1849
  981POPC   PO413244   6.834  15.746   5.851 -0.0619 -0.0625  0.0221
  981POPC   GL113245   6.684  15.671   6.276  0.1306  0.0954  0.0201
  981POPC   GL213246   6.478  15.298   6.489  0.2338  0.0822  0.0409
  981POPC   C1A13247   6.475  15.807   6.720 -0.0074 -0.2115  0.0660
  981POPC   D2A13248   6.550  15.739   7.128  0.0558 -0.0568  0.4151
  981POPC   C3A13249   6.612  15.970   7.429  0.1894 -0.1868  0.0795
  981POPC   C4A13250   6.840  16.131   7.775  0.0073 -0.4013 -0.0276
  981POPC   C1B13251   6.204  15.301   6.841 -0.0511  0.0052  0.0659
  981POPC   C2B13252   6.131  15.312   7.348  0.0792  0.2761 -0.1606
  981POPC   C3B13253   6.042  15.198   7.790  0.0854  0.0666 -0.0716
  981POPC   C4B13254   5.836  14.941   8.123  0.2831 -0.2801 -0.1541
  982YOPC   NC313255  16.095   6.000   6.061  0.0578  0.0577  0.2889
  982YOPC   PO413256  16.441   6.269   6.127  0.2441  0.1398  0.0694
  982YOPC   GL113257  16.685   6.047   6.478  0.1517  0.0083 -0.2501
  982YOPC   GL213258  16.963   5.780   6.372 -0.1468  0.0928  0.3763
  982YOPC   C1A13259  16.840   6.196   6.731  0.1201 -0.0188  0.1842
  982YOPC   D2A13260  17.121   6.217   7.101 -0.0122 -0.0190  0.1110
  982YOPC   C3A13261  17.363   6.536   7.476  0.0275  0.0712  0.1193
  982YOPC   C4A13262  17.614   6.672   7.822  0.5198 -0.0031  0.2371
  982YOPC   C1B13263  16.948   5.743   6.842 -0.2776  0.2998 -0.2296
  982YOPC   C2B13264  17.178   5.698   7.212  0.1773  0.0036  0.1806
  982YOPC   D3B13265  17.135   5.749   7.611 -0.0487 -0.2936  0.0683
  982YOPC   C4B13266  17.250   5.425   7.946 -0.1485  0.0032 -0.3006
  983YOPC   NC313267   3.264  11.656   5.757 -0.2425  0.1988  0.0187
  983YOPC   PO413268   3.612  11.959   5.770  0.2100 -0.0137  0.0356
  983YOPC   GL113269   3.517  12.041   6.152  0.2179 -0.2261  0.0685
  983YOPC   GL213270   3.930  12.134   6.306  0.2174 -0.3164  0.2866
  983YOPC   C1A13271   3.585  12.199   6.671 -0.1059  0.1866  0.0673
  983YOPC   D2A13272   4.092  12.221   6.935  0.2232 -0.2929  0.0501
  983YOPC   C3A13273   3.971  12.031   7.457  0.0662 -0.0116 -0.1669
  983YOPC   C4A13274   3.966  11.829   7.853  0.1183  0.3054  0.0670
  983YOPC   C1B13275   3.969  12.546   6.488  0.3645  0.2706 -0.0275
  983YOPC   C2B13276   4.165  12.857   6.610  0.0540 -0.2057 -0.3108
  983YOPC   D3B13277   3.870  13.190   6.869 -0.0932  0.1131 -0.3022
  983YOPC   C4B13278   3.974  13.535   6.849  0.2010 -0.0333 -0.0759
  984YOPC   NC313279   2.861  10.047   5.908 -0.1167 -0.0784  0.0855
  984YOPC   PO413280   3.165   9.811   6.073 -0.0232 -0.4203  0.1717
  984YOPC   GL113281   2.958   9.950   6.453  0.0430  0.1969  0.1421
  984YOPC   GL213282   2.673   9.969   6.421  0.2073 -0.1491  0.1016
  984YOPC   C1A13283   3.030  10.128   6.889  0.0001  0.3836 -0.1866
  984YOPC   D2A13284   3.090  10.103   7.248  0.0040 -0.2566 -0.0532
  984YOPC   C3A13285   2.765  10.270   7.612 -0.1822 -0.0546  0.1097
  984YOPC   C4A13286   2.722  10.363   8.124 -0.0782  0.3522 -0.0330
  984YOPC   C1B13287   2.639  10.337   6.621 -0.1707  0.2525 -0.2494
  984YOPC   C2B13288   2.589  10.349   7.096  0.0095 -0.0608  0.4843
  984YOPC   D3B13289   2.355  10.671   7.303 -0.0901  0.0933  0.1241
  984YOPC   C4B13290   2.198  10.914   6.894 -0.2367 -0.1796  0.0428
  985YOPC   NC313291   5.149  11.504   5.857  0.2003 -0.0589  0.0351
  985YOPC   PO413292   4.919  11.169   6.039  0.1131 -0.2647 -0.0251
  985YOPC   GL113293   4.819  11.289   6.366  0.1369 -0.1188 -0.2275
  985YOPC   GL213294   4.463  11.057   6.346  0.0809  0.0762  0.0238
  985YOPC   C1A13295   4.820  11.437   6.802  0.0773 -0.1954 -0.1375
  985YOPC   D2A13296   4.750  11.494   7.136  0.2605 -0.4145 -0.0412
  985YOPC   C3A13297   5.010  11.740   7.295 -0.0935 -0.0647  0.4078
  985YOPC   C4A13298   5.255  11.856   7.676 -0.0242 -0.0974  0.3554
  985YOPC   C1B13299   4.420  11.023   6.739  0.2220  0.1241  0.1629
  985YOPC   C2B13300   4.372  11.215   7.169 -0.1490  0.1102 -0.2728
  985YOPC   D3B13301   4.195  10.899   7.468  0.1214  0.2359  0.1372
  985YOPC   C4B13302   4.139  10.821   7.943 -0.2449 -0.0229 -0.0539
  986YOPC   NC313303  10.266   2.483   5.946 -0.1156  0.1061 -0.0121
  986YOPC   PO413304  10.066   2.159   5.669  0.1702 -0.3601  0.0547
  986YOPC   GL113305   9.923   1.985   6.007  0.2338 -0.2224  0.1063
  986YOPC   GL213306   9.867   2.301   6.174  0.1684 -0.1114 -0.0997
  986YOPC   C1A13307   9.951   1.601   6.234  0.1335  0.0544  0.0274
  986YOPC   D2A13308  10.249   1.339   6.438  0.0383 -0.3900 -0.1337
  986YOPC   C3A13309  10.289   1.367   6.781  0.2193 -0.2096  0.0627
  986YOPC   C4A13310  10.094   1.498   7.213  0.0290 -0.1162  0.0744
  986YOPC   C1B13311   9.776   2.053   6.505 -0.0063 -0.2526 -0.0514
  986YOPC   C2B13312   9.877   1.701   6.785  0.0118 -0.2184 -0.0390
  986YOPC   D3B13313   9.695   1.817   7.184  0.1283  0.1824  0.2147
  986YOPC   C4B13314   9.413   1.777   7.556 -0.0354 -0.1963  0.2271
  987YOPC   NC313315   9.461  14.230   5.854 -0.1669  0.1594 -0.0689
  987YOPC   PO413316   9.818  13.821   5.829  0.4487 -0.2109  0.1970
  987YOPC   GL113317   9.625  13.693   6.245  0.0410 -0.1836  0.2045
  987YOPC   GL213318   9.814  13.645   6.465 -0.2370  0.0650 -0.1563
  987YOPC   C1A13319   9.372  13.873   6.589  0.3099 -0.4035 -0.1221
  987YOPC   D2A13320   9.404  13.827   7.006  0.0479 -0.1429  0.0748
  987YOPC   C3A13321   9.755  13.970   7.327  0.2244  0.2779 -0.1378
  987YOPC   C4A13322   9.971  13.810   7.747 -0.3526 -0.1318 -0.1024
  987YOPC   C1B13323   9.716  13.428   6.877  0.1618  0.0790 -0.0828
  987YOPC   C2B13324   9.695  13.483   7.275 -0.1244 -0.2773 -0.1403
  987YOPC   D3B13325  10.025  13.292   7.624 -0.5785  0.1955 -0.0404
  987YOPC   C4B13326   9.923  12.816   7.815  0.1430 -0.1548 -0.2483
  988YOPC   NC313327   6.674   7.032   5.159  0.0735  0.2060 -0.1239
  988YOPC   PO413328   6.843   6.612   5.336  0.3185 -0.0679 -0.3220
  988YOPC   GL113329   6.744   6.410   5.707 -0.1948  0.2716 -0.4967
  988YOPC   GL213330   6.402   6.401   5.856 -0.2233  0.2682  0.0086
  988YOPC   C1A13331   6.764   6.464   6.277  0.1197 -0.3379  0.1706
  988YOPC   D2A13332   6.914   6.329   6.750  0.4430  0.2015 -0.1849
  988YOPC   C3A13333   7.110   6.581   7.051 -0.1070 -0.1952  0.2098
  988YOPC   C4A13334   7.335   6.787   7.390  0.0133 -0.5060  0.0716
  988YOPC   C1B13335   6.275   6.268   6.307  0.1655 -0.0604  0.3554
  988YOPC   C2B13336   6.440   6.167   6.702 -0.0520  0.0653  0.1723
  988YOPC   D3B13337   6.258   6.487   6.901 -0.1780  0.1990 -0.1733
  988YOPC   C4B13338   6.033   6.739   7.230  0.1522  0.3454  0.4475
  989YOPC   NC313339  12.753  11.718   6.051 -0.2461 -0.0022  0.3491
  989YOPC   PO413340  13.066  11.704   6.426  0.1540  0.1826  0.0518
  989YOPC   GL113341  13.037  11.839   6.814 -0.3878 -0.2237  0.1028
  989YOPC   GL213342  12.778  11.740   6.829 -0.2061  0.0966  0.0027
  989YOPC   C1A13343  13.234  11.839   7.160  0.1103  0.2744  0.3619
  989YOPC   D2A13344  13.259  11.691   7.547  0.1545  0.2824 -0.0245
  989YOPC   C3A13345  13.607  11.776   7.833 -0.0864 -0.0051  0.0149
  989YOPC   C4A13346  13.939  11.437   7.959  0.0849  0.1728  0.1726
  989YOPC   C1B13347  12.699  11.879   7.217 -0.1224  0.0493 -0.0955
  989YOPC   C2B13348  12.792  12.017   7.563 -0.1861  0.1216 -0.3043
  989YOPC   D3B13349  12.839  11.747   7.905 -0.1680  0.0439  0.0593
  989YOPC   C4B13350  13.093  11.638   8.051  0.3557 -0.2312 -0.0711
  990YOPC   NC313351   0.673   2.679   5.780 -0.3904 -0.0888  0.1212
  990YOPC   PO413352   0.239   2.786   5.809  0.1558  0.1200  0.0239
  990YOPC   GL113353  -0.007   2.729   6.216 -0.1347 -0.2312 -0.3907
  990YOPC   GL213354   0.266   2.739   6.424  0.0967 -0.1774 -0.0360
  990YOPC   C1A13355  -0.109   3.034   6.685 -0.2039 -0.0104  0.3326
  990YOPC   D2A13356  -0.065   3.042   7.003  0.2716 -0.0145  0.1512
  990YOPC   C3A13357  -0.449   3.011   7.196  0.1387 -0.0459 -0.0437
  990YOPC   C4A13358  -0.597   3.052   7.546  0.0997  0.1424  0.0678
  990YOPC   C1B13359   0.318   2.541   6.792  0.1442 -0.2972 -0.0673
  990YOPC   C2B13360   0.191   2.574   7.167 -0.1356  0.0553  0.1619
  990YOPC   D3B13361  -0.019   2.809   7.449  0.2080 -0.1693  0.2024
  990YOPC   C4B13362  -0.198   2.835   7.836 -0.1603  0.1260 -0.0416
  991YOPC   NC313363   3.467  12.430   5.603  0.1485 -0.2250  0.0872
  991YOPC   PO413364   3.135  12.150   5.737  0.0884 -0.1176  0.0668
  991YOPC   GL113365   2.990  11.878   6.139  0.3124  0.2205  0.2749
  991YOPC   GL213366   2.665  11.792   6.098  0.0591 -0.0328  0.0926
  991YOPC   C1A13367   3.165  11.889   6.517 -0.1512  0.1332 -0.1240
  991YOPC   D2A13368   3.080  12.044   6.882  0.0327 -0.2136 -0.0451
  991YOPC   C3A13369   3.073  12.324   7.271  0.2207  0.1677  0.3280
  991YOPC   C4A13370   3.048  12.469   7.646 -0.3541 -0.0814 -0.0397
  991YOPC   C1B13371   2.713  11.946   6.552  0.1956  0.0820  0.0211
  991YOPC   C2B13372   2.387  11.943   6.891 -0.1625  0.0645 -0.1195
  991YOPC   D3B13373   2.444  11.721   7.290  0.4093  0.0248  0.0015
  991YOPC   C4B13374   2.384  11.939   7.684 -0.2086  0.4227 -0.0741
  992YOPC   NC313375   2.152   6.654   5.483 -0.2339 -0.2202  0.0317
  992YOPC   PO413376   1.812   6.692   5.653  0.1467 -0.0679  0.0389
  992YOPC   GL113377   1.466   6.662   6.030  0.1546  0.0408  0.0547
  992YOPC   GL213378   1.212   6.854   6.014  0.0872  0.5083 -0.1521
  992YOPC   C1A13379   1.577   6.359   6.373  0.2458  0.4001 -0.0257
  992YOPC   D2A13380   1.651   6.197   6.858  0.0191  0.0811  0.1596
  992YOPC   C3A13381   1.384   6.232   7.265 -0.0404  0.0174  0.1730
  992YOPC   C4A13382   1.332   6.024   7.681  0.2388  0.2103  0.3834
  992YOPC   C1B13383   1.046   6.637   6.394  0.0316 -0.2142 -0.0457
  992YOPC   C2B13384   1.158   6.531   6.816 -0.1287  0.0583  0.4340
  992YOPC   D3B13385   0.872   6.579   7.099 -0.0627 -0.0143  0.3860
  992YOPC   C4B13386   0.749   6.568   7.594  0.1340 -0.2023 -0.3735
  993YOPC   NC313387  13.184  14.976   5.836  0.1998 -0.4166  0.0156
  993YOPC   PO413388  13.096  15.380   5.884  0.1197  0.1601 -0.0487
  993YOPC   GL113389  13.569  15.335   6.112 -0.0158 -0.0947  0.0910
  993YOPC   GL213390  13.644  15.022   6.158  0.0433  0.2051 -0.0059
  993YOPC   C1A13391  13.920  15.247   6.533  0.0952  0.1185 -0.0277
  993YOPC   D2A13392  14.115  15.000   6.803  0.0817  0.0146  0.0647
  993YOPC   C3A13393  14.075  14.970   7.268  0.0601 -0.0592  0.1027
  993YOPC   C4A13394  13.973  14.748   7.615 -0.1460 -0.1684 -0.2045
  993YOPC   C1B13395  13.431  15.065   6.568  0.0126  0.0192  0.1381
  993YOPC   C2B13396  13.653  15.117   6.968 -0.0773 -0.1880 -0.1194
  993YOPC   D3B13397  13.983  15.406   6.998  0.2838 -0.2160 -0.1191
  993YOPC   C4B13398  14.106  15.812   7.215 -0.0820  0.1071 -0.1076
  994YOPC   NC313399   7.567  16.149   5.921 -0.2791 -0.0699  0.0665
  994YOPC   PO413400   7.671  16.542   5.975 -0.3788 -0.2035 -0.2472
  994YOPC   GL113401   7.679  16.735   6.429  0.1823  0.1119  0.0161
  994YOPC   GL213402   7.416  16.818   6.467 -0.1558 -0.1554 -0.1587
  994YOPC   C1A13403   7.683  16.543   6.839 -0.2753 -0.1957  0.0809
  994YOPC   D2A13404   7.954  16.628   7.092 -0.1429  0.1437 -0.1350
  994YOPC   C3A13405   7.952  16.874   7.500 -0.2184 -0.2339 -0.2716
  994YOPC   C4A13406   8.044  17.088   7.884 -0.0192  0.0979 -0.2564
  994YOPC   C1B13407   7.541  16.981   6.868 -0.0439 -0.4359  0.2387
  994YOPC   C2B13408   7.478  16.925   7.407  0.4221 -0.1581  0.2744
  994YOPC   D3B13409   7.485  17.114   7.767 -0.2403  0.1642  0.1151
  994YOPC   C4B13410   7.191  17.346   8.005  0.0576  0.1419  0.0374
  995YOPC   NC313411   5.330   9.485   5.627  0.1066 -0.1446  0.3044
  995YOPC   PO413412   4.903   9.481   5.656  0.3301  0.3354 -0.0554
  995YOPC   GL113413   5.009   9.361   6.054 -0.2151  0.1561  0.2035
  995YOPC   GL213414   5.264   9.592   6.141  0.2531  0.2446  0.0289
  995YOPC   C1A13415   5.406   9.177   6.306  0.0914  0.1990  0.3015
  995YOPC   D2A13416   5.575   9.132   6.695 -0.0240  0.5004  0.0412
  995YOPC   C3A13417   5.374   8.884   6.966  0.1338 -0.1333  0.0401
  995YOPC   C4A13418   5.055   8.890   7.254 -0.0390  0.3384 -0.0095
  995YOPC   C1B13419   5.177   9.481   6.563 -0.0150  0.1719 -0.0178
  995YOPC   C2B13420   4.926   9.705   6.847  0.0948 -0.2200 -0.0087
  995YOPC   D3B13421   4.984   9.948   7.251  0.0067 -0.2865  0.3043
  995YOPC   C4B13422   5.137  10.070   7.734  0.0011  0.1023  0.0542
  996YOPC   NC313423  15.499   6.512   5.993  0.1764 -0.2412  0.1960
  996YOPC   PO413424  15.632   6.113   6.119  0.1343 -0.2926 -0.0594
  996YOPC   GL113425  15.791   5.915   6.512 -0.1833 -0.1383  0.1990
  996YOPC   GL213426  16.162   6.129   6.547  0.2209  0.0741 -0.0697
  996YOPC   C1A13427  15.957   5.918   6.963  0.1119 -0.1519 -0.0620
  996YOPC   D2A13428  16.102   5.984   7.322  0.2545  0.2834 -0.2262
  996YOPC   C3A13429  16.371   6.214   7.493  0.0275 -0.0577  0.1282
  996YOPC   C4A13430  16.452   6.399   7.897 -0.1975 -0.1166 -0.1662
  996YOPC   C1B13431  16.420   6.087   6.978 -0.1008 -0.0617  0.1580
  996YOPC   C2B13432  16.739   5.953   7.283  0.1846  0.5525 -0.1950
  996YOPC   D3B13433  16.864   6.218   7.574 -0.0278  0.0209  0.2274
  996YOPC   C4B13434  16.914   6.450   7.911 -0.1532  0.1218  0.3677
  997YOPC   NC313435   3.104  13.817   5.778  0.1893 -0.0224  0.2411
  997YOPC   PO413436   2.678  13.537   5.767 -0.1377  0.0238 -0.1905
  997YOPC   GL113437   2.868  13.623   6.215  0.1128  0.0529 -0.3701
  997YOPC   GL213438   3.096  13.921   6.317  0.5937 -0.1400 -0.2372
  997YOPC   C1A13439   3.003  13.414   6.608  0.0101 -0.0505  0.0277
  997YOPC   D2A13440   3.204  13.641   6.904 -0.0369 -0.0677  0.0814
  997YOPC   C3A13441   3.249  13.441   7.281 -0.1781 -0.1953 -0.0123
  997YOPC   C4A13442   3.516  13.462   7.742  0.0725  0.4975  0.3090
  997YOPC   C1B13443   3.001  14.085   6.614  0.0251  0.1434 -0.0839
  997YOPC   C2B13444   2.899  14.130   7.001 -0.0679  0.1378  0.4679
  997YOPC   D3B13445   3.156  14.048   7.210  0.0188  0.0416 -0.1856
  997YOPC   C4B13446   3.416  13.944   7.529  0.0393  0.3897  0.1873
  998YOPC   NC313447   0.091  11.771   5.439  0.0637  0.0697  0.0526
  998YOPC   PO413448  -0.290  11.770   5.727  0.1814  0.0117 -0.2263
  998YOPC   GL113449  -0.447  11.942   6.089  0.0585  0.0561 -0.2793
  998YOPC   GL213450  -0.687  12.155   6.178 -0.2356  0.0496 -0.4560
  998YOPC   C1A13451  -0.570  11.727   6.418  0.0427 -0.1369 -0.0910
  998YOPC   D2A13452  -0.609  11.701   6.858 -0.1277  0.4074 -0.1321
  998YOPC   C3A13453  -0.528  11.329   7.012  0.0685 -0.2821 -0.2403
  998YOPC   C4A13454  -0.414  10.866   6.873 -0.1829 -0.4348 -0.2434
  998YOPC   C1B13455  -0.537  12.214   6.537 -0.4994  0.2590 -0.0997
  998YOPC   C2B13456  -0.466  12.178   6.999 -0.0764 -0.1615 -0.3002
  998YOPC   D3B13457  -0.671  12.031   7.335 -0.0357 -0.0963 -0.0280
  998YOPC   C4B13458  -0.675  11.681   7.466 -0.1370  0.3597  0.1414
  999YOPC   NC313459   1.183  12.382   5.644  0.0213 -0.1866  0.0080
  999YOPC   PO413460   1.399  12.102   5.825  0.1347  0.2018  0.0833
  999YOPC   GL113461   1.472  11.885   6.163 -0.0889 -0.1841 -0.0252
  999YOPC   GL213462   1.303  11.988   6.335 -0.3048 -0.3047 -0.2077
  999YOPC   C1A13463   1.776  11.716   6.364  0.1929 -0.2014 -0.0216
  999YOPC   D2A13464   1.960  11.736   6.742  0.0939 -0.1618  0.0996
  999YOPC   C3A13465   1.860  11.911   7.064 -0.0635  0.1534  0.0068
  999YOPC   C4A13466   1.851  11.884   7.573  0.2518 -0.3587  0.3283
  999YOPC   C1B13467   1.393  12.103   6.863  0.1377  0.0550  0.1029
  999YOPC   C2B13468   1.434  12.056   7.334  0.1065 -0.1982  0.0259
  999YOPC   D3B13469   1.242  11.748   7.543 -0.0462 -0.2041 -0.0277
  999YOPC   C4B13470   1.276  11.538   7.901  0.1824  0.1339  0.1164
 1000YOPC   NC313471  11.219   7.868   5.519 -0.2091 -0.2409 -0.1220
 1000YOPC   PO413472  11.320   7.919   5.905 -0.1584 -0.1066 -0.0424
 1000YOPC   GL113473  11.296   8.340   6.144 -0.0790 -0.0086 -0.1186
 1000YOPC   GL213474  11.500   8.649   6.204 -0.2105 -0.1471  0.0020
 1000YOPC   C1A13475  10.920   8.556   6.405  0.0151 -0.1295  0.1970
 1000YOPC   D2A13476  10.520   8.503   6.690 -0.0106  0.0232  0.0196
 1000YOPC   C3A13477  10.456   8.726   7.086  0.1070 -0.3736  0.0284
 1000YOPC   C4A13478  10.259   8.927   7.428  0.2149  0.0968  0.1376
 1000YOPC   C1B13479  11.383   8.731   6.607 -0.1050  0.1598  0.0800
 1000YOPC   C2B13480  10.982   8.795   6.887  0.0806  0.0973  0.1534
 1000YOPC   D3B13481  10.988   8.753   7.266 -0.1204  0.0452 -0.1557
 1000YOPC   C4B13482  11.095   8.528   7.705 -0.1601  0.0683 -0.2633
 1001YOPC   NC313483   3.028   6.066   5.729  0.4521  0.2621 -0.0905
 1001YOPC   PO413484   3.347   5.684   5.694  0.2081 -0.2808  0.0583
 1001YOPC   GL113485   3.277   5.682   6.133  0.1395  0.1536  0.2793
 1001YOPC   GL213486   2.955   5.834   6.186 -0.1537  0.0799  0.0030
 1001YOPC   C1A13487   3.573   5.840   6.364 -0.0186  0.0199  0.0451
 1001YOPC   D2A13488   3.853   5.910   6.675  0.0360  0.1397  0.0519
 1001YOPC   C3A13489   3.829   6.094   7.007  0.1604 -0.0810  0.3422
 1001YOPC   C4A13490   3.858   5.882   7.394  0.0531 -0.2507 -0.0459
 1001YOPC   C1B13491   3.055   5.977   6.463  0.0578  0.1576  0.2938
 1001YOPC   C2B13492   3.360   6.108   6.767 -0.1061 -0.0523 -0.0995
 1001YOPC   D3B13493   3.399   6.182   7.204  0.0284 -0.0992 -0.0211
 1001YOPC   C4B13494   3.110   6.520   7.596 -0.2463  0.0265  0.0708
 1002YOPC   NC313495  14.506   5.499   5.956 -0.1405  0.0799 -0.1282
 1002YOPC   PO413496  14.903   5.658   6.070 -0.1378  0.1381 -0.4338
 1002YOPC   GL113497  14.829   5.528   6.433 -0.0845 -0.1784  0.0566
 1002YOPC   GL213498  14.972   5.362   6.562 -0.0322  0.3483  0.0508
 1002YOPC   C1A13499  14.755   5.862   6.658  0.3507 -0.0396  0.0341
 1002YOPC   D2A13500  14.921   5.854   7.113 -0.5641 -0.1059 -0.0289
 1002YOPC   C3A13501  14.924   5.813   7.590  0.0978 -0.3807  0.0585
 1002YOPC   C4A13502  14.764   5.810   7.956  0.1456 -0.0425 -0.1867
 1002YOPC   C1B13503  14.960   5.405   7.036  0.0510 -0.3318  0.0462
 1002YOPC   C2B13504  15.099   5.383   7.463  0.0969  0.0367 -0.1185
 1002YOPC   D3B13505  15.431   5.156   7.678 -0.0066 -0.2003 -0.0709
 1002YOPC   C4B13506  15.537   4.777   7.778 -0.0489  0.3379  0.0858
 1003YOPC   NC313507   0.866   7.747   5.356  0.1378  0.2085 -0.3688
 1003YOPC   PO413508   0.723   7.985   5.549  0.0613  0.0421 -0.2167
 1003YOPC   GL113509   0.522   8.149   6.030 -0.2794  0.1700  0.2917
 1003YOPC   GL213510   0.499   8.442   5.973  0.1174 -0.1752 -0.0794
 1003YOPC   C1A13511   0.534   8.295   6.423  0.0233  0.0069  0.1036
 1003YOPC   D2A13512   0.648   8.558   6.705 -0.0781  0.0136 -0.2644
 1003YOPC   C3A13513   0.613   8.436   7.151  0.0806  0.1049 -0.0169
 1003YOPC   C4A13514   0.623   8.292   7.520  0.3695  0.0506 -0.0537
 1003YOPC   C1B13515   0.217   8.755   6.222  0.4271  0.0645 -0.0302
 1003YOPC   C2B13516   0.176   8.778   6.646 -0.0139  0.0862  0.1406
 1003YOPC   D3B13517  -0.081   8.432   6.691 -0.0604  0.0750  0.3282
 1003YOPC   C4B13518  -0.240   8.103   6.532  0.0654  0.2104  0.3070
 1004YOPC   NC313519   9.754  12.062   5.319 -0.2315  0.1811  0.1501
 1004YOPC   PO413520   9.351  12.077   5.312 -0.0453  0.0277 -0.0223
 1004YOPC   GL113521   9.566  11.814   5.661 -0.1420 -0.2952  0.0693
 1004YOPC   GL213522   9.320  11.669   5.753  0.0753  0.4739  0.0459
 1004YOPC   C1A13523   9.686  11.860   6.026  0.1709 -0.2624 -0.0186
 1004YOPC   D2A13524   9.671  11.819   6.518  0.0256  0.1037  0.3450
 1004YOPC   C3A13525   9.573  11.417   6.726  0.1623  0.3816  0.0621
 1004YOPC   C4A13526   9.304  11.136   6.938 -0.3484 -0.2558 -0.1294
 1004YOPC   C1B13527   9.301  11.506   6.198 -0.0558 -0.1142 -0.3108
 1004YOPC   C2B13528   9.216  11.121   6.470 -0.1032 -0.1112 -0.1179
 1004YOPC   D3B13529   9.542  10.781   6.517 -0.0336  0.2622 -0.1435
 1004YOPC   C4B13530   9.666  10.478   6.203  0.0616  0.0090 -0.0969
 1005YOPC   NC313531  15.181   9.529   5.937 -0.0318  0.0092 -0.5786
 1005YOPC   PO413532  14.749   9.344   5.912  0.1731  0.1035 -0.3948
 1005YOPC   GL113533  14.838   9.422   6.325  0.0924 -0.4099  0.0484
 1005YOPC   GL213534  15.133   9.260   6.349  0.0370  0.1635 -0.1457
 1005YOPC   C1A13535  14.604   9.620   6.656 -0.3808 -0.0547 -0.0438
 1005YOPC   D2A13536  14.438   9.666   7.013 -0.3516 -0.4145 -0.2529
 1005YOPC   C3A13537  14.091   9.356   7.178  0.2723  0.1171 -0.0879
 1005YOPC   C4A13538  13.819   9.063   7.305 -0.1227 -0.0947 -0.0586
 1005YOPC   C1B13539  15.069   9.548   6.762  0.2866  0.1577  0.0453
 1005YOPC   C2B13540  14.926   9.662   7.150 -0.1100 -0.1523 -0.0134
 1005YOPC   D3B13541  15.093   9.943   7.303 -0.1994 -0.0757 -0.2925
 1005YOPC   C4B13542  15.299  10.261   7.551  0.1193 -0.0999 -0.0263
 1006YOPC   NC313543   2.254  13.998   5.401 -0.3533  0.3276 -0.1077
 1006YOPC   PO413544   2.069  13.593   5.672 -0.4122  0.1044 -0.1571
 1006YOPC   GL113545   2.048  13.628   6.109  0.1801 -0.1552  0.1503
 1006YOPC   GL213546   1.727  13.545   6.307 -0.1339 -0.3610 -0.0823
 1006YOPC   C1A13547   2.074  13.853   6.549  0.1091 -0.3411  0.1237
 1006YOPC   D2A13548   2.124  13.821   6.917  0.0611  0.1001 -0.0825
 1006YOPC   C3A13549   2.178  13.862   7.309  0.0739 -0.0513  0.0483
 1006YOPC   C4A13550   2.394  14.117   7.659  0.2288 -0.0342 -0.0336
 1006YOPC   C1B13551   1.881  13.413   6.675 -0.2911 -0.0009 -0.2113
 1006YOPC   C2B13552   1.853  13.521   7.157  0.1093 -0.0454  0.3518
 1006YOPC   D3B13553   1.740  13.445   7.585  0.2559  0.2303 -0.0063
 1006YOPC   C4B13554   1.808  13.297   8.020 -0.1734 -0.1526  0.1109
 1007YOPC   NC313555   4.919  12.606   6.005  0.0014  0.0947 -0.2999
 1007YOPC   PO413556   5.300  12.355   6.065 -0.1231 -0.0416 -0.3552
 1007YOPC   GL113557   5.201  12.470   6.415  0.2597  0.2589  0.2349
 1007YOPC   GL213558   4.871  12.359   6.413  0.2362  0.1239 -0.0188
 1007YOPC   C1A13559   5.085  12.620   6.864 -0.0317  0.1987  0.0372
 1007YOPC   D2A13560   5.185  12.617   7.305 -0.0218  0.2565  0.0483
 1007YOPC   C3A13561   5.057  12.756   7.698  0.2347 -0.1657  0.1602
 1007YOPC   C4A13562   4.980  12.633   8.076  0.1175  0.2228  0.1671
 1007YOPC   C1B13563   4.638  12.669   6.711 -0.1215 -0.2783 -0.0902
 1007YOPC   C2B13564   4.490  12.717   7.014 -0.2657 -0.1570  0.3277
 1007YOPC   D3B13565   4.426  12.516   7.358  0.0178 -0.0914 -0.2204
 1007YOPC   C4B13566   4.598  12.515   7.734  0.0820  0.1759 -0.2265
 1008YOPC   NC313567  12.914   6.257   5.901  0.1132  0.2840  0.1596
 1008YOPC   PO413568  13.233   6.099   6.153  0.0892 -0.4812  0.1177
 1008YOPC   GL113569  12.860   6.104   6.535 -0.2315  0.1950  0.1909
 1008YOPC   GL213570  12.571   6.101   6.625 -0.2489 -0.0246  0.1118
 1008YOPC   C1A13571  12.768   6.016   7.089 -0.0503  0.0452  0.1006
 1008YOPC   D2A13572  12.720   5.983   7.508 -0.2321 -0.0970  0.1196
 1008YOPC   C3A13573  13.029   6.185   7.724  0.1017 -0.2262 -0.1236
 1008YOPC   C4A13574  13.306   6.349   8.076  0.2423  0.2075 -0.1353
 1008YOPC   C1B13575  12.277   6.144   7.018  0.3563 -0.1105  0.1995
 1008YOPC   C2B13576  12.227   6.178   7.474  0.2252 -0.0723  0.2710
 1008YOPC   D3B13577  12.411   6.033   7.892  0.0837 -0.1835 -0.1569
 1008YOPC   C4B13578  12.481   5.686   7.944 -0.0594 -0.2042 -0.4366
 1009YOPC   NC313579  16.146  14.400   5.741  0.2339 -0.1232  0.0752
 1009YOPC   PO413580  15.845  14.684   5.724 -0.1817  0.0116 -0.1123
 1009YOPC   GL113581  15.549  14.722   6.113  0.1675 -0.1816 -0.0549
 1009YOPC   GL213582  15.342  14.436   6.270 -0.0594  0.2405 -0.4871
 1009YOPC   C1A13583  15.640  14.771   6.462  0.1530  0.1061 -0.3503
 1009YOPC   D2A13584  15.689  14.676   6.858 -0.0456 -0.1309  0.1648
 1009YOPC   C3A13585  15.689  14.556   7.244 -0.0434  0.0585 -0.2011
 1009YOPC   C4A13586  15.700  14.752   7.677  0.1662 -0.1381 -0.1296
 1009YOPC   C1B13587  15.387  14.239   6.719  0.0665  0.0982 -0.2420
 1009YOPC   C2B13588  15.400  14.151   7.142 -0.1081 -0.3043 -0.0363
 1009YOPC   D3B13589  15.296  14.370   7.453  0.0564  0.0407  0.0288
 1009YOPC   C4B13590  15.245  14.445   7.780 -0.2540  0.2047 -0.0833
 1010YOPC   NC313591  16.019   9.552   5.887 -0.0702 -0.1141  0.0333
 1010YOPC   PO413592  15.668   9.711   6.005 -0.1392  0.0779  0.2995
 1010YOPC   GL113593  15.854   9.709   6.408 -0.0497  0.2916  0.0283
 1010YOPC   GL213594  16.150   9.533   6.401  0.0953  0.1785 -0.3457
 1010YOPC   C1A13595  16.097   9.990   6.615  0.3422  0.0684  0.0243
 1010YOPC   D2A13596  16.390  10.102   7.032  0.2968 -0.0053 -0.0987
 1010YOPC   C3A13597  16.749  10.005   7.098  0.0858 -0.1802 -0.1291
 1010YOPC   C4A13598  17.015  10.089   7.465  0.0332 -0.2039  0.4223
 1010YOPC   C1B13599  16.078   9.570   6.877  0.0006 -0.0751  0.0994
 1010YOPC   C2B13600  15.980   9.636   7.274  0.5829  0.2048 -0.0783
 1010YOPC   D3B13601  16.318   9.811   7.486 -0.1791  0.2575  0.1317
 1010YOPC   C4B13602  16.537   9.890   7.878  0.0767  0.0887 -0.1631
 1011YOPC   NC313603  12.850  13.089   5.690 -0.0916  0.0912  0.3379
 1011YOPC   PO413604  13.347  12.948   5.778  0.0635  0.0608  0.1409
 1011YOPC   GL113605  13.067  13.077   6.107 -0.3001  0.2108  0.0215
 1011YOPC   GL213606  13.055  12.763   6.271  0.0172 -0.0483 -0.2902
 1011YOPC   C1A13607  13.162  13.347   6.555 -0.0504 -0.0642  0.1157
 1011YOPC   D2A13608  13.316  13.459   6.906  0.2537 -0.0519  0.0753
 1011YOPC   C3A13609  13.041  13.785   7.171  0.0285  0.1499 -0.0808
 1011YOPC   C4A13610  12.908  14.127   7.409  0.2806  0.1697 -0.0675
 1011YOPC   C1B13611  13.088  12.846   6.771  0.0141 -0.1409  0.2868
 1011YOPC   C2B13612  13.212  12.951   7.157 -0.0538 -0.2455 -0.0972
 1011YOPC   D3B13613  13.158  12.880   7.591 -0.0896  0.0977  0.0189
 1011YOPC   C4B13614  13.228  12.616   7.909 -0.0343  0.1243  0.0434
 1012YOPC   NC313615   1.155  10.052   5.717  0.2171  0.1097  0.1509
 1012YOPC   PO413616   1.346  10.185   6.181  0.0956 -0.1947  0.3880
 1012YOPC   GL113617   1.482   9.985   6.535  0.1429  0.0301 -0.0394
 1012YOPC   GL213618   1.758  10.035   6.433 -0.0873  0.1616 -0.1009
 1012YOPC   C1A13619   1.487   9.833   6.923  0.4164  0.1085 -0.0156
 1012YOPC   D2A13620   1.735   9.869   7.299  0.2798 -0.1755  0.0617
 1012YOPC   C3A13621   1.604   9.712   7.714 -0.2248  0.2857  0.0941
 1012YOPC   C4A13622   1.178   9.576   7.860  0.0181 -0.2646 -0.1001
 1012YOPC   C1B13623   1.958   9.929   6.752 -0.0562  0.1748  0.2906
 1012YOPC   C2B13624   2.309  10.022   6.853 -0.1252  0.0905 -0.1487
 1012YOPC   D3B13625   2.254  10.042   7.363  0.0962  0.0337  0.0589
 1012YOPC   C4B13626   2.306  10.306   7.639  0.0125  0.1336 -0.1053
 1013YOPC   NC313627   7.226   3.237   5.580  0.4520  0.1902 -0.0519
 1013YOPC   PO413628   7.382   3.504   5.873 -0.0730 -0.3017 -0.2816
 1013YOPC   GL113629   7.176   3.613   6.166 -0.1775  0.0733  0.0994
 1013YOPC   GL213630   7.033   3.910   6.040 -0.0540  0.0707  0.0382
 1013YOPC   C1A13631   7.061   3.524   6.649 -0.2150  0.0460  0.1436
 1013YOPC   D2A13632   6.992   3.459   7.042 -0.3996 -0.1905 -0.1723
 1013YOPC   C3A13633   6.781   3.781   7.388  0.1094 -0.2973 -0.3228
 1013YOPC   C4A13634   6.706   3.719   7.691  0.0285 -0.2037 -0.4194
 1013YOPC   C1B13635   7.207   3.976   6.427  0.2714  0.2499 -0.1716
 1013YOPC   C2B13636   7.371   4.043   6.967  0.0799  0.0686  0.1932
 1013YOPC   D3B13637   7.762   4.353   7.044  0.0931 -0.1728 -0.0342
 1013YOPC   C4B13638   8.053   4.642   7.288 -0.3080 -0.0970  0.2106
 1014YOPC   NC313639   6.004  13.680   6.012  0.0062 -0.3844 -0.0129
 1014YOPC   PO413640   6.210  13.328   5.940 -0.1385  0.1159 -0.2349
 1014YOPC   GL113641   6.190  12.956   6.160 -0.2844 -0.1903 -0.0122
 1014YOPC   GL213642   6.562  12.934   6.262 -0.0660  0.4527 -0.0861
 1014YOPC   C1A13643   6.246  12.932   6.663 -0.0804  0.1965 -0.1535
 1014YOPC   D2A13644   6.203  13.297   7.065 -0.0399  0.0201  0.3242
 1014YOPC   C3A13645   6.432  13.226   7.444  0.2164 -0.2308  0.1429
 1014YOPC   C4A13646   6.700  12.871   7.649  0.3346  0.0609  0.2364
 1014YOPC   C1B13647   6.632  12.625   6.557  0.1099  0.0744  0.0512
 1014YOPC   C2B13648   6.736  12.322   6.986  0.1428 -0.1866  0.2519
 1014YOPC   D3B13649   6.520  12.375   7.393 -0.2506  0.1393  0.2101
 1014YOPC   C4B13650   6.540  12.306   7.832 -0.0924  0.3142  0.1265
 1015YOPC   NC313651  13.795   8.876   6.121  0.0752  0.0197  0.1386
 1015YOPC   PO413652  13.750   9.311   6.211 -0.0054  0.0359  0.1362
 1015YOPC   GL113653  14.041   9.121   6.529  0.2066  0.0452  0.2476
 1015YOPC   GL213654  13.961   9.376   6.670 -0.0893 -0.0158 -0.1269
 1015YOPC   C1A13655  14.052   8.921   6.860  0.1306 -0.2559  0.0519
 1015YOPC   D2A13656  13.787   8.540   7.002 -0.1487 -0.0350 -0.1452
 1015YOPC   C3A13657  13.778   8.532   7.369 -0.1684 -0.0567 -0.0297
 1015YOPC   C4A13658  14.014   8.611   7.777 -0.2226  0.0490 -0.1849
 1015YOPC   C1B13659  13.652   9.336   6.891 -0.1675 -0.0293 -0.2918
 1015YOPC   C2B13660  13.525   9.734   7.231 -0.0571 -0.2037  0.1716
 1015YOPC   D3B13661  13.773   9.601   7.602 -0.1413  0.0061  0.2365
 1015YOPC   C4B13662  14.095   9.693   7.917 -0.2594 -0.0785 -0.1823
 1016YOPC   NC313663  18.119  17.120   5.758 -0.1280 -0.0711 -0.0686
 1016YOPC   PO413664  17.856  16.962   6.058 -0.1474  0.3682  0.4427
 1016YOPC   GL113665  18.013  16.791   6.401 -0.2914 -0.1197  0.0331
 1016YOPC   GL213666  18.294  16.753   6.520 -0.0426  0.0365 -0.0743
 1016YOPC   C1A13667  17.925  16.635   6.893 -0.2183 -0.1968  0.0181
 1016YOPC   D2A13668  18.001  16.355   7.227  0.2375  0.2990 -0.1059
 1016YOPC   C3A13669  18.401  16.309   7.411 -0.1633  0.0145  0.2319
 1016YOPC   C4A13670  18.728  16.078   7.615 -0.1076 -0.1027  0.1748
 1016YOPC   C1B13671  18.394  16.596   6.877 -0.1268  0.2889 -0.2242
 1016YOPC   C2B13672  18.273  16.812   7.311  0.0532 -0.1472  0.2867
 1016YOPC   D3B13673  18.223  16.749   7.657  0.3924 -0.1429 -0.1578
 1016YOPC   C4B13674  18.117  16.689   8.035  0.1267 -0.0620 -0.1582
 1017YOPC   NC313675   7.699   4.485   5.668  0.2381  0.2144  0.0279
 1017YOPC   PO413676   7.419   4.005   5.637 -0.0659 -0.2531 -0.0628
 1017YOPC   GL113677   7.563   3.993   6.110 -0.0315  0.1216  0.5314
 1017YOPC   GL213678   7.646   3.726   6.328  0.0931  0.2082 -0.0968
 1017YOPC   C1A13679   7.651   4.132   6.539  0.1925 -0.3576  0.0608
 1017YOPC   D2A13680   7.918   3.925   6.871 -0.2186  0.2150  0.1203
 1017YOPC   C3A13681   7.728   3.915   7.338 -0.3711 -0.0232  0.1847
 1017YOPC   C4A13682   7.631   3.718   7.786 -0.0145 -0.1397 -0.1904
 1017YOPC   C1B13683   7.522   3.606   6.749  0.1562  0.3386  0.0482
 1017YOPC   C2B13684   7.458   3.531   7.146  0.1082  0.1158  0.1561
 1017YOPC   D3B13685   7.273   3.807   7.439  0.0407 -0.0057  0.1947
 1017YOPC   C4B13686   7.169   4.033   7.746 -0.1281  0.3108  0.3245
 1018YOPC   NC313687   1.826   7.964   5.657  0.1562  0.0575 -0.2150
 1018YOPC   PO413688   1.654   8.363   5.714 -0.0309 -0.1630 -0.0678
 1018YOPC   GL113689   1.616   8.113   6.067  0.0550  0.0625  0.1824
 1018YOPC   GL213690   1.601   8.370   6.263 -0.3049 -0.0424 -0.0774
 1018YOPC   C1A13691   1.594   7.856   6.453  0.0457  0.1833  0.1129
 1018YOPC   D2A13692   1.601   7.871   6.828  0.0131  0.0330  0.2248
 1018YOPC   C3A13693   1.379   7.901   7.223  0.1706  0.0101 -0.0158
 1018YOPC   C4A13694   1.122   8.279   7.464 -0.1625  0.0113 -0.0384
 1018YOPC   C1B13695   1.359   8.670   6.530 -0.1423 -0.0597 -0.0406
 1018YOPC   C2B13696   1.526   8.852   6.805 -0.3303 -0.1500  0.1157
 1018YOPC   D3B13697   1.488   8.791   7.297 -0.0829  0.1397 -0.2090
 1018YOPC   C4B13698   1.690   8.831   7.721  0.2008 -0.3064 -0.0221
 1019YOPC   NC313699  16.043   2.878   6.086  0.0049  0.1233  0.3020
 1019YOPC   PO413700  16.110   2.394   5.985  0.0534 -0.1773  0.0751
 1019YOPC   GL113701  16.350   2.572   6.404 -0.2961  0.0096 -0.2381
 1019YOPC   GL213702  16.228   2.817   6.591  0.2164 -0.0256  0.2197
 1019YOPC   C1A13703  16.671   2.688   6.815  0.0198 -0.0499 -0.0507
 1019YOPC   D2A13704  16.565   2.907   7.181  0.2312 -0.1495  0.0089
 1019YOPC   C3A13705  16.647   2.712   7.645 -0.1206 -0.2748  0.3915
 1019YOPC   C4A13706  16.842   2.887   7.978 -0.2340 -0.2380 -0.1620
 1019YOPC   C1B13707  16.091   2.819   6.874  0.0638 -0.2345  0.1171
 1019YOPC   C2B13708  15.816   2.648   7.240 -0.3333  0.0698  0.0896
 1019YOPC   D3B13709  15.926   2.733   7.615  0.2805 -0.2331 -0.0865
 1019YOPC   C4B13710  15.789   2.838   8.051 -0.1044 -0.2268  0.0486
 1020YOPC   NC313711   4.745   0.103   5.711 -0.1994 -0.1472 -0.2942
 1020YOPC   PO413712   4.404   0.401   5.756 -0.0624 -0.1303 -0.1020
 1020YOPC   GL113713   4.448   0.241   6.113 -0.1241 -0.0340 -0.1077
 1020YOPC   GL213714   4.274   0.220   6.384 -0.3894 -0.3222 -0.1203
 1020YOPC   C1A13715   4.667  -0.122   6.349  0.0216 -0.0670  0.1697
 1020YOPC   D2A13716   5.030  -0.129   6.586  0.1565 -0.0583  0.1477
 1020YOPC   C3A13717   5.199  -0.022   7.045  0.0704 -0.2590 -0.2741
 1020YOPC   C4A13718   5.162   0.049   7.477 -0.0772 -0.3531  0.1082
 1020YOPC   C1B13719   4.224   0.285   6.812  0.1457 -0.0015  0.2386
 1020YOPC   C2B13720   4.232   0.394   7.210 -0.1314  0.2612 -0.1663
 1020YOPC   D3B13721   4.308   0.357   7.638 -0.1386  0.1159  0.1424
 1020YOPC   C4B13722   4.252   0.106   8.058  0.0330  0.3146 -0.1151
 1021YOPC   NC313723   2.244   1.183   5.641  0.0061  0.0478 -0.3337
 1021YOPC   PO413724   2.106   1.517   5.847 -0.0113 -0.0306 -0.0166
 1021YOPC   GL113725   2.516   1.704   6.165 -0.1435 -0.0190  0.0073
 1021YOPC   GL213726   2.592   1.988   6.371  0.0636 -0.0560 -0.0626
 1021YOPC   C1A13727   2.959   1.649   6.430  0.4968  0.1889 -0.1445
 1021YOPC   D2A13728   3.301   1.604   6.813  0.1754  0.1157 -0.3258
 1021YOPC   C3A13729   3.413   1.823   7.164 -0.1273  0.0295 -0.2117
 1021YOPC   C4A13730   3.495   2.271   7.395 -0.2103 -0.0324  0.1620
 1021YOPC   C1B13731   2.574   1.919   6.734 -0.2265 -0.0672  0.0767
 1021YOPC   C2B13732   2.496   1.900   7.122  0.0887  0.1471  0.0250
 1021YOPC   D3B13733   2.598   1.836   7.495  0.2616 -0.3693 -0.5154
 1021YOPC   C4B13734   2.676   1.960   7.919 -0.0838 -0.0217  0.0528
 1022YOPC   NC313735  18.106   9.949   5.293 -0.1236 -0.2553  0.0954
 1022YOPC   PO413736  18.355  10.260   5.619  0.1611 -0.1371 -0.1095
 1022YOPC   GL113737  18.478  10.146   5.984 -0.0588  0.1236 -0.2771
 1022YOPC   GL213738  18.755  10.102   6.037 -0.0827  0.5118 -0.0912
 1022YOPC   C1A13739  18.348  10.092   6.383  0.1727 -0.0582  0.0848
 1022YOPC   D2A13740  18.489  10.088   6.895 -0.2264 -0.0548  0.2522
 1022YOPC   C3A13741  18.350  10.257   7.288  0.3332 -0.1236  0.3916
 1022YOPC   C4A13742  18.076  10.377   7.727  0.0075  0.1351 -0.0319
 1022YOPC   C1B13743  18.711   9.635   6.065  0.1489  0.4755  0.3473
 1022YOPC   C2B13744  19.023   9.275   6.073 -0.1086 -0.3184 -0.2384
 1022YOPC   D3B13745  18.992   8.794   6.278 -0.0243 -0.4674 -0.0057
 1022YOPC   C4B13746  19.351   8.610   6.126 -0.1037 -0.2473  0.1164
 1023YOPC   NC313747   8.909  12.548   5.739  0.2256 -0.0939  0.2528
 1023YOPC   PO413748   8.793  12.899   5.763  0.1721  0.2306 -0.2480
 1023YOPC   GL113749   8.799  12.941   6.231  0.2548  0.1850  0.0978
 1023YOPC   GL213750   8.533  12.934   6.386  0.3679 -0.0051  0.1336
 1023YOPC   C1A13751   9.000  13.007   6.552 -0.1233  0.4445  0.0233
 1023YOPC   D2A13752   8.988  12.839   6.949 -0.4748 -0.1894 -0.2112
 1023YOPC   C3A13753   9.239  12.869   7.313 -0.0375 -0.2129  0.0364
 1023YOPC   C4A13754   9.175  12.781   7.699  0.0275 -0.0550  0.0025
 1023YOPC   C1B13755   8.472  12.904   6.782  0.1126  0.4080 -0.1254
 1023YOPC   C2B13756   8.446  12.893   7.198 -0.5400 -0.3092  0.1750
 1023YOPC   D3B13757   8.734  12.805   7.425  0.0790 -0.1241  0.0853
 1023YOPC   C4B13758   8.743  12.496   7.754 -0.2749  0.1574  0.0332
 1024YOPC   NC313759   6.536   2.284   5.817 -0.1157 -0.2564  0.2430
 1024YOPC   PO413760   6.067   2.213   5.817 -0.0415 -0.0829 -0.0374
 1024YOPC   GL113761   6.272   1.928   6.070  0.0024  0.2422  0.3581
 1024YOPC   GL213762   6.559   1.703   5.918 -0.0422  0.1292 -0.3502
 1024YOPC   C1A13763   6.108   1.483   6.153  0.0462  0.0292 -0.0567
 1024YOPC   D2A13764   6.079   0.999   6.346  0.0920  0.0545 -0.1533
 1024YOPC   C3A13765   5.841   0.857   6.726 -0.1585  0.0135  0.1155
 1024YOPC   C4A13766   5.758   0.710   7.176 -0.0496  0.0005  0.1789
 1024YOPC   C1B13767   6.590   1.755   6.389 -0.1017  0.0279 -0.0999
 1024YOPC   C2B13768   6.246   1.532   6.602  0.3150  0.0575 -0.2881
 1024YOPC   D3B13769   6.122   1.249   6.975  0.1741 -0.1124 -0.4610
 1024YOPC   C4B13770   6.130   0.978   7.211 -0.1782 -0.1849 -0.0374
 1025YOPC   NC313771  12.178   9.945   5.636 -0.2326  0.1940 -0.3565
 1025YOPC   PO413772  11.983   9.995   6.022  0.1513 -0.0169  0.1201
 1025YOPC   GL113773  11.845  10.356   6.280  0.1731 -0.0404 -0.1173
 1025YOPC   GL213774  11.981  10.497   6.409  0.2687  0.1029 -0.1723
 1025YOPC   C1A13775  11.479  10.350   6.664  0.0018 -0.0463  0.1802
 1025YOPC   D2A13776  11.515  10.157   7.011  0.0884  0.2366  0.1535
 1025YOPC   C3A13777  11.616  10.406   7.342 -0.0120  0.3689 -0.0152
 1025YOPC   C4A13778  11.621  10.626   7.717 -0.0899 -0.0050  0.0115
 1025YOPC   C1B13779  11.963  10.524   6.958  0.0791 -0.0349  0.1645
 1025YOPC   C2B13780  12.138  10.656   7.400 -0.0225 -0.1581  0.2297
 1025YOPC   D3B13781  12.216  11.055   7.722 -0.2651 -0.0946  0.0362
 1025YOPC   C4B13782  12.492  11.363   7.894 -0.0309  0.0713 -0.0861
 1026YOPC   NC313783   3.200   6.789   5.377  0.6473 -0.4750  0.1405
 1026YOPC   PO413784   2.978   6.521   5.722  0.1187 -0.2812  0.0078
 1026YOPC   GL113785   3.193   6.427   6.123  0.0750 -0.1614  0.1453
 1026YOPC   GL213786   3.333   6.231   6.145  0.3458  0.2813  0.0526
 1026YOPC   C1A13787   3.058   6.448   6.498 -0.2076 -0.2927  0.0349
 1026YOPC   D2A13788   2.719   6.685   6.660  0.0613 -0.3622 -0.1328
 1026YOPC   C3A13789   2.721   6.832   7.121  0.0884  0.0123  0.1898
 1026YOPC   C4A13790   3.048   7.084   7.313 -0.1182 -0.1960  0.3756
 1026YOPC   C1B13791   3.651   6.335   6.451  0.1943  0.1986 -0.1340
 1026YOPC   C2B13792   3.740   6.573   6.837  0.0055  0.1347  0.0316
 1026YOPC   D3B13793   4.005   6.828   7.098  0.0969  0.1768 -0.1453
 1026YOPC   C4B13794   4.092   7.280   7.109 -0.0069  0.0971  0.2809
 1027YOPC   NC313795   7.215   6.357   5.516 -0.2974 -0.1650  0.2402
 1027YOPC   PO413796   6.874   6.086   5.255 -0.4422  0.2016  0.0274
 1027YOPC   GL113797   6.948   5.834   5.717 -0.3712 -0.0211  0.0777
 1027YOPC   GL213798   6.704   5.934   5.955  0.0564 -0.1031  0.2695
 1027YOPC   C1A13799   7.135   5.674   6.046 -0.3159  0.0895 -0.1741
 1027YOPC   D2A13800   7.459   5.605   6.363 -0.0784 -0.0967  0.0031
 1027YOPC   C3A13801   7.479   5.751   6.812 -0.0792  0.0130 -0.0371
 1027YOPC   C4A13802   7.163   6.024   7.099  0.1339 -0.0030  0.1383
 1027YOPC   C1B13803   6.819   5.991   6.305  0.1734 -0.0947 -0.3175
 1027YOPC   C2B13804   6.896   5.761   6.656  0.2051 -0.1901  0.0018
 1027YOPC   D3B13805   6.683   5.836   7.036  0.1182  0.3246  0.1258
 1027YOPC   C4B13806   6.599   5.856   7.488 -0.1365  0.2738  0.1082
 1028YOPC   NC313807   3.097  15.457   5.939  0.0728  0.0716  0.0632
 1028YOPC   PO413808   2.752  15.103   5.913 -0.1335 -0.3104  0.1411
 1028YOPC   GL113809   2.677  14.897   6.381 -0.1480  0.4498 -0.2793
 1028YOPC   GL213810   2.386  14.681   6.555 -0.1093 -0.0679  0.2781
 1028YOPC   C1A13811   2.536  15.062   6.783 -0.0572  0.0269 -0.1892
 1028YOPC   D2A13812   2.439  15.154   7.191  0.1150  0.3217 -0.0086
 1028YOPC   C3A13813   2.558  15.418   7.531  0.2168  0.0987 -0.2933
 1028YOPC   C4A13814   2.561  15.556   7.918  0.3584 -0.0371  0.2922
 1028YOPC   C1B13815   2.267  14.705   7.000 -0.1229 -0.0130  0.1914
 1028YOPC   C2B13816   2.292  14.635   7.447  0.1072 -0.0703 -0.1586
 1028YOPC   D3B13817   2.511  14.649   7.760  0.1493 -0.3424  0.0735
 1028YOPC   C4B13818   2.779  14.408   8.035  0.2229 -0.1392 -0.0282
 1029YOPC   NC313819  13.411  17.936   6.173 -0.0949  0.1065 -0.0851
 1029YOPC   PO413820  13.849  18.008   5.918  0.2801 -0.0632 -0.0231
 1029YOPC   GL113821  13.941  17.838   6.348 -0.0206 -0.4294 -0.1001
 1029YOPC   GL213822  13.928  17.500   6.481 -0.1013 -0.0498  0.1340
 1029YOPC   C1A13823  14.029  18.018   6.768  0.1269 -0.1300 -0.1378
 1029YOPC   D2A13824  13.966  18.039   7.205  0.4100  0.1129 -0.4660
 1029YOPC   C3A13825  14.059  18.108   7.672  0.2893 -0.0493  0.0329
 1029YOPC   C4A13826  14.279  18.306   7.995 -0.0719 -0.1940 -0.1900
 1029YOPC   C1B13827  14.134  17.102   6.735 -0.1517  0.0732 -0.2289
 1029YOPC   C2B13828  14.090  16.865   7.166  0.0896 -0.0972  0.1761
 1029YOPC   D3B13829  14.425  16.652   7.398  0.0602 -0.0469 -0.0779
 1029YOPC   C4B13830  14.481  16.552   7.806  0.0762  0.1220 -0.1419
 1030YOPC   NC313831  11.381  17.007   6.335  0.0056 -0.1683  0.2024
 1030YOPC   PO413832  10.981  16.969   6.438 -0.4389  0.0551 -0.1512
 1030YOPC   GL113833  11.151  16.787   6.788 -0.1335 -0.5181  0.1263
 1030YOPC   GL213834  11.537  16.775   6.746 -0.0124 -0.2755  0.0614
 1030YOPC   C1A13835  11.181  16.514   7.114  0.2071  0.1016  0.0709
 1030YOPC   D2A13836  11.388  16.460   7.532  0.0832  0.0468 -0.0937
 1030YOPC   C3A13837  11.335  16.516   7.889 -0.1649  0.2382 -0.1288
 1030YOPC   C4A13838  11.509  16.534   8.318 -0.1375 -0.2644  0.2229
 1030YOPC   C1B13839  11.516  16.969   7.204 -0.2447  0.2145  0.1478
 1030YOPC   C2B13840  11.491  17.075   7.647 -0.1410 -0.4703  0.0337
 1030YOPC   D3B13841  11.235  16.996   7.998  0.2129 -0.1431  0.0381
 1030YOPC   C4B13842  11.412  16.969   8.295  0.0623 -0.3368  0.0085
 1031YOPC   NC313843  15.964   1.567   5.673  0.2487  0.1169  0.0357
 1031YOPC   PO413844  16.385   1.382   5.863 -0.1575  0.0285  0.1713
 1031YOPC   GL113845  16.583   1.419   6.257  0.1597  0.3211 -0.0494
 1031YOPC   GL213846  16.689   1.118   6.427 -0.0102  0.1755  0.0947
 1031YOPC   C1A13847  16.751   1.692   6.621  0.1018  0.1958 -0.1374
 1031YOPC   D2A13848  17.091   1.765   6.861  0.3333  0.2310 -0.0152
 1031YOPC   C3A13849  17.074   2.211   7.086 -0.3939  0.0514 -0.0022
 1031YOPC   C4A13850  16.841   2.475   7.243  0.0777  0.1033 -0.0395
 1031YOPC   C1B13851  16.486   1.263   6.880  0.3403  0.2205 -0.0929
 1031YOPC   C2B13852  16.534   1.515   7.125 -0.0050 -0.1182  0.1188
 1031YOPC   D3B13853  16.708   1.946   7.142  0.2009 -0.0484 -0.0140
 1031YOPC   C4B13854  16.656   2.214   6.751  0.0501  0.0545  0.1575
 1032YOPC   NC313855  12.791  10.794   5.726 -0.0422 -0.1742 -0.2813
 1032YOPC   PO413856  12.432  10.719   6.069 -0.0352  0.1271  0.3834
 1032YOPC   GL113857  12.455  10.784   6.511  0.1367  0.0507 -0.0466
 1032YOPC   GL213858  12.815  10.897   6.536  0.0007  0.0227 -0.0115
 1032YOPC   C1A13859  12.395  10.735   6.960 -0.0984  0.1162 -0.0734
 1032YOPC   D2A13860  12.520  10.968   7.311  0.1593 -0.2399 -0.1939
 1032YOPC   C3A13861  12.373  11.385   7.364 -0.0508  0.2892  0.0924
 1032YOPC   C4A13862  12.322  11.797   7.644  0.0602  0.1618  0.0306
 1032YOPC   C1B13863  12.878  10.791   6.986 -0.0967  0.1543 -0.1376
 1032YOPC   C2B13864  12.922  10.700   7.396 -0.1578  0.0216 -0.1556
 1032YOPC   D3B13865  12.521  10.656   7.736  0.0688 -0.2482  0.2350
 1032YOPC   C4B13866  12.401  10.241   7.968 -0.0922 -0.0640 -0.0649
 1033YOPC   NC313867   9.308  10.839   4.904 -0.0289  0.0690  0.0586
 1033YOPC   PO413868   9.242  11.030   5.238 -0.4114 -0.0865  0.1480
 1033YOPC   GL113869   9.167  11.142   5.638  0.3123 -0.0157  0.1015
 1033YOPC   GL213870   8.835  11.275   5.566 -0.1048 -0.2285 -0.3831
 1033YOPC   C1A13871   9.007  11.092   6.003 -0.0381 -0.0272 -0.2421
 1033YOPC   D2A13872   8.748  10.910   6.343 -0.0433 -0.2505  0.0037
 1033YOPC   C3A13873   8.587  11.085   6.645  0.6157  0.0862  0.1988
 1033YOPC   C4A13874   8.736  10.988   7.075  0.2303  0.0856  0.1080
 1033YOPC   C1B13875   8.458  11.226   5.757 -0.1889 -0.1413 -0.0665
 1033YOPC   C2B13876   8.015  11.110   5.722 -0.1488 -0.1671  0.0700
 1033YOPC   D3B13877   7.915  10.732   5.725  0.2121 -0.1661 -0.1243
 1033YOPC   C4B13878   8.108  10.476   6.000  0.0361 -0.2944  0.3875
 1034YOPC   NC313879  15.514  11.771   5.605 -0.0918  0.0700  0.2623
 1034YOPC   PO413880  15.084  11.827   5.613 -0.0668 -0.2198  0.0177
 1034YOPC   GL113881  15.348  11.752   6.062  0.1879  0.0962 -0.1226
 1034YOPC   GL213882  15.634  11.837   6.079  0.0621 -0.2423 -0.0587
 1034YOPC   C1A13883  15.358  11.731   6.529 -0.2631 -0.2409 -0.0197
 1034YOPC   D2A13884  15.480  11.681   6.962 -0.0594 -0.2390 -0.3521
 1034YOPC   C3A13885  15.487  11.266   7.126 -0.0954  0.0997  0.1336
 1034YOPC   C4A13886  15.689  10.979   7.021  0.0091  0.2739  0.0933
 1034YOPC   C1B13887  15.821  11.626   6.476 -0.0346 -0.0492 -0.3116
 1034YOPC   C2B13888  15.941  11.410   6.846 -0.0376 -0.0905  0.2072
 1034YOPC   D3B13889  16.079  11.562   7.136 -0.0756  0.0434 -0.1598
 1034YOPC   C4B13890  16.158  11.626   7.648 -0.1138 -0.3126 -0.0994
 1035YOPC   NC313891  18.173  10.721   5.418  0.0164 -0.0649 -0.0096
 1035YOPC   PO413892  18.557  11.009   5.626 -0.0341 -0.0754 -0.0771
 1035YOPC   GL113893  18.588  11.029   6.127 -0.0653 -0.5557 -0.2144
 1035YOPC   GL213894  18.305  11.171   6.318 -0.0822  0.3080  0.0809
 1035YOPC   C1A13895  18.734  11.015   6.556  0.0374  0.2319 -0.0621
 1035YOPC   D2A13896  18.700  10.934   7.038  0.0588 -0.2307  0.1563
 1035YOPC   C3A13897  18.797  11.170   7.393 -0.0653 -0.0214  0.0440
 1035YOPC   C4A13898  18.998  11.601   7.615 -0.1509  0.0950 -0.0245
 1035YOPC   C1B13899  18.310  11.125   6.795  0.0330  0.0749  0.0176
 1035YOPC   C2B13900  18.231  11.278   7.257  0.0576 -0.5966 -0.0662
 1035YOPC   D3B13901  17.782  11.035   7.437 -0.0952  0.2297  0.1552
 1035YOPC   C4B13902  17.523  11.188   7.687  0.3654  0.3454  0.4292
 1036YOPC   NC313903  17.963   8.462   5.638  0.3891  0.2123  0.0459
 1036YOPC   PO413904  17.963   8.050   5.701 -0.4207 -0.2508 -0.1044
 1036YOPC   GL113905  17.743   8.021   6.047 -0.1591 -0.2240  0.3613
 1036YOPC   GL213906  17.386   8.060   6.051  0.1569  0.2671  0.0165
 1036YOPC   C1A13907  17.623   7.765   6.420 -0.0463 -0.0520 -0.0457
 1036YOPC   D2A13908  17.686   7.919   6.849 -0.1285  0.1179  0.2256
 1036YOPC   C3A13909  17.515   7.756   7.189  0.1491 -0.0949 -0.1037
 1036YOPC   C4A13910  17.425   7.778   7.663 -0.2265  0.2338  0.0582
 1036YOPC   C1B13911  17.413   8.256   6.381 -0.1009  0.1695  0.1446
 1036YOPC   C2B13912  17.235   8.133   6.740  0.3496  0.0482  0.0761
 1036YOPC   D3B13913  17.328   8.293   7.052  0.1132 -0.1070 -0.1531
 1036YOPC   C4B13914  17.535   8.256   7.329 -0.0748  0.2863 -0.3250
 1037YOPC   NC313915  17.254  10.444   5.274  0.0108  0.0073  0.1014
 1037YOPC   PO413916  16.796  10.178   5.424 -0.2690 -0.2444 -0.1267
 1037YOPC   GL113917  17.188  10.127   5.667  0.1989  0.1441 -0.1475
 1037YOPC   GL213918  17.191   9.802   5.697  0.0916  0.0523  0.0108
 1037YOPC   C1A13919  17.427  10.240   5.937  0.1532  0.2644 -0.1513
 1037YOPC   D2A13920  17.405  10.217   6.350  0.0659  0.4395 -0.0665
 1037YOPC   C3A13921  17.449  10.190   6.809 -0.0214  0.1956  0.1141
 1037YOPC   C4A13922  17.505  10.183   7.174  0.1995 -0.2487 -0.2038
 1037YOPC   C1B13923  17.370   9.733   6.137 -0.0400 -0.1295 -0.3631
 1037YOPC   C2B13924  17.705   9.822   6.279 -0.1619  0.2236 -0.1150
 1037YOPC   D3B13925  17.963   9.881   6.676  0.1368  0.1061 -0.0119
 1037YOPC   C4B13926  17.960  10.187   6.952  0.1530  0.0028 -0.1341
 1038YOPC   NC313927  13.277  10.295   6.068  0.2370  0.0289  0.3060
 1038YOPC   PO413928  13.597  10.170   6.068 -0.2012  0.2957  0.0699
 1038YOPC   GL113929  13.581  10.095   6.470 -0.0394  0.1267 -0.0872
 1038YOPC   GL213930  13.745   9.787   6.455 -0.3173  0.2414  0.2685
 1038YOPC   C1A13931  13.631  10.242   6.922  0.3609  0.0558  0.0791
 1038YOPC   D2A13932  13.748  10.587   7.155 -0.0175  0.2693  0.2427
 1038YOPC   C3A13933  13.926  10.406   7.487  0.1251  0.2116  0.2402
 1038YOPC   C4A13934  13.888  10.071   7.719  0.3319  0.1965  0.1428
 1038YOPC   C1B13935  13.417   9.731   6.708 -0.0357  0.0778  0.0097
 1038YOPC   C2B13936  13.179   9.436   6.990  0.1389  0.0540  0.1031
 1038YOPC   D3B13937  13.356   9.264   7.361 -0.0602  0.2469  0.1450
 1038YOPC   C4B13938  13.600   9.080   7.745  0.1294 -0.0536  0.0431
 1039YOPC   NC313939  16.654   3.328   5.736  0.1966  0.1941  0.2188
 1039YOPC   PO413940  16.986   3.128   5.797  0.0303 -0.0982 -0.2631
 1039YOPC   GL113941  16.988   3.065   6.214 -0.1488  0.2444 -0.0698
 1039YOPC   GL213942  16.663   3.072   6.386 -0.0247 -0.0663  0.2183
 1039YOPC   C1A13943  17.060   3.198   6.600 -0.1632 -0.2593 -0.1688
 1039YOPC   D2A13944  17.487   3.210   6.843  0.0889  0.1931 -0.4079
 1039YOPC   C3A13945  17.441   3.397   7.229 -0.1244  0.0211 -0.0157
 1039YOPC   C4A13946  17.528   3.515   7.561  0.2903 -0.0273  0.2820
 1039YOPC   C1B13947  16.436   3.227   6.797 -0.2342 -0.0618 -0.1785
 1039YOPC   C2B13948  16.563   3.439   7.080  0.2193  0.1726 -0.2384
 1039YOPC   D3B13949  16.557   3.430   7.496 -0.1038  0.1785 -0.0277
 1039YOPC   C4B13950  16.635   3.501   7.877 -0.0822  0.0155 -0.1075
 1040YOPC   NC313951  15.981  16.931   6.338 -0.0754 -0.1877  0.1122
 1040YOPC   PO413952  15.645  17.251   6.172  0.1353  0.0797 -0.3489
 1040YOPC   GL113953  15.446  17.268   6.614 -0.0499  0.1716  0.0507
 1040YOPC   GL213954  15.675  17.042   6.761  0.0039 -0.0894  0.1248
 1040YOPC   C1A13955  15.606  17.505   6.907 -0.2192 -0.0438  0.0458
 1040YOPC   D2A13956  16.028  17.751   7.127 -0.1685 -0.0425 -0.2925
 1040YOPC   C3A13957  16.059  17.854   7.501 -0.3696 -0.0305  0.1354
 1040YOPC   C4A13958  16.183  17.904   8.007  0.2663 -0.0046  0.0268
 1040YOPC   C1B13959  15.619  17.101   7.228  0.0153  0.1863 -0.1054
 1040YOPC   C2B13960  15.695  17.221   7.702 -0.1520  0.2525 -0.0590
 1040YOPC   D3B13961  15.851  17.541   7.916  0.0349  0.2320 -0.0986
 1040YOPC   C4B13962  15.679  17.744   8.222  0.1812 -0.2581  0.1078
 1041YOPC   NC313963   6.782  15.880   5.360  0.2843  0.0820 -0.1964
 1041YOPC   PO413964   7.162  16.061   5.595 -0.2786  0.0790  0.2613
 1041YOPC   GL113965   7.107  16.237   6.075 -0.1976  0.3461 -0.0944
 1041YOPC   GL213966   7.164  16.601   6.019 -0.0631  0.1298  0.1703
 1041YOPC   C1A13967   6.991  15.948   6.510 -0.1259  0.2177 -0.0229
 1041YOPC   D2A13968   6.819  16.102   6.906  0.0178  0.0649 -0.2687
 1041YOPC   C3A13969   7.106  16.072   7.208  0.0501 -0.0380  0.0198
 1041YOPC   C4A13970   7.549  16.206   7.205  0.0153 -0.1387  0.0855
 1041YOPC   C1B13971   6.986  16.554   6.482  0.3828 -0.2446 -0.0516
 1041YOPC   C2B13972   7.155  16.398   6.732 -0.1097 -0.2433  0.1803
 1041YOPC   D3B13973   7.217  16.546   7.103  0.1072  0.1726 -0.1636
 1041YOPC   C4B13974   7.261  16.508   7.532 -0.0735  0.0056  0.2806
 1042YOPC   NC313975  13.074   2.195   6.097  0.2405 -0.2426 -0.0035
 1042YOPC   PO413976  13.091   2.565   5.943  0.4200 -0.0342  0.1890
 1042YOPC   GL113977  13.054   2.911   6.162  0.1206 -0.0755  0.1292
 1042YOPC   GL213978  12.836   3.071   6.295  0.3599 -0.3604 -0.3173
 1042YOPC   C1A13979  13.209   3.043   6.610 -0.1919 -0.4879 -0.1308
 1042YOPC   D2A13980  13.336   3.188   6.985 -0.6205  0.2361  0.1462
 1042YOPC   C3A13981  13.197   3.230   7.450 -0.1490  0.2428 -0.1497
 1042YOPC   C4A13982  13.109   3.046   7.793  0.0314 -0.0822 -0.0045
 1042YOPC   C1B13983  12.812   3.314   6.739 -0.0851  0.0324  0.1499
 1042YOPC   C2B13984  12.651   3.385   7.162 -0.2764  0.2284  0.0052
 1042YOPC   D3B13985  12.761   3.455   7.578 -0.0693 -0.0805  0.0256
 1042YOPC   C4B13986  13.019   3.570   7.905  0.4301 -0.2506 -0.0606
 1043YOPC   NC313987  15.992   0.042   5.660  0.1135 -0.1258 -0.0260
 1043YOPC   PO413988  15.910   0.003   6.041  0.1142  0.1295 -0.1184
 1043YOPC   GL113989  15.963   0.232   6.414  0.1996  0.2242 -0.2839
 1043YOPC   GL213990  16.247   0.141   6.578 -0.3851 -0.0259 -0.0483
 1043YOPC   C1A13991  15.866   0.522   6.747  0.0204  0.2826  0.1020
 1043YOPC   D2A13992  15.972   0.683   7.181  0.0566 -0.1454  0.0250
 1043YOPC   C3A13993  16.375   0.854   7.225 -0.0570  0.1872  0.0928
 1043YOPC   C4A13994  16.716   0.604   7.308 -0.0359 -0.1442 -0.2149
 1043YOPC   C1B13995  16.279   0.269   6.855 -0.1895 -0.0147  0.1522
 1043YOPC   C2B13996  16.330   0.290   7.277  0.2043  0.2725  0.0154
 1043YOPC   D3B13997  16.220   0.543   7.645 -0.2138  0.1812 -0.1772
 1043YOPC   C4B13998  16.233   0.449   7.947 -0.0855  0.3114  0.0284
 1044YOPC   NC313999   9.132  17.689   5.406  0.3024  0.0425  0.2047
 1044YOPC   PO414000   8.858  17.589   5.789  0.0558 -0.2050  0.2326
 1044YOPC   GL114001   9.028  17.929   6.076  0.3571 -0.0606 -0.3041
 1044YOPC   GL214002   8.722  18.020   6.170  0.0947 -0.0372 -0.3247
 1044YOPC   C1A14003   9.157  18.122   6.527  0.2316  0.0719 -0.2302
 1044YOPC   D2A14004   9.122  17.875   6.798 -0.0783  0.1468 -0.0726
 1044YOPC   C3A14005   9.313  17.459   6.754 -0.0205 -0.0819  0.0004
 1044YOPC   C4A14006   9.501  17.191   6.515  0.2539 -0.2832 -0.1485
 1044YOPC   C1B14007   8.685  17.849   6.529  0.0539  0.1367  0.2826
 1044YOPC   C2B14008   8.679  17.914   6.951  0.2299  0.2296  0.0889
 1044YOPC   D3B14009   8.869  18.277   7.128  0.0871 -0.1684  0.3124
 1044YOPC   C4B14010   8.858  18.437   7.615 -0.1075  0.2726 -0.1718
 1045YOPC   NC314011   8.050  15.345   5.902  0.0573 -0.1979  0.0657
 1045YOPC   PO414012   7.674  15.327   5.820  0.0647  0.0470  0.1308
 1045YOPC   GL114013   7.664  15.245   6.206 -0.3769  0.2763 -0.0681
 1045YOPC   GL214014   7.795  14.980   6.257 -0.4109  0.0071  0.3190
 1045YOPC   C1A14015   7.538  15.234   6.741 -0.1325  0.0972 -0.1229
 1045YOPC   D2A14016   7.687  14.966   7.176  0.0723 -0.0576  0.0602
 1045YOPC   C3A14017   7.357  14.755   7.452  0.2140 -0.0798  0.0893
 1045YOPC   C4A14018   7.311  14.417   7.764  0.0052 -0.1030 -0.0978
 1045YOPC   C1B14019   7.801  14.792   6.710 -0.5676 -0.1587 -0.1592
 1045YOPC   C2B14020   7.811  14.484   7.073 -0.1560  0.2448  0.0405
 1045YOPC   D3B14021   7.807  14.546   7.518  0.0728 -0.0579 -0.0785
 1045YOPC   C4B14022   7.819  14.543   7.931 -0.0401 -0.3111 -0.1718
 1046YOPC   NC314023   5.202  13.863   5.824  0.0776 -0.1608  0.1007
 1046YOPC   PO414024   4.936  13.927   6.050 -0.3321  0.2141  0.1220
 1046YOPC   GL114025   4.890  13.698   6.428  0.2548  0.0965  0.2436
 1046YOPC   GL214026   5.064  13.830   6.663 -0.2638 -0.0749  0.1387
 1046YOPC   C1A14027   4.756  13.624   6.954 -0.2777 -0.1898  0.2541
 1046YOPC   D2A14028   4.656  13.524   7.457 -0.0862  0.3355  0.3335
 1046YOPC   C3A14029   5.015  13.340   7.781 -0.2413 -0.2887 -0.1130
 1046YOPC   C4A14030   5.103  13.080   8.138 -0.0123 -0.2210  0.1103
 1046YOPC   C1B14031   5.105  13.994   7.007  0.1658  0.1120  0.2816
 1046YOPC   C2B14032   5.083  14.007   7.381  0.1183  0.0224  0.0843
 1046YOPC   D3B14033   5.021  13.879   7.695  0.0769  0.1268 -0.1904
 1046YOPC   C4B14034   4.798  13.934   8.020  0.1091 -0.3642  0.3762
 1047YOPC   NC314035  17.074  14.536   5.900  0.3270  0.0970  0.0127
 1047YOPC   PO414036  17.452  14.331   5.780  0.0097  0.3305 -0.3314
 1047YOPC   GL114037  17.412  14.166   6.075 -0.0392  0.1275 -0.0165
 1047YOPC   GL214038  17.121  14.089   6.221 -0.1436  0.1400  0.0965
 1047YOPC   C1A14039  17.470  13.784   6.436 -0.0159 -0.1616  0.2491
 1047YOPC   D2A14040  17.436  13.763   6.866 -0.0078 -0.0740 -0.0197
 1047YOPC   C3A14041  17.395  13.459   7.149 -0.1521 -0.0396  0.0276
 1047YOPC   C4A14042  17.370  13.481   7.547 -0.0529  0.1988  0.2282
 1047YOPC   C1B14043  17.257  14.289   6.590  0.1900  0.0640 -0.1702
 1047YOPC   C2B14044  17.003  14.471   6.782 -0.0031 -0.2465  0.0888
 1047YOPC   D3B14045  16.986  14.419   7.214 -0.0434 -0.1307 -0.1191
 1047YOPC   C4B14046  16.868  14.362   7.606  0.0441  0.0773  0.0581
 1048YOPC   NC314047   4.484   9.278   5.269 -0.1297  0.0834  0.0496
 1048YOPC   PO414048   4.228   9.051   5.457  0.0792 -0.0954  0.0054
 1048YOPC   GL114049   4.157   8.791   5.865  0.1864 -0.2454  0.1996
 1048YOPC   GL214050   4.398   8.582   5.864 -0.3154 -0.0505  0.3308
 1048YOPC   C1A14051   3.901   8.657   6.179  0.0218  0.3512  0.0723
 1048YOPC   D2A14052   3.605   8.364   6.389  0.1974  0.1682 -0.2419
 1048YOPC   C3A14053   3.494   8.316   6.827  0.2250 -0.2389  0.0411
 1048YOPC   C4A14054   3.415   8.219   7.265  0.0122 -0.0476 -0.0417
 1048YOPC   C1B14055   4.383   8.474   6.212 -0.0033  0.0040 -0.3144
 1048YOPC   C2B14056   4.624   8.531   6.545  0.2012 -0.0792 -0.0511
 1048YOPC   D3B14057   4.569   8.386   6.975  0.1572  0.0669 -0.3485
 1048YOPC   C4B14058   4.478   8.078   7.274  0.0268  0.6037 -0.1143
 1049YOPC   NC314059   4.643  10.770   6.037 -0.1867  0.2447 -0.2147
 1049YOPC   PO414060   4.907  10.512   5.925  0.0531  0.1512  0.1713
 1049YOPC   GL114061   4.961  10.231   6.368 -0.2437 -0.1981 -0.0611
 1049YOPC   GL214062   5.111   9.993   6.454  0.0403  0.1294 -0.0758
 1049YOPC   C1A14063   4.956  10.297   6.788  0.1338 -0.1581 -0.0017
 1049YOPC   D2A14064   5.096  10.394   7.164 -0.0579 -0.1648  0.3650
 1049YOPC   C3A14065   4.844  10.449   7.584 -0.2637  0.1329 -0.1349
 1049YOPC   C4A14066   4.505  10.554   7.704  0.2035 -0.1905  0.1537
 1049YOPC   C1B14067   5.362   9.984   6.763  0.0919  0.0745 -0.1667
 1049YOPC   C2B14068   5.500   9.875   7.232  0.0937 -0.2000  0.2238
 1049YOPC   D3B14069   5.346   9.703   7.485 -0.2643  0.2807  0.0774
 1049YOPC   C4B14070   4.877   9.627   7.629  0.0017  0.2529  0.0802
 1050YOPC   NC314071   4.029  11.802   5.926 -0.0286  0.1193 -0.0644
 1050YOPC   PO414072   3.727  11.533   6.063 -0.0801  0.1030  0.0596
 1050YOPC   GL114073   3.393  11.531   6.263  0.2218  0.1100  0.2550
 1050YOPC   GL214074   3.325  11.239   6.297 -0.1669  0.2190 -0.0294
 1050YOPC   C1A14075   3.399  11.470   6.780 -0.1173  0.0494  0.0875
 1050YOPC   D2A14076   3.194  11.542   7.195 -0.1874 -0.0599 -0.1602
 1050YOPC   C3A14077   3.175  11.307   7.603  0.0679  0.1267 -0.0370
 1050YOPC   C4A14078   2.996  10.989   7.936  0.2669 -0.1506  0.1314
 1050YOPC   C1B14079   3.154  11.057   6.673  0.0587 -0.1810 -0.3917
 1050YOPC   C2B14080   3.012  11.106   6.969  0.0717 -0.1238  0.2395
 1050YOPC   D3B14081   2.716  10.903   6.863 -0.0252  0.1878 -0.0449
 1050YOPC   C4B14082   2.550  10.804   6.542  0.0991 -0.1727  0.1212
 1051YOPC   NC314083   9.510   4.039   5.700  0.3018  0.1816  0.0836
 1051YOPC   PO414084   9.929   4.109   5.912 -0.1421  0.1090  0.2736
 1051YOPC   GL114085   9.837   3.940   6.298 -0.0537  0.1449  0.0359
 1051YOPC   GL214086  10.028   3.754   6.508  0.0633  0.0570 -0.1602
 1051YOPC   C1A14087   9.533   3.622   6.528  0.2672 -0.1093  0.4346
 1051YOPC   D2A14088   9.172   3.228   6.676  0.1023 -0.0422  0.0314
 1051YOPC   C3A14089   9.270   3.126   7.163 -0.0907  0.3383 -0.1780
 1051YOPC   C4A14090   9.272   2.981   7.559  0.0079 -0.2860  0.2856
 1051YOPC   C1B14091   9.806   3.813   6.883  0.0801 -0.2486  0.0298
 1051YOPC   C2B14092   9.635   3.639   7.240 -0.1289  0.0204  0.0078
 1051YOPC   D3B14093   9.387   3.890   7.621  0.1631  0.1256  0.0019
 1051YOPC   C4B14094   9.322   4.114   7.978 -0.1583 -0.1001  0.0625
 1052YOPC   NC314095   4.435  17.597   5.831  0.0924 -0.1561 -0.1170
 1052YOPC   PO414096   4.482  17.074   5.834 -0.1693  0.1914 -0.0964
 1052YOPC   GL114097   4.677  17.215   6.152 -0.0741 -0.1960 -0.1129
 1052YOPC   GL214098   4.409  17.455   6.415 -0.0101 -0.1247  0.0183
 1052YOPC   C1A14099   4.891  17.178   6.506 -0.1867 -0.0923 -0.3652
 1052YOPC   D2A14100   5.077  17.196   6.899  0.1738 -0.1245  0.2237
 1052YOPC   C3A14101   4.896  17.107   7.299  0.4553  0.0362 -0.0398
 1052YOPC   C4A14102   4.663  17.273   7.705  0.0362 -0.0355  0.1496
 1052YOPC   C1B14103   4.555  17.322   6.837 -0.2566  0.1968 -0.1525
 1052YOPC   C2B14104   4.584  17.494   7.221  0.1357 -0.0771  0.0355
 1052YOPC   D3B14105   4.409  17.674   7.564 -0.2057 -0.0002 -0.0107
 1052YOPC   C4B14106   4.178  17.518   7.918 -0.0841 -0.2543  0.1215
 1053YOPC   NC314107  12.978  17.163   6.410 -0.1235 -0.2211 -0.0997
 1053YOPC   PO414108  13.192  16.792   6.366  0.1080  0.2205  0.0303
 1053YOPC   GL114109  13.245  16.845   6.879  0.0557 -0.1210 -0.0228
 1053YOPC   GL214110  13.115  17.073   6.898 -0.2421  0.1991  0.0876
 1053YOPC   C1A14111  13.282  16.531   7.187  0.0969  0.0215 -0.1699
 1053YOPC   D2A14112  13.331  16.382   7.605 -0.2286  0.0569 -0.1897
 1053YOPC   C3A14113  13.175  16.695   7.942 -0.0686  0.3787 -0.1908
 1053YOPC   C4A14114  12.999  16.949   8.232  0.0850 -0.2350 -0.0208
 1053YOPC   C1B14115  13.396  16.999   7.286  0.2299  0.1248 -0.1052
 1053YOPC   C2B14116  13.670  16.722   7.406  0.0251 -0.0048  0.0989
 1053YOPC   D3B14117  14.019  16.743   7.825  0.1696  0.0198  0.0831
 1053YOPC   C4B14118  14.204  16.729   8.270  0.0288 -0.0776  0.1989
 1054YOPC   NC314119   3.115  16.621   6.287  0.2937  0.0211  0.2521
 1054YOPC   PO414120   2.632  16.506   6.352 -0.0834 -0.2672 -0.0913
 1054YOPC   GL114121   2.904  16.378   6.666  0.2419 -0.0802 -0.0391
 1054YOPC   GL214122   3.141  16.101   6.494 -0.0990 -0.0627 -0.3727
 1054YOPC   C1A14123   2.868  16.507   7.123 -0.0280  0.0749  0.0666
 1054YOPC   D2A14124   2.844  16.614   7.507 -0.4089 -0.3324 -0.2377
 1054YOPC   C3A14125   2.836  17.009   7.618 -0.0079  0.1812 -0.1405
 1054YOPC   C4A14126   2.765  17.227   7.943  0.0967  0.0736 -0.0818
 1054YOPC   C1B14127   2.997  15.937   6.938  0.0556 -0.1719  0.1360
 1054YOPC   C2B14128   2.917  15.848   7.255  0.2048  0.1719  0.2956
 1054YOPC   D3B14129   2.634  16.101   7.431 -0.0727 -0.0842 -0.0465
 1054YOPC   C4B14130   2.651  16.286   7.843 -0.0622 -0.1520  0.0781
 1055YOPC   NC314131  16.744  12.240   5.701 -0.3518  0.0146  0.1778
 1055YOPC   PO414132  16.834  12.664   5.762  0.0112  0.1294 -0.0020
 1055YOPC   GL114133  16.733  12.799   6.156  0.0123  0.0404 -0.1520
 1055YOPC   GL214134  17.090  12.711   6.241  0.1839  0.2284 -0.1409
 1055YOPC   C1A14135  16.867  12.947   6.576  0.0002 -0.4001  0.1640
 1055YOPC   D2A14136  17.150  13.085   6.891 -0.0617 -0.0931  0.0689
 1055YOPC   C3A14137  17.235  13.033   7.355 -0.2189 -0.0290 -0.0686
 1055YOPC   C4A14138  17.480  13.025   7.694 -0.0091  0.0447 -0.2634
 1055YOPC   C1B14139  17.335  13.056   6.343  0.3040 -0.0006  0.0713
 1055YOPC   C2B14140  17.613  13.310   6.576 -0.1054  0.0221  0.1278
 1055YOPC   D3B14141  17.653  13.067   6.996  0.1229  0.1818 -0.1789
 1055YOPC   C4B14142  17.774  12.861   7.333 -0.3455 -0.6120 -0.3122
 1056YOPC   NC314143   1.861   0.990   6.007 -0.1179  0.1427  0.0871
 1056YOPC   PO414144   1.618   1.357   6.055  0.0389 -0.0971 -0.0038
 1056YOPC   GL114145   1.734   1.381   6.425 -0.1035 -0.1631 -0.0088
 1056YOPC   GL214146   2.044   1.632   6.389 -0.0854  0.0837  0.1865
 1056YOPC   C1A14147   1.584   1.540   6.840 -0.1456 -0.2289  0.1907
 1056YOPC   D2A14148   1.505   1.729   7.164 -0.1568 -0.0523  0.0045
 1056YOPC   C3A14149   1.704   1.621   7.590 -0.2453  0.1505  0.1140
 1056YOPC   C4A14150   1.820   1.394   7.847 -0.1583  0.0311 -0.1074
 1056YOPC   C1B14151   2.047   1.744   6.754  0.0335 -0.0241  0.2022
 1056YOPC   C2B14152   2.015   1.974   7.095  0.2020 -0.1122 -0.1024
 1056YOPC   D3B14153   2.087   1.835   7.432 -0.1181 -0.0675  0.0952
 1056YOPC   C4B14154   2.030   1.956   7.855 -0.1981  0.0173 -0.2285
 1057YOPC   NC314155   6.058  14.632   5.820  0.1668 -0.1412 -0.1181
 1057YOPC   PO414156   6.490  14.782   5.680 -0.1009  0.0409  0.0281
 1057YOPC   GL114157   6.392  14.633   6.159  0.0256 -0.1746 -0.1248
 1057YOPC   GL214158   6.193  14.922   6.260  0.0707  0.3772  0.0826
 1057YOPC   C1A14159   6.170  14.372   6.476  0.4748  0.1977  0.2805
 1057YOPC   D2A14160   5.947  14.223   6.875  0.3672  0.0620 -0.2316
 1057YOPC   C3A14161   5.978  14.319   7.275 -0.1110  0.0107 -0.2689
 1057YOPC   C4A14162   5.976  14.190   7.721  0.0176  0.0976 -0.1503
 1057YOPC   C1B14163   6.351  14.772   6.688  0.0776  0.0436 -0.4692
 1057YOPC   C2B14164   6.312  14.557   7.054 -0.2397  0.1178  0.0113
 1057YOPC   D3B14165   6.349  14.553   7.542  0.0470  0.0235 -0.2561
 1057YOPC   C4B14166   6.207  14.545   7.968 -0.1127 -0.0505 -0.1022
 1058YOPC   NC314167   7.131  13.665   6.049 -0.2064  0.0504  0.4570
 1058YOPC   PO414168   7.481  13.849   5.862  0.1303 -0.0042 -0.1005
 1058YOPC   GL114169   7.471  13.999   6.327 -0.2211  0.0281 -0.0053
 1058YOPC   GL214170   7.200  14.071   6.294  0.0589  0.4708  0.0317
 1058YOPC   C1A14171   7.416  14.324   6.691 -0.1274 -0.3314 -0.1138
 1058YOPC   D2A14172   7.345  14.302   7.108  0.0198 -0.1197 -0.1111
 1058YOPC   C3A14173   7.503  14.124   7.451  0.3269  0.0854 -0.0510
 1058YOPC   C4A14174   7.530  13.978   7.867  0.2073 -0.0267  0.0755
 1058YOPC   C1B14175   7.275  13.895   6.820  0.1156  0.0960 -0.2417
 1058YOPC   C2B14176   7.271  13.778   7.116  0.0763 -0.1066 -0.1346
 1058YOPC   D3B14177   7.221  13.679   7.569 -0.2281 -0.0079  0.2706
 1058YOPC   C4B14178   7.421  13.513   7.954  0.4098 -0.3114  0.0695
 1059YOPC   NC314179  11.523  13.738   5.339  0.0288 -0.2744 -0.3621
 1059YOPC   PO414180  11.675  13.391   5.400  0.1861  0.0405 -0.0203
 1059YOPC   GL114181  11.593  13.674   5.842  0.1087 -0.2137 -0.3927
 1059YOPC   GL214182  11.613  13.417   6.064  0.1136 -0.1420 -0.0334
 1059YOPC   C1A14183  11.486  13.885   6.224 -0.1902 -0.0754 -0.0855
 1059YOPC   D2A14184  11.435  14.275   6.372  0.0909 -0.0591  0.2651
 1059YOPC   C3A14185  11.293  14.343   6.763  0.1199 -0.1054  0.0059
 1059YOPC   C4A14186  11.329  14.278   7.134  0.1668 -0.2804  0.0668
 1059YOPC   C1B14187  11.771  13.629   6.492  0.2705 -0.0149 -0.1383
 1059YOPC   C2B14188  11.829  13.511   6.880 -0.2204 -0.3304  0.1259
 1059YOPC   D3B14189  11.931  13.663   7.262  0.0862  0.0820 -0.0391
 1059YOPC   C4B14190  12.055  13.866   7.665 -0.1048  0.1504  0.1592
 1060YOPC   NC314191   2.656  17.435   5.930 -0.1607  0.2554  0.0176
 1060YOPC   PO414192   2.960  17.643   6.230  0.0085  0.0841 -0.1296
 1060YOPC   GL114193   2.741  17.383   6.556 -0.0623 -0.0506 -0.2364
 1060YOPC   GL214194   3.048  17.140   6.625  0.1204 -0.0203  0.3181
 1060YOPC   C1A14195   2.611  17.312   6.896  0.0445 -0.2707  0.1246
 1060YOPC   D2A14196   2.655  17.397   7.321 -0.0654 -0.0576  0.2043
 1060YOPC   C3A14197   2.362  17.127   7.602 -0.0761  0.1093  0.1356
 1060YOPC   C4A14198   2.268  17.297   7.973 -0.0290  0.1980 -0.0716
 1060YOPC   C1B14199   3.017  17.125   7.025 -0.4099  0.0523 -0.1235
 1060YOPC   C2B14200   3.160  17.443   7.396  0.1392 -0.0382 -0.0469
 1060YOPC   D3B14201   3.007  17.853   7.425 -0.1663  0.0496  0.2865
 1060YOPC   C4B14202   2.928  18.305   7.693  0.0233 -0.0755  0.1517
 1061YOPC   NC314203   4.632   4.490   5.643  0.1083 -0.0573  0.1784
 1061YOPC   PO414204   4.860   4.203   5.611 -0.2036  0.0165 -0.1425
 1061YOPC   GL114205   5.012   4.298   6.107 -0.3999  0.2546  0.1010
 1061YOPC   GL214206   4.738   4.269   6.210  0.0056 -0.3660 -0.2338
 1061YOPC   C1A14207   5.122   4.337   6.594  0.0969  0.2135 -0.0825
 1061YOPC   D2A14208   5.116   4.519   6.970  0.0998 -0.1870 -0.0822
 1061YOPC   C3A14209   5.458   4.494   7.359  0.1092  0.0942  0.1616
 1061YOPC   C4A14210   5.378   4.335   7.795  0.2041 -0.0445  0.5217
 1061YOPC   C1B14211   4.622   4.330   6.677  0.1681 -0.0014  0.1856
 1061YOPC   C2B14212   4.644   4.444   7.086 -0.2671  0.0043 -0.0947
 1061YOPC   D3B14213   4.497   4.243   7.370  0.5037 -0.3622 -0.3361
 1061YOPC   C4B14214   4.514   4.197   7.865  0.0637 -0.2448 -0.2565
 1062YOPC   NC314215  16.813  15.071   5.860 -0.0238  0.1160 -0.0300
 1062YOPC   PO414216  16.985  15.473   5.826  0.0747 -0.0391 -0.0702
 1062YOPC   GL114217  17.026  15.324   6.227  0.1157 -0.1369 -0.1502
 1062YOPC   GL214218  17.296  15.232   6.421 -0.2359 -0.1853 -0.0769
 1062YOPC   C1A14219  16.968  15.615   6.597  0.0686  0.0762 -0.0613
 1062YOPC   D2A14220  16.848  15.881   6.923  0.0301  0.0303  0.0650
 1062YOPC   C3A14221  17.068  15.868   7.355  0.1038  0.2398 -0.0278
 1062YOPC   C4A14222  17.287  15.992   7.811  0.3116 -0.0925 -0.1229
 1062YOPC   C1B14223  17.107  15.222   6.892 -0.1467 -0.3205  0.0755
 1062YOPC   C2B14224  17.057  15.287   7.285 -0.0765  0.2277  0.0187
 1062YOPC   D3B14225  17.025  14.975   7.543  0.0943 -0.2259  0.0316
 1062YOPC   C4B14226  16.855  14.752   7.944 -0.1051 -0.1413 -0.0129
 1063YOPC   NC314227  15.846   5.179   5.647  0.1809  0.3431  0.3117
 1063YOPC   PO414228  15.635   5.444   5.647 -0.2647  0.0475 -0.0391
 1063YOPC   GL114229  15.729   5.561   6.067  0.0444  0.0065  0.1899
 1063YOPC   GL214230  15.427   5.625   6.359 -0.0468  0.0563  0.0747
 1063YOPC   C1A14231  15.853   5.326   6.492  0.1664  0.1639 -0.2605
 1063YOPC   D2A14232  15.781   5.445   6.939  0.3392  0.2920  0.0456
 1063YOPC   C3A14233  15.906   5.168   7.255 -0.0035  0.1851  0.0333
 1063YOPC   C4A14234  16.055   5.069   7.577  0.1923 -0.2131 -0.0801
 1063YOPC   C1B14235  15.301   5.759   6.755 -0.0964  0.2667  0.1629
 1063YOPC   C2B14236  15.428   5.835   7.196  0.2075  0.1110 -0.1115
 1063YOPC   D3B14237  15.740   5.698   7.490  0.1819  0.2037 -0.0272
 1063YOPC   C4B14238  16.053   5.601   7.766 -0.2096  0.3127  0.0447
 1064YOPC   NC314239  17.523  13.264   5.530  0.0649 -0.0685  0.1003
 1064YOPC   PO414240  17.751  13.588   5.615  0.0053  0.2611  0.0252
 1064YOPC   GL114241  17.873  13.781   6.058  0.2013 -0.2272  0.0809
 1064YOPC   GL214242  17.879  14.103   6.039  0.0350 -0.0623 -0.0072
 1064YOPC   C1A14243  17.923  13.700   6.460 -0.1236  0.0487 -0.1292
 1064YOPC   D2A14244  17.901  13.565   6.856 -0.1102  0.2096  0.0702
 1064YOPC   C3A14245  17.859  13.828   7.257 -0.0553 -0.3065 -0.1884
 1064YOPC   C4A14246  17.761  13.776   7.712 -0.1355 -0.1259 -0.1419
 1064YOPC   C1B14247  17.751  14.224   6.426  0.1629 -0.1842  0.0359
 1064YOPC   C2B14248  17.766  14.160   6.837 -0.0074  0.1208  0.0314
 1064YOPC   D3B14249  17.455  14.198   7.106 -0.1777  0.5530 -0.1491
 1064YOPC   C4B14250  17.409  14.058   7.490 -0.3604  0.0035 -0.1092
 1065YOPC   NC314251   4.248   2.221   5.788 -0.1313 -0.1349  0.1916
 1065YOPC   PO414252   4.298   1.793   5.865 -0.0960 -0.2865 -0.2572
 1065YOPC   GL114253   4.284   2.048   6.310  0.0950  0.0094  0.0125
 1065YOPC   GL214254   4.588   2.205   6.451 -0.0370  0.0814 -0.0623
 1065YOPC   C1A14255   4.177   2.069   6.749 -0.2543  0.0565  0.0435
 1065YOPC   D2A14256   3.868   2.210   7.001 -0.2255  0.0724 -0.1711
 1065YOPC   C3A14257   3.879   1.992   7.407  0.0601  0.0507  0.2838
 1065YOPC   C4A14258   3.809   2.164   7.794  0.0805  0.0373 -0.2200
 1065YOPC   C1B14259   4.983   2.477   6.392  0.0151 -0.1730 -0.1311
 1065YOPC   C2B14260   5.181   2.851   6.500 -0.0361 -0.0813  0.0673
 1065YOPC   D3B14261   5.205   3.069   6.874 -0.2648 -0.2745 -0.1966
 1065YOPC   C4B14262   5.067   3.119   7.414  0.6566 -0.0168  0.2034
 1066YOPC   NC314263   0.872  10.728   5.618  0.0789  0.1361  0.0758
 1066YOPC   PO414264   0.737  10.990   5.873 -0.1351  0.0097  0.0171
 1066YOPC   GL114265   0.877  10.853   6.265 -0.0291  0.0194 -0.1727
 1066YOPC   GL214266   1.179  10.750   6.341  0.1603  0.1342  0.1250
 1066YOPC   C1A14267   0.777  10.648   6.745  0.0949 -0.0728 -0.1450
 1066YOPC   D2A14268   0.502  10.466   7.052  0.1699 -0.3786  0.0580
 1066YOPC   C3A14269   0.766  10.214   7.281  0.1551 -0.2469  0.1091
 1066YOPC   C4A14270   0.835   9.837   7.528 -0.2388  0.0420  0.1908
 1066YOPC   C1B14271   1.241  10.834   6.735  0.1635  0.1537 -0.1474
 1066YOPC   C2B14272   1.340  10.963   7.170  0.0308  0.0909  0.1593
 1066YOPC   D3B14273   1.429  10.773   7.542  0.0756 -0.0861  0.2790
 1066YOPC   C4B14274   1.533  10.499   7.882  0.0248 -0.0852  0.0472
 1067YOPC   NC314275  11.836   6.395   5.597  0.1596 -0.2046 -0.2438
 1067YOPC   PO414276  11.713   6.686   5.906  0.0226  0.0877 -0.0009
 1067YOPC   GL114277  11.611   6.751   6.331  0.0127 -0.0284  0.1895
 1067YOPC   GL214278  11.648   7.126   6.431  0.4209  0.1217  0.3671
 1067YOPC   C1A14279  11.640   6.686   6.710 -0.1905  0.0958 -0.4515
 1067YOPC   D2A14280  11.613   6.675   7.197  0.0406  0.4143 -0.0439
 1067YOPC   C3A14281  11.898   6.591   7.476  0.0211  0.0089 -0.1156
 1067YOPC   C4A14282  12.103   6.493   7.841  0.2138 -0.1131  0.2518
 1067YOPC   C1B14283  12.045   6.912   6.564  0.3646  0.1772 -0.0012
 1067YOPC   C2B14284  12.063   6.736   7.034  0.0576  0.1381 -0.0567
 1067YOPC   D3B14285  12.399   6.519   7.210  0.1889 -0.0282  0.0429
 1067YOPC   C4B14286  12.561   6.512   7.656  0.2593 -0.0162  0.0515
 1068YOPC   NC314287  16.950  17.955   6.555 -0.2068  0.0167 -0.0592
 1068YOPC   PO414288  17.186  18.297   6.590  0.2091  0.0237 -0.0182
 1068YOPC   GL114289  17.257  18.191   6.917  0.1845 -0.0692  0.1459
 1068YOPC   GL214290  17.026  17.938   7.021 -0.2522  0.2128 -0.0618
 1068YOPC   C1A14291  17.325  18.271   7.351  0.2165 -0.1278 -0.1451
 1068YOPC   D2A14292  17.413  18.418   7.792  0.0343 -0.0253 -0.1324
 1068YOPC   C3A14293  17.344  18.734   8.033 -0.0302 -0.2339  0.1137
 1068YOPC   C4A14294  17.259  18.937   8.334  0.2157 -0.1157  0.2565
 1068YOPC   C1B14295  17.013  17.944   7.523  0.0930  0.0235  0.0038
 1068YOPC   C2B14296  17.078  18.097   7.948  0.1000 -0.2455 -0.1458
 1068YOPC   D3B14297  17.301  17.815   8.285 -0.0550  0.1270  0.0246
 1068YOPC   C4B14298  17.296  17.815   8.676 -0.3284  0.2187 -0.4991
 1069YOPC   NC314299  12.078  13.393   5.713  0.0090  0.5318 -0.2504
 1069YOPC   PO414300  11.943  13.794   5.565 -0.0818 -0.3109 -0.0067
 1069YOPC   GL114301  12.017  13.871   6.057  0.0757 -0.0027 -0.2624
 1069YOPC   GL214302  12.156  13.517   6.174  0.0363 -0.1702  0.1859
 1069YOPC   C1A14303  11.884  14.119   6.458 -0.0556  0.2454 -0.1411
 1069YOPC   D2A14304  11.820  14.083   6.908  0.2516 -0.0175 -0.1074
 1069YOPC   C3A14305  11.716  14.094   7.362  0.0280 -0.0183  0.0434
 1069YOPC   C4A14306  11.443  14.360   7.597  0.0082  0.0353  0.1972
 1069YOPC   C1B14307  12.265  13.329   6.590 -0.0937  0.2529  0.1405
 1069YOPC   C2B14308  12.305  13.121   6.942 -0.0822  0.1589 -0.2881
 1069YOPC   D3B14309  12.234  12.811   7.239 -0.2314  0.0932 -0.0242
 1069YOPC   C4B14310  12.349  12.789   7.635  0.2018  0.0857 -0.2042
 1070YOPC   NC314311  14.849   8.795   5.983  0.1433  0.0929  0.2618
 1070YOPC   PO414312  15.291   8.870   5.945  0.3663 -0.2786 -0.1368
 1070YOPC   GL114313  15.621   9.153   6.262 -0.1060  0.1891 -0.2280
 1070YOPC   GL214314  15.647   8.808   6.461  0.4751  0.1629 -0.1407
 1070YOPC   C1A14315  15.516   9.387   6.646 -0.0548 -0.1929  0.0049
 1070YOPC   D2A14316  15.450   9.499   7.164  0.0353  0.1937  0.0179
 1070YOPC   C3A14317  15.752   9.273   7.481  0.2380  0.3559  0.0688
 1070YOPC   C4A14318  15.790   9.095   7.875  0.3311 -0.1778 -0.1080
 1070YOPC   C1B14319  15.844   8.614   6.781  0.1190  0.4540  0.0397
 1070YOPC   C2B14320  16.063   8.429   7.124  0.0954 -0.0218 -0.2969
 1070YOPC   D3B14321  15.953   8.249   7.417 -0.1657  0.0069 -0.0196
 1070YOPC   C4B14322  16.057   8.188   7.812  0.1324 -0.0183  0.0931
 1071YOPC   NC314323  10.232   6.486   5.772 -0.3037 -0.0165 -0.1325
 1071YOPC   PO414324  10.569   6.167   5.819  0.1735  0.1583 -0.0439
 1071YOPC   GL114325  10.517   6.315   6.193 -0.0618 -0.1739 -0.0144
 1071YOPC   GL214326  10.405   6.716   6.243 -0.0847 -0.1117 -0.1282
 1071YOPC   C1A14327  10.398   6.340   6.579 -0.0143  0.0692 -0.1486
 1071YOPC   D2A14328  10.429   6.411   6.965 -0.2266 -0.0100  0.2038
 1071YOPC   C3A14329  10.112   6.327   7.085 -0.2722 -0.0759 -0.0392
 1071YOPC   C4A14330   9.840   6.549   7.352  0.1826  0.0987 -0.2370
 1071YOPC   C1B14331  10.307   6.867   6.660  0.0122 -0.2983 -0.1088
 1071YOPC   C2B14332  10.080   6.823   6.998  0.1568  0.0291  0.0500
 1071YOPC   D3B14333  10.240   6.906   7.401 -0.2502  0.1777  0.1589
 1071YOPC   C4B14334  10.246   6.576   7.689 -0.1502 -0.3638  0.0740
 1072YOPC   NC314335   5.846   2.632   5.956 -0.1929  0.1619 -0.0981
 1072YOPC   PO414336   6.204   2.928   6.001  0.0186  0.0207  0.0173
 1072YOPC   GL114337   6.149   2.968   6.364 -0.1414  0.0525 -0.1389
 1072YOPC   GL214338   5.895   2.777   6.522 -0.1177 -0.1292  0.0460
 1072YOPC   C1A14339   6.215   2.879   6.845  0.1467 -0.0402  0.1666
 1072YOPC   D2A14340   6.408   2.970   7.281 -0.0226  0.0733 -0.0542
 1072YOPC   C3A14341   6.427   2.944   7.648 -0.1434  0.0818 -0.3692
 1072YOPC   C4A14342   6.241   2.923   8.035 -0.0229  0.0290 -0.3300
 1072YOPC   C1B14343   5.599   2.788   6.863  0.1475  0.1990  0.0716
 1072YOPC   C2B14344   5.202   2.574   6.951 -0.0835 -0.2345 -0.1598
 1072YOPC   D3B14345   5.148   2.660   7.389  0.1383  0.1802 -0.0462
 1072YOPC   C4B14346   5.058   2.371   7.737  0.2698 -0.3713 -0.1023
 1073YOPC   NC314347  11.354  12.952   5.570 -0.0938 -0.0411  0.2119
 1073YOPC   PO414348  11.029  12.857   5.741  0.0106  0.0831  0.1127
 1073YOPC   GL114349  11.169  12.795   6.087 -0.1968 -0.0441  0.0307
 1073YOPC   GL214350  11.424  12.949   6.121 -0.1277  0.0708  0.3370
 1073YOPC   C1A14351  11.278  12.787   6.574  0.2802 -0.0381  0.0808
 1073YOPC   D2A14352  11.546  12.572   6.917 -0.0291  0.0616 -0.1195
 1073YOPC   C3A14353  11.500  12.787   7.351  0.1250 -0.0006  0.0892
 1073YOPC   C4A14354  11.274  12.671   7.643  0.2809  0.0671  0.3263
 1073YOPC   C1B14355  11.736  13.133   6.506  0.1179 -0.3523 -0.2222
 1073YOPC   C2B14356  11.860  12.976   6.854 -0.3031  0.2933 -0.2414
 1073YOPC   D3B14357  11.788  13.162   7.248  0.0717 -0.0227  0.1149
 1073YOPC   C4B14358  12.185  13.244   7.463 -0.1854  0.0931 -0.1795
 1074YOPC   NC314359  17.321   2.996   5.451 -0.1433  0.1890  0.1052
 1074YOPC   PO414360  17.470   2.863   5.766 -0.0561  0.0428  0.1910
 1074YOPC   GL114361  17.397   2.782   6.185  0.1562 -0.4465 -0.0684
 1074YOPC   GL214362  17.507   2.428   6.331  0.1827 -0.1606  0.0081
 1074YOPC   C1A14363  17.264   2.803   6.586 -0.3761  0.0867 -0.2305
 1074YOPC   D2A14364  17.083   2.914   7.014 -0.0567 -0.0175  0.3405
 1074YOPC   C3A14365  17.449   2.589   7.268  0.3578 -0.0143  0.0896
 1074YOPC   C4A14366  17.625   2.547   7.739  0.4071 -0.4567 -0.1326
 1074YOPC   C1B14367  17.541   2.449   6.777 -0.2351 -0.0566 -0.2393
 1074YOPC   C2B14368  17.594   2.043   7.044  0.0704  0.0043  0.1363
 1074YOPC   D3B14369  17.428   2.150   7.479 -0.0826 -0.0669  0.0227
 1074YOPC   C4B14370  17.480   1.969   7.808  0.1797  0.2463 -0.0353
 1075YOPC   NC314371   8.812   3.759   5.407  0.1238 -0.0165 -0.0785
 1075YOPC   PO414372   9.016   4.060   5.663  0.2348 -0.0390  0.2133
 1075YOPC   GL114373   8.903   3.937   6.101 -0.1934  0.1355  0.0469
 1075YOPC   GL214374   8.597   4.107   6.268 -0.1038 -0.1082 -0.1879
 1075YOPC   C1A14375   9.046   3.734   6.490  0.0011  0.1349  0.0113
 1075YOPC   D2A14376   9.224   3.758   6.933  0.0398  0.0556 -0.1011
 1075YOPC   C3A14377   9.122   3.572   7.390  0.1415  0.2414  0.0639
 1075YOPC   C4A14378   9.260   3.518   7.847  0.1032  0.2395  0.1231
 1075YOPC   C1B14379   8.401   3.861   6.582 -0.4500  0.0274 -0.2912
 1075YOPC   C2B14380   8.320   3.657   6.959 -0.1080 -0.0575 -0.0010
 1075YOPC   D3B14381   8.329   3.745   7.401 -0.0701  0.2752 -0.1365
 1075YOPC   C4B14382   8.171   3.618   7.888  0.3033  0.0835  0.1660
 1076YOPC   NC314383  14.831  11.794   6.050 -0.0321  0.1678 -0.2834
 1076YOPC   PO414384  14.485  11.555   6.034 -0.0110  0.1043  0.0014
 1076YOPC   GL114385  14.787  11.400   6.424  0.0191  0.3738 -0.2460
 1076YOPC   GL214386  15.014  11.367   6.354  0.0824 -0.0148 -0.0373
 1076YOPC   C1A14387  15.025  11.429   6.845 -0.0380 -0.3692 -0.1280
 1076YOPC   D2A14388  15.073  11.439   7.271 -0.1433  0.1170 -0.1055
 1076YOPC   C3A14389  15.250  11.209   7.657 -0.2557 -0.1207  0.0053
 1076YOPC   C4A14390  15.343  10.812   7.780 -0.0326  0.0450  0.0967
 1076YOPC   C1B14391  14.870  10.892   6.486  0.1515 -0.2988  0.1372
 1076YOPC   C2B14392  14.724  10.558   6.741 -0.4747 -0.1027 -0.2627
 1076YOPC   D3B14393  14.455  10.598   7.052 -0.1254 -0.3228  0.2846
 1076YOPC   C4B14394  14.418  10.711   7.494  0.0169  0.2762 -0.0368
 1077YOPC   NC314395   7.838   7.034   5.510  0.0267 -0.0088  0.3866
 1077YOPC   PO414396   8.207   6.832   5.604 -0.2184  0.2039  0.1586
 1077YOPC   GL114397   8.167   6.790   6.039 -0.1855 -0.1793  0.0217
 1077YOPC   GL214398   8.445   6.756   6.325 -0.0649 -0.0707  0.0227
 1077YOPC   C1A14399   7.921   6.790   6.445 -0.0779 -0.2163  0.0407
 1077YOPC   D2A14400   7.969   6.886   6.834  0.1229 -0.1965 -0.2449
 1077YOPC   C3A14401   7.788   6.703   7.168 -0.0666 -0.0742 -0.2138
 1077YOPC   C4A14402   7.593   6.467   7.696  0.1448  0.3078  0.0577
 1077YOPC   C1B14403   8.403   6.705   6.690 -0.0608  0.0122  0.0761
 1077YOPC   C2B14404   8.352   6.738   7.155 -0.0826 -0.0307 -0.1422
 1077YOPC   D3B14405   8.509   6.836   7.489 -0.1955  0.0603 -0.2707
 1077YOPC   C4B14406   8.764   7.204   7.715 -0.0251 -0.0936 -0.0727
 1078YOPC   NC314407   8.655   9.918   4.875 -0.0231 -0.0512 -0.1337
 1078YOPC   PO414408   8.343   9.683   5.055 -0.1932  0.0855  0.2781
 1078YOPC   GL114409   8.294   9.822   5.423 -0.1363 -0.0732 -0.3655
 1078YOPC   GL214410   8.417  10.031   5.604 -0.0473  0.0129  0.1464
 1078YOPC   C1A14411   8.155   9.712   5.904 -0.1089  0.0847  0.1419
 1078YOPC   D2A14412   8.211   9.886   6.306  0.1852 -0.1387  0.0238
 1078YOPC   C3A14413   8.167  10.274   6.422  0.0630  0.0401  0.1060
 1078YOPC   C4A14414   8.326  10.641   6.441  0.1706 -0.0377 -0.0570
 1078YOPC   C1B14415   8.548  10.187   6.007  0.0746  0.0797 -0.1555
 1078YOPC   C2B14416   8.756   9.954   6.274 -0.0580 -0.3304  0.3960
 1078YOPC   D3B14417   9.009   9.617   6.196  0.1381 -0.1048 -0.0774
 1078YOPC   C4B14418   9.138   9.353   6.486  0.2735  0.0470  0.1965
 1079YOPC   NC314419  14.932   4.230   5.949  0.0253 -0.1542 -0.1944
 1079YOPC   PO414420  15.136   4.694   6.019  0.1779 -0.2086  0.0149
 1079YOPC   GL114421  15.002   4.874   6.296  0.3661  0.0699 -0.0757
 1079YOPC   GL214422  15.247   4.973   6.429 -0.2735  0.1452 -0.1957
 1079YOPC   C1A14423  14.811   4.944   6.783 -0.2970 -0.0565  0.1358
 1079YOPC   D2A14424  14.471   4.929   7.209  0.0942 -0.2519 -0.1811
 1079YOPC   C3A14425  14.512   4.994   7.593  0.1277  0.0017 -0.0980
 1079YOPC   C4A14426  14.563   4.711   8.047  0.1226  0.0006 -0.0697
 1079YOPC   C1B14427  15.535   5.045   6.752  0.2287  0.2682 -0.1892
 1079YOPC   C2B14428  15.403   5.180   7.066 -0.1573  0.1933 -0.0967
 1079YOPC   D3B14429  15.283   4.858   7.305  0.1826 -0.3354  0.0453
 1079YOPC   C4B14430  15.345   4.380   7.285 -0.0208  0.0482 -0.1828
 1080YOPC   NC314431   9.995  14.972   6.198  0.1975 -0.3593  0.2437
 1080YOPC   PO414432   9.769  14.612   6.138  0.0785 -0.1413 -0.3619
 1080YOPC   GL114433   9.827  14.581   6.555  0.0012  0.0433 -0.0056
 1080YOPC   GL214434   9.511  14.422   6.553 -0.0791  0.4221  0.0080
 1080YOPC   C1A14435  10.077  14.486   6.922  0.1537 -0.1097 -0.2309
 1080YOPC   D2A14436  10.045  14.366   7.417 -0.1865  0.0516 -0.0064
 1080YOPC   C3A14437  10.019  14.658   7.750 -0.1630  0.1046  0.0985
 1080YOPC   C4A14438  10.357  14.740   8.042  0.0992 -0.1017  0.2485
 1080YOPC   C1B14439   9.471  14.288   6.951  0.0013 -0.1672  0.1606
 1080YOPC   C2B14440   9.572  14.436   7.429 -0.3227 -0.0573  0.0887
 1080YOPC   D3B14441   9.698  14.302   7.823 -0.2839  0.1602  0.0889
 1080YOPC   C4B14442   9.712  13.949   8.160 -0.0021  0.2054  0.1024
 1081YOPC   NC314443  10.901   0.583   6.068  0.1968 -0.2553 -0.0398
 1081YOPC   PO414444  10.917   0.095   6.197 -0.2424 -0.4123 -0.0092
 1081YOPC   GL114445  10.977  -0.094   6.539 -0.0224  0.1369 -0.0488
 1081YOPC   GL214446  11.158  -0.317   6.653 -0.1577 -0.3289 -0.0035
 1081YOPC   C1A14447  10.763  -0.047   6.956 -0.0327  0.0382 -0.1412
 1081YOPC   D2A14448  10.778  -0.160   7.358  0.2445  0.1301 -0.0820
 1081YOPC   C3A14449  10.830  -0.080   7.770  0.4103  0.0073  0.2529
 1081YOPC   C4A14450  10.549  -0.212   8.212  0.0817  0.0560  0.1271
 1081YOPC   C1B14451  11.241  -0.361   7.075  0.0018  0.2354  0.1688
 1081YOPC   C2B14452  11.177  -0.333   7.501  0.0111  0.1328  0.1884
 1081YOPC   D3B14453  11.338  -0.023   7.629  0.2518  0.0469 -0.1318
 1081YOPC   C4B14454  11.395   0.183   7.914 -0.0022 -0.1306 -0.4142
 1082YOPC   NC314455  14.559   7.940   6.147 -0.0695 -0.0524 -0.1333
 1082YOPC   PO414456  14.523   7.602   6.455  0.0390  0.1442 -0.0367
 1082YOPC   GL114457  14.464   7.277   6.747 -0.1295  0.3311 -0.3006
 1082YOPC   GL214458  14.261   6.977   6.706 -0.0442  0.0333  0.2581
 1082YOPC   C1A14459  14.792   7.123   7.071  0.1980 -0.1975 -0.0607
 1082YOPC   D2A14460  15.051   7.328   7.409 -0.0206 -0.0761 -0.0995
 1082YOPC   C3A14461  14.790   7.507   7.760 -0.0812  0.0256 -0.0832
 1082YOPC   C4A14462  14.652   7.447   8.141  0.4451  0.0849 -0.0048
 1082YOPC   C1B14463  14.274   7.075   7.157  0.2463 -0.2386 -0.0771
 1082YOPC   C2B14464  14.457   7.226   7.504 -0.0350  0.0572 -0.1010
 1082YOPC   D3B14465  14.221   7.214   7.888 -0.1204 -0.2067  0.2295
 1082YOPC   C4B14466  14.121   7.397   8.291  0.0155 -0.0557 -0.0822
 1083YOPC   NC314467  13.247  14.090   5.829 -0.0984  0.2450 -0.1795
 1083YOPC   PO414468  12.820  14.023   5.816 -0.0144 -0.1482 -0.3084
 1083YOPC   GL114469  12.666  14.012   6.191 -0.1953 -0.0527 -0.1547
 1083YOPC   GL214470  12.888  14.228   6.321  0.1302 -0.6696  0.0421
 1083YOPC   C1A14471  12.423  13.990   6.460  0.5030  0.4396  0.0086
 1083YOPC   D2A14472  12.192  13.809   6.651  0.0266 -0.1046 -0.0162
 1083YOPC   C3A14473  12.342  13.697   6.980  0.1071  0.0377 -0.0579
 1083YOPC   C4A14474  12.601  13.546   7.312 -0.1866 -0.1440 -0.2350
 1083YOPC   C1B14475  12.688  14.501   6.659 -0.1804  0.1322  0.2316
 1083YOPC   C2B14476  12.647  14.868   6.821  0.1194  0.0480 -0.0019
 1083YOPC   D3B14477  12.982  15.133   6.845 -0.1886  0.0329  0.0564
 1083YOPC   C4B14478  13.234  15.463   6.787 -0.0000  0.3775  0.2263
 1084YOPC   NC314479  10.989   4.842   6.081  0.1463 -0.0521  0.2595
 1084YOPC   PO414480  10.909   4.412   6.116  0.0295 -0.0886 -0.0674
 1084YOPC   GL114481  10.960   4.435   6.489 -0.0135  0.2594  0.0909
 1084YOPC   GL214482  10.723   4.293   6.575 -0.0727  0.1541 -0.0739
 1084YOPC   C1A14483  11.024   4.421   6.962  0.1976 -0.2802  0.2543
 1084YOPC   D2A14484  10.897   4.331   7.337 -0.2371  0.0525  0.2371
 1084YOPC   C3A14485  11.059   4.015   7.517  0.0738 -0.0898 -0.6530
 1084YOPC   C4A14486  11.079   3.802   7.807  0.2603 -0.0443 -0.2899
 1084YOPC   C1B14487  10.621   4.031   6.895  0.1166 -0.0161  0.0287
 1084YOPC   C2B14488  10.514   3.988   7.354 -0.2903  0.2168 -0.0431
 1084YOPC   D3B14489  10.227   3.603   7.515  0.0692  0.0919  0.4240
 1084YOPC   C4B14490   9.858   3.442   7.635  0.3190  0.2844 -0.1428
 1085YOPC   NC314491   3.440   7.713   5.435 -0.1063 -0.1049 -0.0234
 1085YOPC   PO414492   3.528   7.198   5.366 -0.1315 -0.1520 -0.0110
 1085YOPC   GL114493   3.664   7.327   5.658 -0.2161 -0.1024 -0.0149
 1085YOPC   GL214494   3.314   7.367   5.886  0.0089 -0.0141 -0.2828
 1085YOPC   C1A14495   3.843   7.273   6.002  0.1648  0.0643 -0.0353
 1085YOPC   D2A14496   4.256   7.143   6.146 -0.2036 -0.0732 -0.0868
 1085YOPC   C3A14497   4.642   7.441   6.083 -0.1664 -0.0011  0.2918
 1085YOPC   C4A14498   5.088   7.384   5.961  0.0852  0.0993 -0.2790
 1085YOPC   C1B14499   3.410   7.371   6.316 -0.1331 -0.0041  0.0618
 1085YOPC   C2B14500   3.672   7.333   6.647 -0.0082 -0.1104  0.0582
 1085YOPC   D3B14501   3.599   7.277   7.082 -0.0302  0.0268 -0.1110
 1085YOPC   C4B14502   3.770   7.259   7.501  0.2672  0.3024  0.3173
 1086YOPC   NC314503  17.645  17.286   6.446  0.0712  0.3082  0.0720
 1086YOPC   PO414504  17.515  17.774   6.360 -0.1455  0.0177 -0.0839
 1086YOPC   GL114505  17.403  17.688   6.810 -0.3958  0.3804  0.2206
 1086YOPC   GL214506  17.427  17.388   6.912 -0.0984  0.0295 -0.2559
 1086YOPC   C1A14507  17.583  17.868   7.145  0.3107  0.0716  0.0572
 1086YOPC   D2A14508  17.575  17.940   7.630 -0.3038 -0.0451  0.0182
 1086YOPC   C3A14509  17.639  18.159   8.111  0.1879  0.0898  0.1898
 1086YOPC   C4A14510  17.868  18.074   8.550 -0.3557  0.0711  0.0539
 1086YOPC   C1B14511  17.217  17.468   7.312  0.0888  0.1677 -0.1497
 1086YOPC   C2B14512  16.875  17.289   7.500  0.1774  0.2881 -0.0164
 1086YOPC   D3B14513  16.794  16.987   7.762 -0.2774 -0.3296 -0.0725
 1086YOPC   C4B14514  16.953  16.814   8.043  0.1272  0.1113  0.1982
 1087YOPC   NC314515  12.973   0.406   6.460 -0.2771 -0.0291  0.2887
 1087YOPC   PO414516  12.671   0.362   6.650 -0.0455  0.0022 -0.1078
 1087YOPC   GL114517  12.458   0.233   7.018  0.0310 -0.1779 -0.1280
 1087YOPC   GL214518  12.087   0.300   6.840  0.3210  0.2654  0.2295
 1087YOPC   C1A14519  12.169   0.372   7.313  0.1052 -0.0987  0.0457
 1087YOPC   D2A14520  12.139   0.579   7.683  0.1991 -0.0415 -0.3218
 1087YOPC   C3A14521  11.886   0.375   7.917  0.0314 -0.2123 -0.1123
 1087YOPC   C4A14522  11.887   0.500   8.307 -0.2503  0.3571 -0.1500
 1087YOPC   C1B14523  12.177   0.711   6.924  0.1976  0.0867  0.0094
 1087YOPC   C2B14524  12.185   1.109   7.221 -0.0276 -0.2554 -0.0879
 1087YOPC   D3B14525  12.007   1.076   7.610 -0.0059  0.1068 -0.1375
 1087YOPC   C4B14526  11.620   1.357   7.745  0.1002 -0.0727 -0.1061
 1088YOPC   NC314527  10.763  17.372   6.250 -0.1011 -0.1722 -0.1508
 1088YOPC   PO414528  11.237  17.481   6.417  0.0911  0.0937 -0.0028
 1088YOPC   GL114529  11.219  17.511   6.821  0.1167  0.0911  0.1007
 1088YOPC   GL214530  11.085  17.286   6.863 -0.1350  0.0198 -0.1206
 1088YOPC   C1A14531  11.317  17.444   7.243  0.3278 -0.0194 -0.0688
 1088YOPC   D2A14532  11.279  17.527   7.685  0.2426  0.4052 -0.4082
 1088YOPC   C3A14533  11.551  17.464   8.026  0.0974  0.2110 -0.2654
 1088YOPC   C4A14534  11.897  17.409   8.351 -0.1413  0.2432 -0.0360
 1088YOPC   C1B14535  11.005  17.070   7.159 -0.3387 -0.1925 -0.0878
 1088YOPC   C2B14536  11.097  16.840   7.504  0.1016  0.0880  0.0930
 1088YOPC   D3B14537  10.837  16.772   7.857  0.0310 -0.1909 -0.1160
 1088YOPC   C4B14538  10.703  16.442   7.967  0.0110  0.0165  0.1285
 1089YOPC   NC314539   9.743   5.660   5.934  0.1613  0.1540  0.2995
 1089YOPC   PO414540   9.386   5.957   5.916 -0.1002  0.1208  0.3374
 1089YOPC   GL114541   9.302   5.628   6.257 -0.1650 -0.4613 -0.2241
 1089YOPC   GL214542   9.317   5.399   6.104  0.0406  0.2754 -0.1308
 1089YOPC   C1A14543   9.276   5.537   6.684 -0.1175  0.3808 -0.3526
 1089YOPC   D2A14544   9.034   5.353   7.079  0.2039  0.0619 -0.0629
 1089YOPC   C3A14545   8.899   5.299   7.499  0.4345 -0.0071  0.5192
 1089YOPC   C4A14546   8.835   5.440   7.953 -0.1247  0.0985  0.0543
 1089YOPC   C1B14547   8.991   5.164   6.384  0.0203 -0.1914  0.1232
 1089YOPC   C2B14548   8.510   5.298   6.367  0.3610 -0.2448 -0.1676
 1089YOPC   D3B14549   8.306   5.298   6.726 -0.0721  0.0444  0.0631
 1089YOPC   C4B14550   8.091   5.211   7.129 -0.0286  0.1323  0.2455
 1090YOPC   NC314551   3.956  14.391   5.961 -0.0879 -0.1414 -0.2896
 1090YOPC   PO414552   4.042  13.935   5.972  0.0279 -0.1129  0.1684
 1090YOPC   GL114553   3.626  13.894   6.225 -0.1182  0.0286  0.1827
 1090YOPC   GL214554   3.465  13.617   6.204  0.1409  0.1389 -0.1437
 1090YOPC   C1A14555   3.487  13.961   6.605  0.2283  0.3165 -0.3261
 1090YOPC   D2A14556   3.668  14.001   7.032 -0.3413 -0.3723  0.1711
 1090YOPC   C3A14557   3.731  13.612   7.290 -0.1204 -0.0393 -0.0182
 1090YOPC   C4A14558   4.160  13.508   7.524  0.0966 -0.0562 -0.1315
 1090YOPC   C1B14559   3.478  13.471   6.543  0.1122  0.0200 -0.2503
 1090YOPC   C2B14560   3.313  13.127   6.873 -0.3882  0.0107 -0.2259
 1090YOPC   D3B14561   3.623  13.099   7.292  0.2509 -0.0216 -0.1531
 1090YOPC   C4B14562   3.750  12.940   7.754  0.1541  0.0825 -0.1666
 1091YOPC   NC314563   4.504   7.873   5.239  0.0340  0.1442  0.2556
 1091YOPC   PO414564   4.573   7.741   5.565  0.3019 -0.1120 -0.1734
 1091YOPC   GL114565   4.938   7.841   5.770 -0.3034 -0.0321 -0.0751
 1091YOPC   GL214566   5.132   7.979   5.823  0.1483 -0.0803 -0.2566
 1091YOPC   C1A14567   5.493   7.688   5.813 -0.1287  0.1658  0.0658
 1091YOPC   D2A14568   5.803   7.585   6.186 -0.3653  0.1923  0.0930
 1091YOPC   C3A14569   6.290   7.634   6.033 -0.0366 -0.1149 -0.2481
 1091YOPC   C4A14570   6.636   7.967   5.978 -0.0340 -0.4410  0.1182
 1091YOPC   C1B14571   5.324   7.894   6.245 -0.0452 -0.3070  0.0630
 1091YOPC   C2B14572   5.397   7.639   6.609  0.0550  0.2296  0.1712
 1091YOPC   D3B14573   5.746   7.497   6.765  0.0586 -0.0725 -0.1194
 1091YOPC   C4B14574   6.090   7.500   6.999 -0.2186  0.0138 -0.2955
 1092YOPC   NC314575   7.170   4.847   5.113 -0.2698 -0.0966 -0.0069
 1092YOPC   PO414576   6.847   4.560   5.314 -0.1100  0.2174  0.3525
 1092YOPC   GL114577   6.709   4.638   5.693  0.1707 -0.0871 -0.0318
 1092YOPC   GL214578   6.745   4.934   5.699 -0.1708 -0.2405  0.2568
 1092YOPC   C1A14579   6.585   4.422   6.107 -0.2635 -0.3165 -0.0539
 1092YOPC   D2A14580   6.783   4.308   6.417  0.1842 -0.1669 -0.1392
 1092YOPC   C3A14581   7.084   4.408   6.646 -0.0466  0.0822 -0.3889
 1092YOPC   C4A14582   7.173   4.495   7.006  0.0612 -0.0425 -0.4468
 1092YOPC   C1B14583   6.763   4.949   6.175 -0.3593  0.3435 -0.0940
 1092YOPC   C2B14584   7.007   4.883   6.504 -0.1189 -0.1360  0.0691
 1092YOPC   D3B14585   6.938   4.935   6.941  0.0002 -0.1737  0.0887
 1092YOPC   C4B14586   7.119   5.040   7.300 -0.2974  0.1821  0.3081
 1093YOPC   NC314587  17.677   9.222   5.246  0.0124  0.0266 -0.2165
 1093YOPC   PO414588  17.712   9.624   5.372  0.0801  0.2309  0.1387
 1093YOPC   GL114589  17.698   9.916   5.693  0.1290 -0.0993  0.1177
 1093YOPC   GL214590  17.995   9.834   5.744  0.3434  0.1755  0.1467
 1093YOPC   C1A14591  17.968  10.195   6.085  0.1277 -0.2038 -0.2961
 1093YOPC   D2A14592  17.848  10.350   6.434 -0.0783  0.1714 -0.0664
 1093YOPC   C3A14593  17.647  10.622   6.534 -0.0412 -0.0078 -0.1717
 1093YOPC   C4A14594  17.324  10.692   6.814  0.2386  0.1635  0.2719
 1093YOPC   C1B14595  18.191   9.683   6.084  0.2657  0.2445  0.1648
 1093YOPC   C2B14596  18.298   9.542   6.517  0.2131  0.2386  0.0226
 1093YOPC   D3B14597  18.743   9.776   6.533  0.2197  0.0801 -0.0363
 1093YOPC   C4B14598  19.103   9.515   6.535  0.0712  0.0387  0.1684
 1094YOPC   NC314599  12.791  15.645   6.142 -0.2155 -0.1437 -0.1774
 1094YOPC   PO414600  12.711  16.098   6.155 -0.0949  0.0211 -0.2734
 1094YOPC   GL114601  12.607  15.899   6.566 -0.0978 -0.0117 -0.0764
 1094YOPC   GL214602  12.890  15.789   6.579  0.1369 -0.2954 -0.1151
 1094YOPC   C1A14603  12.399  15.818   6.979 -0.2059 -0.3051  0.1667
 1094YOPC   D2A14604  12.406  15.768   7.371 -0.0439  0.4483 -0.0372
 1094YOPC   C3A14605  12.387  16.021   7.680  0.1310  0.1332 -0.2083
 1094YOPC   C4A14606  12.385  16.149   8.101 -0.1527  0.1985 -0.0599
 1094YOPC   C1B14607  12.860  15.655   6.996  0.1248 -0.0225 -0.0821
 1094YOPC   C2B14608  12.838  15.495   7.461  0.0210 -0.1467  0.1728
 1094YOPC   D3B14609  12.549  15.613   7.938  0.1477 -0.2535  0.3156
 1094YOPC   C4B14610  12.271  15.624   8.232 -0.0246  0.1424 -0.1225
 1095YOPC   NC314611  17.228  12.325   5.540 -0.0108 -0.0737 -0.0285
 1095YOPC   PO414612  17.435  12.476   5.786 -0.2380  0.1327 -0.1767
 1095YOPC   GL114613  17.657  12.646   6.186  0.3033  0.1155  0.0654
 1095YOPC   GL214614  17.838  12.904   6.309 -0.0303 -0.2394  0.0579
 1095YOPC   C1A14615  17.461  12.652   6.614 -0.0311 -0.1906  0.1823
 1095YOPC   D2A14616  17.505  12.622   7.054  0.0432  0.3060 -0.0172
 1095YOPC   C3A14617  17.408  12.456   7.406 -0.1082  0.0742  0.2019
 1095YOPC   C4A14618  17.167  12.631   7.803 -0.3892 -0.4210 -0.0055
 1095YOPC   C1B14619  17.943  12.681   6.763 -0.0924 -0.1867 -0.0016
 1095YOPC   C2B14620  18.087  12.550   7.150 -0.0993 -0.2776 -0.0724
 1095YOPC   D3B14621  17.937  12.424   7.479 -0.0867  0.1844 -0.2222
 1095YOPC   C4B14622  17.778  12.610   7.784 -0.1796  0.0628 -0.1940
 1096YOPC   NC314623  17.072   6.985   5.942 -0.1184 -0.0424 -0.0554
 1096YOPC   PO414624  17.262   6.572   5.972 -0.0259 -0.3641 -0.1848
 1096YOPC   GL114625  17.091   6.742   6.364  0.1184 -0.2782  0.0756
 1096YOPC   GL214626  16.770   6.532   6.381 -0.0350 -0.2122 -0.0328
 1096YOPC   C1A14627  17.209   7.080   6.632  0.0588  0.2866 -0.2132
 1096YOPC   D2A14628  17.380   7.335   7.025  0.1550 -0.0024  0.3013
 1096YOPC   C3A14629  17.208   7.358   7.375  0.1178  0.1110  0.4046
 1096YOPC   C4A14630  17.453   7.228   7.777 -0.0960  0.2152 -0.1693
 1096YOPC   C1B14631  16.560   6.656   6.771  0.1865  0.0917 -0.3529
 1096YOPC   C2B14632  16.661   6.465   7.194  0.1463  0.2537  0.1394
 1096YOPC   D3B14633  16.660   6.724   7.552 -0.0907 -0.0309 -0.1182
 1096YOPC   C4B14634  16.725   6.983   7.977 -0.1681 -0.1482  0.3253
 1097YOPC   NC314635   8.965  16.248   5.985 -0.0991  0.0976 -0.2542
 1097YOPC   PO414636   9.226  16.545   5.943  0.2028 -0.0767  0.3519
 1097YOPC   GL114637   9.093  16.632   6.336 -0.1424  0.0036 -0.1157
 1097YOPC   GL214638   9.321  16.509   6.516 -0.2465  0.0359  0.1441
 1097YOPC   C1A14639   8.963  16.466   6.875 -0.2708  0.2074  0.1890
 1097YOPC   D2A14640   8.904  16.464   7.324  0.0609 -0.1022  0.0899
 1097YOPC   C3A14641   8.924  16.670   7.719  0.0714  0.1298 -0.2486
 1097YOPC   C4A14642   9.036  16.492   8.148  0.0295  0.3237  0.1277
 1097YOPC   C1B14643   9.471  16.743   6.801  0.1627  0.1626 -0.0858
 1097YOPC   C2B14644   9.565  16.762   7.126 -0.4342  0.1485  0.0150
 1097YOPC   D3B14645   9.359  16.678   7.468 -0.3331 -0.1791 -0.1880
 1097YOPC   C4B14646   9.470  16.711   7.859  0.3818 -0.0935 -0.0938
 1098YOPC   NC314647   1.435  16.111   5.866  0.0707 -0.1887 -0.0965
 1098YOPC   PO414648   1.126  16.128   6.063 -0.2142  0.0096  0.0517
 1098YOPC   GL114649   0.963  15.918   6.362 -0.4377 -0.0896  0.0960
 1098YOPC   GL214650   1.259  15.858   6.466 -0.1263 -0.0780 -0.2391
 1098YOPC   C1A14651   0.833  15.975   6.724  0.2216  0.1620 -0.0742
 1098YOPC   D2A14652   0.973  16.314   7.075 -0.0406 -0.0459 -0.1968
 1098YOPC   C3A14653   0.989  16.409   7.444  0.0989 -0.0525  0.1989
 1098YOPC   C4A14654   0.858  16.368   7.871  0.0773 -0.2617  0.1850
 1098YOPC   C1B14655   1.402  16.125   6.792 -0.2104  0.0475 -0.2052
 1098YOPC   C2B14656   1.537  16.188   7.231  0.0059 -0.1485 -0.1087
 1098YOPC   D3B14657   1.878  15.995   7.589  0.1371  0.1399  0.2297
 1098YOPC   C4B14658   2.256  15.874   7.726 -0.0081  0.0129 -0.2195
 1099YOPC   NC314659   1.645   2.943   5.967  0.0070  0.3972  0.0579
 1099YOPC   PO414660   1.233   2.885   5.833  0.1326 -0.1199 -0.1394
 1099YOPC   GL114661   1.006   2.887   6.234  0.1062 -0.0790 -0.3088
 1099YOPC   GL214662   0.598   3.060   6.260  0.0424 -0.2207 -0.1759
 1099YOPC   C1A14663   0.912   2.943   6.697  0.3486 -0.0623 -0.0875
 1099YOPC   D2A14664   0.436   3.005   6.974  0.0846  0.0055 -0.1358
 1099YOPC   C3A14665   0.514   2.964   7.380  0.0733 -0.1055 -0.0327
 1099YOPC   C4A14666   0.402   2.676   7.666  0.3574 -0.1164  0.1969
 1099YOPC   C1B14667   0.318   3.264   6.526 -0.3877 -0.0871  0.0594
 1099YOPC   C2B14668   0.212   3.506   6.875 -0.0079 -0.1392  0.0601
 1099YOPC   D3B14669   0.182   3.358   7.263  0.0972  0.1425  0.1834
 1099YOPC   C4B14670   0.187   3.234   7.609  0.1276  0.1943 -0.0770
 1100YOPC   NC314671  10.201   3.503   5.979 -0.0862 -0.0055 -0.1236
 1100YOPC   PO414672  10.183   2.965   5.859 -0.1748  0.0878 -0.0368
 1100YOPC   GL114673  10.012   3.048   6.169 -0.1534  0.3458  0.0506
 1100YOPC   GL214674  10.049   2.774   6.353  0.2984  0.0529  0.2001
 1100YOPC   C1A14675   9.827   3.273   6.425  0.2402  0.2500 -0.1266
 1100YOPC   D2A14676   9.631   3.269   6.863  0.0818 -0.0953 -0.1031
 1100YOPC   C3A14677   9.853   3.178   7.207 -0.4025 -0.2595 -0.1481
 1100YOPC   C4A14678   9.861   2.912   7.525 -0.0051 -0.1140 -0.0303
 1100YOPC   C1B14679   9.894   2.458   6.714 -0.1129 -0.0049  0.2018
 1100YOPC   C2B14680   9.884   2.255   7.081 -0.1109  0.1316 -0.0653
 1100YOPC   D3B14681   9.515   2.271   7.451 -0.2560  0.0976 -0.3349
 1100YOPC   C4B14682   9.300   2.185   7.916 -0.0217  0.1272  0.0927
 1101YOPC   NC314683   3.692  10.967   6.013  0.3130  0.1523 -0.0462
 1101YOPC   PO414684   3.413  10.750   6.049 -0.0962 -0.1245  0.0600
 1101YOPC   GL114685   3.574  10.738   6.493 -0.2613  0.2106  0.0168
 1101YOPC   GL214686   3.895  10.660   6.603 -0.1221  0.3022  0.0696
 1101YOPC   C1A14687   3.477  10.791   6.909 -0.0787  0.3917 -0.1661
 1101YOPC   D2A14688   3.343  10.952   7.298 -0.2497 -0.0634  0.1996
 1101YOPC   C3A14689   3.197  10.594   7.671 -0.0514  0.0175  0.0896
 1101YOPC   C4A14690   3.199  10.299   7.962  0.1550  0.2697 -0.1387
 1101YOPC   C1B14691   3.985  10.622   7.039 -0.1505  0.4168 -0.0278
 1101YOPC   C2B14692   4.132  10.337   7.359 -0.0005  0.2931 -0.2352
 1101YOPC   D3B14693   4.128  10.063   7.142  0.1386  0.1501  0.0606
 1101YOPC   C4B14694   4.101  10.132   6.778 -0.1139  0.2461 -0.0868
 1102YOPC   NC314695  14.478  17.067   5.857 -0.3750 -0.0993 -0.1806
 1102YOPC   PO414696  14.667  17.397   5.706  0.2257 -0.6533  0.0209
 1102YOPC   GL114697  14.681  17.366   6.204 -0.1369 -0.0756 -0.2878
 1102YOPC   GL214698  14.765  17.068   6.227  0.0872 -0.5625 -0.5118
 1102YOPC   C1A14699  15.009  17.466   6.569 -0.0086 -0.1589  0.3944
 1102YOPC   D2A14700  15.097  17.535   7.013  0.1061 -0.1423  0.0421
 1102YOPC   C3A14701  14.933  17.620   7.423 -0.0843 -0.0731 -0.1869
 1102YOPC   C4A14702  14.839  17.833   7.773 -0.0542  0.1358  0.0336
 1102YOPC   C1B14703  14.743  16.919   6.607  0.0972 -0.0625 -0.2844
 1102YOPC   C2B14704  14.606  16.770   6.958 -0.2642 -0.0343  0.0241
 1102YOPC   D3B14705  14.898  16.515   7.060  0.0065 -0.0203  0.1229
 1102YOPC   C4B14706  14.960  16.318   7.508 -0.0405  0.2233 -0.2271
 1103YOPC   NC314707   1.078  14.609   5.991  0.1956  0.1637  0.0462
 1103YOPC   PO414708   1.229  14.970   6.022  0.1720 -0.2324 -0.1026
 1103YOPC   GL114709   1.124  14.938   6.407 -0.1103 -0.4538 -0.1007
 1103YOPC   GL214710   0.829  14.821   6.440 -0.2673  0.1131  0.2357
 1103YOPC   C1A14711   1.116  14.971   6.871 -0.0528 -0.0006 -0.1205
 1103YOPC   D2A14712   1.187  14.878   7.331  0.1371  0.2529  0.0379
 1103YOPC   C3A14713   0.866  14.896   7.598  0.1165  0.0933  0.1472
 1103YOPC   C4A14714   0.861  14.759   8.085  0.0019 -0.0966  0.3972
 1103YOPC   C1B14715   0.803  14.582   6.792  0.2896 -0.0042 -0.3594
 1103YOPC   C2B14716   0.871  14.430   7.212  0.2479 -0.2114 -0.1732
 1103YOPC   D3B14717   0.672  14.287   7.509 -0.0172 -0.3134 -0.0156
 1103YOPC   C4B14718   0.618  14.287   7.905 -0.0423 -0.0041  0.1434
 1104YOPC   NC314719   2.945   4.060   5.794 -0.3140  0.0917 -0.0623
 1104YOPC   PO414720   2.729   3.617   5.628 -0.2935  0.0277  0.1101
 1104YOPC   GL114721   2.666   3.797   6.096 -0.1382 -0.3099 -0.1122
 1104YOPC   GL214722   2.350   3.603   6.070  0.1394  0.0131 -0.0685
 1104YOPC   C1A14723   2.978   3.841   6.364  0.0435  0.1661 -0.0414
 1104YOPC   D2A14724   3.217   3.629   6.721 -0.0064 -0.0419  0.2254
 1104YOPC   C3A14725   3.133   3.626   7.152  0.2363 -0.1059 -0.1058
 1104YOPC   C4A14726   2.980   3.478   7.542  0.1605 -0.1759 -0.0135
 1104YOPC   C1B14727   2.399   3.592   6.532 -0.1501 -0.0843  0.1725
 1104YOPC   C2B14728   2.364   3.283   6.812 -0.0585  0.0277 -0.0162
 1104YOPC   D3B14729   2.018   3.277   7.222  0.0875  0.0607 -0.1154
 1104YOPC   C4B14730   2.020   3.146   7.697 -0.0232  0.3008 -0.0073
 1105YOPC   NC314731   3.118  14.706   5.949  0.0967  0.2710  0.0429
 1105YOPC   PO414732   2.920  14.239   5.905  0.1790  0.3850  0.0826
 1105YOPC   GL114733   2.700  14.240   6.288  0.0884  0.3216 -0.2255
 1105YOPC   GL214734   2.355  14.279   6.237 -0.1567 -0.1793  0.2286
 1105YOPC   C1A14735   2.545  13.872   6.456 -0.0419 -0.1091 -0.2887
 1105YOPC   D2A14736   2.582  13.794   6.807  0.0135 -0.3716  0.2062
 1105YOPC   C3A14737   2.740  13.453   7.078 -0.0386  0.0341 -0.6612
 1105YOPC   C4A14738   2.790  13.206   7.409 -0.0098 -0.0645  0.0132
 1105YOPC   C1B14739   2.259  14.272   6.705  0.1153  0.3962 -0.1562
 1105YOPC   C2B14740   2.418  14.267   7.059  0.1140  0.2033 -0.0632
 1105YOPC   D3B14741   2.658  13.907   7.312 -0.0642  0.0824  0.0482
 1105YOPC   C4B14742   2.948  13.671   7.595 -0.1897 -0.1340  0.3129
 1106YOPC   NC314743  15.073   0.699   5.973 -0.2852  0.1562  0.3413
 1106YOPC   PO414744  15.456   0.939   6.146  0.0504  0.1977 -0.1041
 1106YOPC   GL114745  15.562   0.817   6.554 -0.0607  0.1176  0.1824
 1106YOPC   GL214746  15.212   0.751   6.646  0.0068 -0.1632  0.3368
 1106YOPC   C1A14747  15.727   1.049   6.892  0.2934  0.0970 -0.0338
 1106YOPC   D2A14748  15.532   0.970   7.307 -0.3978  0.1764  0.1252
 1106YOPC   C3A14749  15.740   0.971   7.606 -0.1923 -0.1209 -0.0477
 1106YOPC   C4A14750  15.573   0.936   7.834  0.1960 -0.1874  0.0185
 1106YOPC   C1B14751  15.159   0.745   7.047 -0.0428  0.2678  0.0049
 1106YOPC   C2B14752  15.078   0.813   7.408 -0.0831 -0.2693 -0.3185
 1106YOPC   D3B14753  15.223   0.601   7.808  0.0096  0.1170 -0.2472
 1106YOPC   C4B14754  15.273   0.167   7.966  0.1386  0.2343  0.2745
 1107YOPC   NC314755   1.632  15.180   5.891  0.1175  0.2368 -0.0749
 1107YOPC   PO414756   1.698  15.605   5.979  0.0225 -0.1579  0.0025
 1107YOPC   GL114757   1.679  15.564   6.385  0.0304  0.1117  0.1483
 1107YOPC   GL214758   1.856  15.857   6.493  0.3236 -0.1786 -0.1497
 1107YOPC   C1A14759   1.430  15.559   6.830 -0.3042 -0.1841  0.0902
 1107YOPC   D2A14760   1.284  15.788   7.126  0.3085  0.1356  0.1481
 1107YOPC   C3A14761   1.459  15.738   7.474 -0.2770  0.0523 -0.1455
 1107YOPC   C4A14762   1.463  15.681   7.842  0.1739 -0.0515  0.0721
 1107YOPC   C1B14763   2.183  15.912   6.686  0.2010 -0.0734 -0.2417
 1107YOPC   C2B14764   2.491  16.156   6.904  0.3553  0.0025 -0.0974
 1107YOPC   D3B14765   2.420  16.544   6.983  0.3689  0.2616 -0.2307
 1107YOPC   C4B14766   2.558  16.898   7.221 -0.0372  0.1230 -0.1161
 1108YOPC   NC314767  11.115   2.834   5.854 -0.0956 -0.0175 -0.0577
 1108YOPC   PO414768  11.051   2.489   6.054 -0.2056  0.2582 -0.0507
 1108YOPC   GL114769  11.035   2.557   6.521  0.0224 -0.2061  0.3184
 1108YOPC   GL214770  11.376   2.657   6.447 -0.1136  0.0776  0.1590
 1108YOPC   C1A14771  10.866   2.650   6.941 -0.0419  0.4897 -0.1108
 1108YOPC   D2A14772  10.883   2.554   7.302  0.0571  0.1253  0.0796
 1108YOPC   C3A14773  10.612   2.552   7.637  0.2640 -0.2695  0.2650
 1108YOPC   C4A14774  10.525   2.493   8.025 -0.0894 -0.2868  0.1370
 1108YOPC   C1B14775  11.432   2.792   6.938 -0.0411  0.3172  0.0683
 1108YOPC   C2B14776  11.579   3.036   7.339  0.1398  0.2937  0.0193
 1108YOPC   D3B14777  11.791   3.075   7.742 -0.0834 -0.2024 -0.2502
 1108YOPC   C4B14778  12.001   3.029   8.066 -0.0327  0.0918 -0.1500
 1109YOPC   NC314779   6.536   0.437   5.718  0.0676 -0.1549 -0.1507
 1109YOPC   PO414780   7.032   0.587   5.631  0.2217 -0.2162  0.1727
 1109YOPC   GL114781   6.988   0.549   6.007 -0.0523  0.0634 -0.1331
 1109YOPC   GL214782   7.314   0.468   6.164 -0.0201 -0.1557 -0.1286
 1109YOPC   C1A14783   6.810   0.394   6.370 -0.1653  0.0248 -0.0838
 1109YOPC   D2A14784   6.603   0.166   6.605 -0.1557  0.1952  0.3209
 1109YOPC   C3A14785   6.673   0.281   6.895  0.0941  0.2336 -0.0258
 1109YOPC   C4A14786   6.514   0.182   7.266 -0.2948  0.1128 -0.3364
 1109YOPC   C1B14787   7.231   0.630   6.602 -0.0142  0.2110 -0.0790
 1109YOPC   C2B14788   6.872   0.754   6.788  0.2663 -0.1069 -0.2946
 1109YOPC   D3B14789   6.834   1.097   7.115  0.1359  0.0779  0.0046
 1109YOPC   C4B14790   6.549   1.183   7.437  0.0125 -0.0540  0.0073
 1110YOPC   NC314791   0.292  15.337   5.933 -0.0221 -0.1992  0.1711
 1110YOPC   PO414792   0.491  14.954   6.009 -0.3507 -0.4179  0.1715
 1110YOPC   GL114793   0.441  15.104   6.424  0.0492  0.1640 -0.1400
 1110YOPC   GL214794   0.422  15.399   6.501 -0.0430  0.1098  0.3675
 1110YOPC   C1A14795   0.620  15.038   6.827  0.0852 -0.2276 -0.0824
 1110YOPC   D2A14796   0.630  14.922   7.196 -0.0026 -0.2224  0.2144
 1110YOPC   C3A14797   0.351  15.023   7.463  0.0223 -0.1282 -0.1306
 1110YOPC   C4A14798   0.343  14.815   7.845  0.1191  0.1510  0.1014
 1110YOPC   C1B14799   0.151  15.276   6.886  0.5171  0.0781  0.1338
 1110YOPC   C2B14800  -0.235  15.044   7.158 -0.0701 -0.1856 -0.0557
 1110YOPC   D3B14801  -0.186  14.855   7.538  0.2356 -0.1048  0.2334
 1110YOPC   C4B14802  -0.422  14.685   7.950 -0.1425 -0.1950  0.1469
 1111YOPC   NC314803   5.252  13.315   5.586 -0.0489 -0.1252  0.2606
 1111YOPC   PO414804   5.247  13.008   5.834  0.1440 -0.1545 -0.1503
 1111YOPC   GL114805   5.379  12.901   6.211  0.0284 -0.0188  0.2273
 1111YOPC   GL214806   5.669  12.700   6.233 -0.0184  0.1794  0.3404
 1111YOPC   C1A14807   5.329  12.973   6.586 -0.1203 -0.0118  0.2736
 1111YOPC   D2A14808   5.453  12.918   7.016  0.2736  0.1845  0.2867
 1111YOPC   C3A14809   5.307  13.127   7.444  0.1998  0.0968  0.2417
 1111YOPC   C4A14810   5.528  13.414   7.696  0.0286 -0.2579 -0.0866
 1111YOPC   C1B14811   5.754  12.753   6.707 -0.0583 -0.0232  0.1766
 1111YOPC   C2B14812   5.932  12.889   7.139  0.1384  0.2998  0.1115
 1111YOPC   D3B14813   5.708  12.706   7.447  0.0002  0.1040  0.1410
 1111YOPC   C4B14814   5.505  12.795   7.858 -0.0598  0.3145  0.0072
 1112YOPC   NC314815  15.747  17.404   5.733 -0.1926  0.2178  0.0422
 1112YOPC   PO414816  15.661  17.748   6.033  0.2472  0.0945 -0.1214
 1112YOPC   GL114817  15.566  17.817   6.489 -0.1042 -0.1548 -0.1682
 1112YOPC   GL214818  15.838  18.053   6.635 -0.1800  0.0795 -0.3560
 1112YOPC   C1A14819  15.363  17.959   6.802 -0.0952 -0.0962  0.0853
 1112YOPC   D2A14820  15.479  17.964   7.144 -0.0487 -0.6430  0.0211
 1112YOPC   C3A14821  15.466  17.538   7.375  0.0863  0.0693 -0.0160
 1112YOPC   C4A14822  15.234  17.184   7.521  0.0022  0.1570 -0.0145
 1112YOPC   C1B14823  15.869  18.273   6.974  0.0937  0.1373 -0.3072
 1112YOPC   C2B14824  15.932  18.314   7.427  0.1096  0.1297  0.0066
 1112YOPC   D3B14825  15.881  18.346   7.857  0.2060 -0.0148  0.0994
 1112YOPC   C4B14826  15.755  18.243   8.218  0.1556  0.1134  0.1055
 1113YOPC   NC314827  15.792   8.756   6.023 -0.3306  0.3332 -0.1273
 1113YOPC   PO414828  16.002   9.055   5.858  0.1592 -0.0048  0.1626
 1113YOPC   GL114829  16.201   9.062   6.234  0.0536 -0.1858  0.2793
 1113YOPC   GL214830  16.528   9.212   6.318  0.2325 -0.0241 -0.2458
 1113YOPC   C1A14831  16.016   9.096   6.550  0.0072 -0.2420 -0.0530
 1113YOPC   D2A14832  15.855   9.124   6.949  0.0732 -0.1013 -0.2174
 1113YOPC   C3A14833  15.874   8.817   7.348 -0.1779  0.0969 -0.2277
 1113YOPC   C4A14834  16.168   8.786   7.711  0.3174 -0.0900 -0.0968
 1113YOPC   C1B14835  16.563   9.517   6.714 -0.1222  0.1535 -0.1157
 1113YOPC   C2B14836  16.527   9.558   7.139 -0.0444  0.0081  0.0365
 1113YOPC   D3B14837  16.851   9.611   7.419 -0.0419 -0.1383 -0.0310
 1113YOPC   C4B14838  16.982   9.701   7.808 -0.1696  0.0542 -0.1006
 1114YOPC   NC314839  15.500  16.890   5.646 -0.4759 -0.2098 -0.2370
 1114YOPC   PO414840  15.609  16.732   6.003 -0.0519 -0.4146  0.0646
 1114YOPC   GL114841  15.571  16.623   6.424  0.1058  0.1713 -0.0286
 1114YOPC   GL214842  15.846  16.558   6.688  0.1639  0.0044 -0.0998
 1114YOPC   C1A14843  15.249  16.745   6.709  0.1994 -0.0485 -0.0631
 1114YOPC   D2A14844  15.095  16.966   7.026  0.1284  0.0248  0.0454
 1114YOPC   C3A14845  14.866  16.805   7.417 -0.1605 -0.1474  0.1675
 1114YOPC   C4A14846  14.943  16.836   7.838  0.0181  0.0335 -0.0212
 1114YOPC   C1B14847  15.555  16.629   7.093 -0.0600  0.1682  0.1495
 1114YOPC   C2B14848  15.347  16.710   7.504  0.1486  0.0979 -0.0106
 1114YOPC   D3B14849  15.403  16.818   7.883 -0.2378 -0.0218 -0.1047
 1114YOPC   C4B14850  15.222  17.001   8.200 -0.0164 -0.0193 -0.0929
 1115YOPC   NC314851   1.932   0.213   5.562  0.1253  0.0647 -0.2029
 1115YOPC   PO414852   2.203  -0.302   5.648  0.0285  0.0940 -0.0491
 1115YOPC   GL114853   2.318  -0.495   6.069  0.2351 -0.0990  0.0175
 1115YOPC   GL214854   2.053  -0.605   6.297 -0.0172 -0.0682 -0.1886
 1115YOPC   C1A14855   2.449  -0.363   6.508  0.0250 -0.2568 -0.3211
 1115YOPC   D2A14856   2.449  -0.478   6.929  0.2035 -0.2829 -0.0387
 1115YOPC   C3A14857   2.591  -0.160   7.244 -0.2462  0.1106  0.3961
 1115YOPC   C4A14858   2.830   0.082   7.209 -0.0167  0.1328  0.0294
 1115YOPC   C1B14859   2.033  -0.833   6.687 -0.1588 -0.3987 -0.0516
 1115YOPC   C2B14860   2.194  -0.869   7.088  0.0868  0.2324 -0.1311
 1115YOPC   D3B14861   2.213  -0.633   7.354 -0.1134  0.1393  0.1575
 1115YOPC   C4B14862   2.097  -0.459   7.721 -0.0343 -0.0679 -0.1649
 1116YOPC   NC314863   2.263  11.619   5.754 -0.2514  0.0350 -0.0827
 1116YOPC   PO414864   2.352  11.307   5.939 -0.2539 -0.0801  0.0774
 1116YOPC   GL114865   2.391  11.409   6.346  0.3149  0.1097 -0.0677
 1116YOPC   GL214866   2.233  11.634   6.357  0.0096  0.1635 -0.0644
 1116YOPC   C1A14867   2.464  11.305   6.753 -0.1604  0.2477  0.4549
 1116YOPC   D2A14868   2.495  11.170   7.260 -0.0358  0.2278 -0.0724
 1116YOPC   C3A14869   2.743  11.354   7.495  0.0108 -0.0341 -0.0523
 1116YOPC   C4A14870   2.759  11.438   7.892  0.0586 -0.2572 -0.1563
 1116YOPC   C1B14871   2.252  12.075   6.360  0.1715 -0.0953  0.0495
 1116YOPC   C2B14872   2.329  12.416   6.345  0.0331  0.0042  0.1375
 1116YOPC   D3B14873   2.192  12.376   6.728  0.0448  0.2135  0.1916
 1116YOPC   C4B14874   1.805  12.427   6.990  0.2086  0.0478 -0.0649
 1117YOPC   NC314875   9.303  14.796   6.087  0.0675  0.0349 -0.2424
 1117YOPC   PO414876   9.144  14.393   6.197 -0.1183  0.0043  0.1395
 1117YOPC   GL114877   8.942  14.662   6.442 -0.2228  0.3513  0.0441
 1117YOPC   GL214878   8.794  14.982   6.532 -0.2957 -0.2576 -0.1826
 1117YOPC   C1A14879   9.167  14.680   6.910 -0.2824 -0.0873  0.1934
 1117YOPC   D2A14880   9.274  14.853   7.326  0.3035  0.0264  0.0255
 1117YOPC   C3A14881   8.936  14.808   7.812 -0.0446 -0.2294 -0.0822
 1117YOPC   C4A14882   8.682  14.964   8.136  0.0344  0.1903  0.0252
 1117YOPC   C1B14883   8.697  14.918   6.970 -0.1572  0.0181 -0.2323
 1117YOPC   C2B14884   8.655  14.718   7.343 -0.2851 -0.0764  0.0124
 1117YOPC   D3B14885   9.035  14.454   7.381 -0.0327 -0.1154  0.1824
 1117YOPC   C4B14886   9.269  14.045   7.390 -0.1345 -0.0821  0.2786
 1118YOPC   NC314887   9.033   8.611   5.011  0.0170  0.0141 -0.3363
 1118YOPC   PO414888   8.956   9.008   5.210 -0.3474  0.0289  0.1619
 1118YOPC   GL114889   8.977   9.292   5.559  0.1363  0.1414 -0.0294
 1118YOPC   GL214890   9.158   9.637   5.547 -0.2519 -0.0023  0.0426
 1118YOPC   C1A14891   9.107   9.206   5.889  0.0931 -0.0792 -0.4820
 1118YOPC   D2A14892   9.277   8.917   6.251 -0.1971  0.1267 -0.0321
 1118YOPC   C3A14893   9.172   8.915   6.799 -0.0997  0.1955  0.0495
 1118YOPC   C4A14894   9.280   8.597   7.064 -0.1799  0.0374 -0.2255
 1118YOPC   C1B14895   9.012  10.123   5.684 -0.1008  0.0622  0.0345
 1118YOPC   C2B14896   8.920  10.518   5.774  0.0289 -0.1593 -0.0926
 1118YOPC   D3B14897   8.571  10.694   5.962 -0.1029 -0.1072 -0.2375
 1118YOPC   C4B14898   8.256  10.998   6.173  0.1393 -0.1199 -0.0798
 1119YOPC   NC314899  12.869  10.483   6.292  0.0980 -0.0426  0.2161
 1119YOPC   PO414900  12.865  10.008   6.342 -0.0373 -0.2100 -0.0030
 1119YOPC   GL114901  13.075  10.116   6.625  0.3104 -0.0738  0.1175
 1119YOPC   GL214902  13.054  10.418   6.713  0.0707 -0.3940  0.0513
 1119YOPC   C1A14903  13.044   9.935   7.018  0.0741  0.1236  0.0377
 1119YOPC   D2A14904  12.984   9.713   7.366  0.0195 -0.2963  0.0426
 1119YOPC   C3A14905  13.234   9.574   7.791  0.0666  0.2155  0.0962
 1119YOPC   C4A14906  13.575   9.463   8.127 -0.0166 -0.0674  0.0059
 1119YOPC   C1B14907  13.248  10.395   7.156  0.2908 -0.0462 -0.0989
 1119YOPC   C2B14908  13.331  10.216   7.580  0.1394  0.1934 -0.0706
 1119YOPC   D3B14909  13.178  10.425   7.908 -0.0798  0.0466 -0.0550
 1119YOPC   C4B14910  12.836  10.492   8.129 -0.0117 -0.2081 -0.0239
 1120YOPC   NC314911  14.853   1.614   6.313 -0.1761  0.2465  0.2073
 1120YOPC   PO414912  14.998   1.350   6.025 -0.0993 -0.1053 -0.2940
 1120YOPC   GL114913  14.993   1.169   6.465  0.1568  0.0197 -0.1814
 1120YOPC   GL214914  14.757   0.949   6.413 -0.0759  0.2038 -0.0669
 1120YOPC   C1A14915  15.019   1.199   6.892 -0.0453  0.0423  0.1959
 1120YOPC   D2A14916  15.379   1.440   7.141 -0.1511  0.2700 -0.0816
 1120YOPC   C3A14917  15.541   1.686   6.937 -0.2946  0.2726 -0.1153
 1120YOPC   C4A14918  15.773   1.834   6.591 -0.1112  0.2125 -0.0386
 1120YOPC   C1B14919  14.660   0.871   6.896  0.3022  0.0667 -0.5168
 1120YOPC   C2B14920  14.551   0.871   7.249  0.2260  0.3478  0.0308
 1120YOPC   D3B14921  14.711   1.243   7.412  0.0009 -0.0694 -0.2562
 1120YOPC   C4B14922  15.221   1.306   7.608 -0.2532 -0.0173 -0.1121
 1121YOPC   NC314923   6.703  16.221   5.754 -0.1156 -0.4984 -0.0945
 1121YOPC   PO414924   6.270  16.407   5.878 -0.2690 -0.0992 -0.1312
 1121YOPC   GL114925   6.287  16.638   6.246  0.3272 -0.1606  0.3052
 1121YOPC   GL214926   6.612  16.651   6.237  0.0657 -0.1676 -0.0137
 1121YOPC   C1A14927   6.037  16.760   6.534 -0.1570  0.0449 -0.0255
 1121YOPC   D2A14928   5.915  16.607   6.863  0.0306  0.2102 -0.0090
 1121YOPC   C3A14929   5.809  16.928   7.161 -0.1668 -0.3568  0.0286
 1121YOPC   C4A14930   5.617  17.287   7.170 -0.0328  0.1037 -0.0675
 1121YOPC   C1B14931   6.483  17.103   6.429 -0.1191 -0.0486 -0.0602
 1121YOPC   C2B14932   6.193  17.504   6.468 -0.0070 -0.2411 -0.0982
 1121YOPC   D3B14933   6.066  17.652   6.952 -0.0697 -0.1657 -0.0528
 1121YOPC   C4B14934   5.921  17.757   7.365 -0.2608 -0.1585  0.0830
 1122YOPC   NC314935   7.362   0.316   5.329  0.0317 -0.0290 -0.2162
 1122YOPC   PO414936   7.543   0.083   5.573 -0.2407  0.1670  0.1227
 1122YOPC   GL114937   7.586   0.047   6.044 -0.1149 -0.3324 -0.0782
 1122YOPC   GL214938   7.798   0.260   6.174  0.2091 -0.1593 -0.3584
 1122YOPC   C1A14939   7.292  -0.020   6.387  0.0644 -0.1236  0.0239
 1122YOPC   D2A14940   7.321  -0.344   6.648 -0.1202 -0.0457  0.1319
 1122YOPC   C3A14941   7.463  -0.268   7.111 -0.1159 -0.0853  0.0759
 1122YOPC   C4A14942   7.390  -0.393   7.563  0.0379  0.0862  0.1916
 1122YOPC   C1B14943   7.652   0.306   6.526 -0.0153  0.0949 -0.4101
 1122YOPC   C2B14944   7.558   0.364   6.866 -0.0938 -0.0449  0.0297
 1122YOPC   D3B14945   7.161   0.205   6.904  0.2039  0.2296  0.3036
 1122YOPC   C4B14946   7.037   0.050   7.284  0.0281  0.2025  0.1322
 1123YOPC   NC314947   4.079   1.386   5.635  0.0852 -0.4586 -0.0138
 1123YOPC   PO414948   4.503   1.223   5.498  0.1801  0.1331  0.0414
 1123YOPC   GL114949   4.507   1.284   5.940 -0.3288  0.0342  0.2988
 1123YOPC   GL214950   4.843   1.051   5.932  0.3202 -0.2747 -0.1033
 1123YOPC   C1A14951   4.366   1.243   6.326  0.0875  0.4014 -0.0695
 1123YOPC   D2A14952   4.300   1.282   6.768 -0.0263  0.2683 -0.0630
 1123YOPC   C3A14953   4.596   1.304   7.109 -0.0662 -0.0874  0.2084
 1123YOPC   C4A14954   4.721   1.340   7.462 -0.0466  0.0013 -0.0645
 1123YOPC   C1B14955   4.839   1.192   6.364  0.0392  0.0064  0.1963
 1123YOPC   C2B14956   4.828   1.258   6.664  0.2762  0.1164  0.1393
 1123YOPC   D3B14957   5.070   1.379   6.972 -0.1696 -0.1099 -0.1703
 1123YOPC   C4B14958   5.351   1.706   7.159 -0.2425 -0.0208 -0.3140
 1124YOPC   NC314959  12.896   9.518   6.153 -0.0028 -0.0959  0.2047
 1124YOPC   PO414960  12.873   8.976   6.089  0.0743 -0.1341  0.2937
 1124YOPC   GL114961  12.679   9.055   6.438  0.2143  0.1418 -0.0245
 1124YOPC   GL214962  12.415   8.923   6.551  0.2159 -0.2720 -0.2011
 1124YOPC   C1A14963  12.800   9.127   6.874  0.1419  0.0726  0.2169
 1124YOPC   D2A14964  12.828   9.248   7.303  0.2693 -0.1317  0.0935
 1124YOPC   C3A14965  12.954   9.195   7.666  0.1465 -0.2664 -0.0146
 1124YOPC   C4A14966  13.193   8.965   7.948  0.1027 -0.2153  0.0296
 1124YOPC   C1B14967  12.322   9.001   6.936  0.0942 -0.3513  0.3241
 1124YOPC   C2B14968  12.353   9.049   7.380  0.2978  0.1926  0.3168
 1124YOPC   D3B14969  12.382   9.210   7.695  0.3857 -0.1260 -0.0485
 1124YOPC   C4B14970  12.277   9.311   8.008 -0.3114  0.3512  0.0261
 1125YOPC   NC314971  15.797  12.221   5.649 -0.0750  0.1919  0.0267
 1125YOPC   PO414972  15.718  12.609   5.629 -0.0343  0.2175 -0.0372
 1125YOPC   GL114973  15.695  12.612   6.064 -0.1111 -0.0004  0.1079
 1125YOPC   GL214974  15.661  12.325   6.183  0.1169  0.1810  0.2806
 1125YOPC   C1A14975  15.913  12.596   6.527 -0.1879  0.0454 -0.0476
 1125YOPC   D2A14976  15.924  12.824   6.964 -0.0426  0.2421 -0.0543
 1125YOPC   C3A14977  15.896  12.546   7.338  0.0232  0.0570  0.1412
 1125YOPC   C4A14978  15.594  12.536   7.732  0.1008 -0.0426 -0.2448
 1125YOPC   C1B14979  15.773  12.101   6.553  0.4217 -0.1446  0.2259
 1125YOPC   C2B14980  15.802  12.254   6.950  0.3127 -0.0142  0.2621
 1125YOPC   D3B14981  15.462  12.224   7.299  0.1513  0.0553  0.2309
 1125YOPC   C4B14982  15.134  12.458   7.510  0.1470  0.1898 -0.2027
 1126YOPC   NC314983   7.529  17.887   5.734 -0.3597  0.2585 -0.0630
 1126YOPC   PO414984   7.672  17.469   5.747  0.2019  0.0750 -0.0984
 1126YOPC   GL114985   7.901  17.713   6.092 -0.2735 -0.2744  0.1189
 1126YOPC   GL214986   8.244  17.654   6.245  0.0907  0.0831 -0.1666
 1126YOPC   C1A14987   7.816  18.002   6.451  0.1629 -0.1523  0.1745
 1126YOPC   D2A14988   7.802  18.252   6.809 -0.0386  0.1494  0.3280
 1126YOPC   C3A14989   7.765  18.413   7.219 -0.1187  0.0965 -0.1308
 1126YOPC   C4A14990   7.941  18.165   7.514 -0.1586 -0.3000 -0.4165
 1126YOPC   C1B14991   8.408  17.333   6.510  0.0029  0.1672 -0.2650
 1126YOPC   C2B14992   8.490  17.102   6.893 -0.2548 -0.1015 -0.0506
 1126YOPC   D3B14993   8.378  17.004   7.290  0.2084 -0.1816 -0.2818
 1126YOPC   C4B14994   8.619  17.024   7.577 -0.3251  0.0724  0.1404
 1127YOPC   NC314995   6.246   9.277   5.313  0.2651 -0.0690 -0.0313
 1127YOPC   PO414996   6.689   9.265   5.495  0.1155 -0.0038  0.0326
 1127YOPC   GL114997   7.117   9.141   5.782  0.1032  0.0573 -0.0147
 1127YOPC   GL214998   7.336   8.962   5.898 -0.1904  0.0871  0.1719
 1127YOPC   C1A14999   6.985   9.179   6.199 -0.0864  0.1033  0.0089
 1127YOPC   D2A15000   6.938   9.191   6.605 -0.0244  0.4495  0.0401
 1127YOPC   C3A15001   6.484   9.175   6.702 -0.2511 -0.0408  0.2282
 1127YOPC   C4A15002   6.106   9.371   6.537  0.2260  0.0588  0.1486
 1127YOPC   C1B15003   7.475   9.053   6.242  0.0320 -0.1682 -0.0881
 1127YOPC   C2B15004   7.454   9.091   6.731  0.2582 -0.3691  0.1409
 1127YOPC   D3B15005   7.117   9.121   7.038 -0.0584  0.1776  0.3356
 1127YOPC   C4B15006   6.816   9.358   7.107 -0.2248 -0.1048  0.2614
 1128YOPC   NC315007   5.929  11.332   6.073  0.1427 -0.3301  0.1635
 1128YOPC   PO415008   6.383  11.382   5.825  0.2198  0.0526  0.1159
 1128YOPC   GL115009   6.372  11.455   6.224  0.0982 -0.1373 -0.1427
 1128YOPC   GL215010   6.348  11.756   6.349 -0.1607  0.1978  0.0740
 1128YOPC   C1A15011   6.267  11.386   6.676  0.0165 -0.0551  0.1374
 1128YOPC   D2A15012   6.392  11.361   7.002  0.0063  0.0759  0.0097
 1128YOPC   C3A15013   6.319  11.549   7.271  0.0912  0.2508  0.0992
 1128YOPC   C4A15014   6.433  11.821   7.540  0.1073  0.3255  0.2048
 1128YOPC   C1B15015   6.105  11.890   6.821 -0.2417 -0.0737 -0.0861
 1128YOPC   C2B15016   6.226  12.019   7.153  0.0660  0.0967  0.1277
 1128YOPC   D3B15017   6.031  12.293   7.358  0.1981  0.0809 -0.0581
 1128YOPC   C4B15018   5.892  12.325   7.800 -0.1599 -0.0663  0.3065
 1129YOPC   NC315019   8.031  12.400   5.220  0.1167  0.4770 -0.0441
 1129YOPC   PO415020   7.874  11.936   5.412 -0.1719 -0.1055 -0.3579
 1129YOPC   GL115021   7.945  11.602   5.757  0.0837 -0.0183  0.0448
 1129YOPC   GL215022   8.163  11.726   6.015 -0.0961 -0.3322  0.0128
 1129YOPC   C1A15023   7.868  11.334   6.158  0.0127  0.0700  0.3039
 1129YOPC   D2A15024   7.568  11.240   6.535  0.0130  0.3956  0.1044
 1129YOPC   C3A15025   7.670  11.121   7.009 -0.0741 -0.0679 -0.1516
 1129YOPC   C4A15026   7.848  10.939   7.380  0.1559  0.0682 -0.0015
 1129YOPC   C1B15027   8.315  11.581   6.422 -0.0449 -0.2182  0.0420
 1129YOPC   C2B15028   8.085  11.278   6.566 -0.1872  0.3929 -0.5036
 1129YOPC   D3B15029   8.143  11.088   6.929  0.0768  0.0555 -0.0844
 1129YOPC   C4B15030   8.284  11.174   7.364  0.1357  0.0263 -0.2269
 1130YOPC   NC315031  18.217  16.000   6.200 -0.0537  0.1976  0.0606
 1130YOPC   PO415032  18.317  15.626   6.327  0.1067  0.0185  0.1009
 1130YOPC   GL115033  18.191  15.697   6.710  0.0603 -0.2035  0.0937
 1130YOPC   GL215034  18.252  16.136   6.740  0.1220  0.0014 -0.2401
 1130YOPC   C1A15035  17.977  15.504   7.061  0.0449 -0.1811  0.0389
 1130YOPC   D2A15036  17.904  15.451   7.530  0.0179 -0.1078  0.2003
 1130YOPC   C3A15037  18.270  15.319   7.719  0.2147 -0.0101  0.1129
 1130YOPC   C4A15038  18.143  15.074   8.053 -0.1165  0.1401  0.0270
 1130YOPC   C1B15039  18.286  15.900   7.177  0.0036 -0.0697  0.2858
 1130YOPC   C2B15040  18.274  15.829   7.571 -0.2549 -0.0366 -0.1659
 1130YOPC   D3B15041  18.218  16.173   7.872 -0.3704 -0.0091 -0.1742
 1130YOPC   C4B15042  18.118  16.352   8.344 -0.1733  0.1946 -0.2996
 1131YOPC   NC315043   5.566   0.520   5.675 -0.1632  0.1624 -0.2303
 1131YOPC   PO415044   5.997   0.417   5.790  0.0370  0.0212 -0.3136
 1131YOPC   GL115045   6.261   0.418   6.131  0.3492  0.1811 -0.0679
 1131YOPC   GL215046   6.266   0.121   6.085 -0.2929 -0.1099  0.0539
 1131YOPC   C1A15047   6.484   0.739   6.420 -0.1756  0.0161 -0.0305
 1131YOPC   D2A15048   6.371   0.872   6.777 -0.3236 -0.1931 -0.0966
 1131YOPC   C3A15049   6.547   0.708   7.246  0.2071 -0.1492  0.3021
 1131YOPC   C4A15050   6.827   0.587   7.356 -0.1453  0.2738 -0.0859
 1131YOPC   C1B15051   6.539  -0.178   6.244 -0.1332  0.0411  0.0113
 1131YOPC   C2B15052   6.867  -0.246   6.492 -0.3273 -0.0598 -0.0783
 1131YOPC   D3B15053   6.807  -0.239   6.924  0.0759 -0.0766 -0.0307
 1131YOPC   C4B15054   6.980  -0.467   7.253  0.2136 -0.0822 -0.1509
 1132YOPC   NC315055   3.725   9.188   5.489 -0.0334  0.0508 -0.1089
 1132YOPC   PO415056   3.969   9.568   5.599 -0.3469  0.0380 -0.0482
 1132YOPC   GL115057   3.984   9.241   5.958  0.0075 -0.2223 -0.0803
 1132YOPC   GL215058   3.649   9.242   6.178  0.0294  0.1142 -0.3826
 1132YOPC   C1A15059   4.323   8.995   6.243 -0.0950 -0.2365  0.1657
 1132YOPC   D2A15060   4.236   8.804   6.581 -0.0967  0.0278  0.1114
 1132YOPC   C3A15061   3.950   8.430   6.719  0.2911 -0.1451 -0.0680
 1132YOPC   C4A15062   3.984   8.271   7.011  0.1056  0.0464 -0.0408
 1132YOPC   C1B15063   3.946   9.168   6.544 -0.1581 -0.0799  0.0734
 1132YOPC   C2B15064   4.022   9.100   6.948 -0.2499  0.3627  0.0089
 1132YOPC   D3B15065   3.965   9.409   7.247  0.0064 -0.1828 -0.3106
 1132YOPC   C4B15066   4.035   9.829   7.537  0.0898  0.1632  0.0631
 1133YOPC   NC315067   3.319   4.240   5.287 -0.1312  0.0496  0.0151
 1133YOPC   PO415068   3.325   4.333   5.668  0.0894  0.1018 -0.2179
 1133YOPC   GL115069   3.372   4.190   6.056 -0.2365  0.1388 -0.0982
 1133YOPC   GL215070   3.715   4.061   6.076  0.0163 -0.0800  0.1703
 1133YOPC   C1A15071   3.352   4.142   6.465  0.0931  0.1941  0.0318
 1133YOPC   D2A15072   3.148   4.139   6.928 -0.3096  0.0416 -0.1503
 1133YOPC   C3A15073   3.375   4.113   7.304 -0.1215 -0.0958  0.0201
 1133YOPC   C4A15074   3.312   3.979   7.662  0.0775  0.2837 -0.2464
 1133YOPC   C1B15075   3.472   3.765   6.202  0.0029  0.0660 -0.2633
 1133YOPC   C2B15076   3.357   3.359   6.283  0.0595 -0.1059  0.0919
 1133YOPC   D3B15077   3.531   3.254   6.628  0.4682 -0.2059  0.0829
 1133YOPC   C4B15078   3.720   3.251   6.961  0.2060 -0.0726  0.0803
 1134YOPC   NC315079  16.887   1.148   5.971 -0.1201 -0.0325  0.1767
 1134YOPC   PO415080  16.998   0.809   6.097  0.1928  0.1620 -0.1147
 1134YOPC   GL115081  17.125   0.801   6.460 -0.0184  0.0178 -0.1123
 1134YOPC   GL215082  17.033   0.476   6.625  0.0784  0.3541  0.1371
 1134YOPC   C1A15083  17.460   0.936   6.715 -0.3079  0.2405  0.1001
 1134YOPC   D2A15084  17.887   1.153   6.781  0.2934  0.1523 -0.1016
 1134YOPC   C3A15085  17.917   1.209   7.232  0.0194 -0.0489 -0.3073
 1134YOPC   C4A15086  17.807   1.156   7.656  0.0432  0.1909 -0.0892
 1134YOPC   C1B15087  17.200   0.550   6.992  0.0461  0.2276 -0.1013
 1134YOPC   C2B15088  17.195   0.456   7.464  0.2825  0.0279 -0.3774
 1134YOPC   D3B15089  17.534   0.743   7.683  0.1474  0.0380  0.2024
 1134YOPC   C4B15090  17.536   0.968   8.031  0.1485 -0.1531  0.0182
 1135YOPC   NC315091   0.509   5.629   5.457 -0.2023  0.0401 -0.1132
 1135YOPC   PO415092   0.339   5.925   5.674  0.0640 -0.1210  0.2809
 1135YOPC   GL115093   0.181   5.922   6.114 -0.0705 -0.0246 -0.1719
 1135YOPC   GL215094  -0.052   5.790   6.331  0.1929 -0.1647  0.0359
 1135YOPC   C1A15095   0.190   6.202   6.508  0.3399 -0.1165 -0.0400
 1135YOPC   D2A15096   0.401   6.316   6.967  0.0181  0.1042 -0.0680
 1135YOPC   C3A15097   0.102   6.169   7.264 -0.0718 -0.2298 -0.1545
 1135YOPC   C4A15098  -0.265   5.907   7.320  0.1086  0.2005  0.1430
 1135YOPC   C1B15099   0.196   5.545   6.516 -0.1359  0.2275  0.4593
 1135YOPC   C2B15100   0.420   5.291   6.818  0.0310  0.0403 -0.0211
 1135YOPC   D3B15101   0.374   5.398   7.202 -0.0764 -0.0706  0.0727
 1135YOPC   C4B15102   0.632   5.329   7.559  0.1024 -0.1496  0.2567
 1136YOPC   NC315103   2.768  13.058   5.630 -0.1032  0.2832  0.1120
 1136YOPC   PO415104   3.289  12.909   5.660  0.4328 -0.1022 -0.1073
 1136YOPC   GL115105   3.200  12.592   5.985  0.3282 -0.1264  0.0145
 1136YOPC   GL215106   2.857  12.558   6.090  0.1475 -0.0244  0.1421
 1136YOPC   C1A15107   3.266  12.408   6.372  0.1511  0.2215  0.1771
 1136YOPC   D2A15108   3.248  12.528   6.842 -0.2012 -0.3212 -0.0833
 1136YOPC   C3A15109   3.235  12.801   7.188  0.1597  0.3769 -0.0317
 1136YOPC   C4A15110   3.255  13.038   7.601  0.1005 -0.1481  0.1278
 1136YOPC   C1B15111   2.789  12.541   6.550  0.0695  0.2445  0.1688
 1136YOPC   C2B15112   2.689  12.341   6.910 -0.0729 -0.0327 -0.1067
 1136YOPC   D3B15113   2.593  12.265   7.358 -0.1219  0.0318  0.0915
 1136YOPC   C4B15114   2.550  12.364   7.847  0.2334  0.0537 -0.0845
 1137YOPC   NC315115  10.598  16.591   5.955  0.0646  0.0259 -0.2622
 1137YOPC   PO415116  10.634  17.053   5.875  0.1077  0.0715  0.1323
 1137YOPC   GL115117  10.415  16.970   6.278  0.0558 -0.0401 -0.5145
 1137YOPC   GL215118  10.087  17.001   6.338  0.1521  0.1476  0.1141
 1137YOPC   C1A15119  10.462  16.711   6.640 -0.1092  0.1042 -0.3426
 1137YOPC   D2A15120  10.699  16.589   6.957 -0.1488  0.0345 -0.1300
 1137YOPC   C3A15121  10.679  16.665   7.362 -0.0224 -0.0880  0.4828
 1137YOPC   C4A15122  10.346  16.574   7.635 -0.2710  0.0844 -0.0367
 1137YOPC   C1B15123   9.985  17.016   6.754  0.0799 -0.2866  0.2404
 1137YOPC   C2B15124  10.115  16.830   7.172 -0.0074  0.0128  0.1226
 1137YOPC   D3B15125   9.872  16.898   7.615 -0.1961  0.4173 -0.0451
 1137YOPC   C4B15126  10.004  16.809   8.044 -0.2201  0.2173  0.2517
 1138YOPC   NC315127  11.531   4.094   5.324  0.0540  0.0842 -0.1680
 1138YOPC   PO415128  11.440   3.956   5.782 -0.0002 -0.0157 -0.0544
 1138YOPC   GL115129  11.306   4.160   6.104  0.3023 -0.0230 -0.1414
 1138YOPC   GL215130  11.410   4.388   6.344 -0.3116 -0.1162 -0.2463
 1138YOPC   C1A15131  11.208   4.020   6.600  0.1097 -0.1051 -0.1720
 1138YOPC   D2A15132  11.295   4.056   7.036 -0.3176  0.0191 -0.0801
 1138YOPC   C3A15133  11.426   4.394   7.350 -0.0405 -0.1979 -0.0510
 1138YOPC   C4A15134  11.258   4.470   7.811  0.4717 -0.0017  0.1479
 1138YOPC   C1B15135  11.490   4.441   6.754  0.5536 -0.0360 -0.0864
 1138YOPC   C2B15136  11.534   4.804   6.900 -0.1280  0.0368 -0.2646
 1138YOPC   D3B15137  11.591   4.946   7.333  0.2025 -0.0565 -0.2398
 1138YOPC   C4B15138  11.603   4.790   7.732  0.2066 -0.4048  0.0577
 1139YOPC   NC315139  13.670   5.388   5.484 -0.3176  0.2400  0.0043
 1139YOPC   PO415140  13.411   5.228   5.834  0.1150  0.0552 -0.0173
 1139YOPC   GL115141  13.585   5.397   6.285 -0.0706  0.5265 -0.2535
 1139YOPC   GL215142  13.593   5.729   6.378  0.1370  0.0468 -0.0516
 1139YOPC   C1A15143  13.534   5.287   6.725 -0.0357  0.0149  0.2268
 1139YOPC   D2A15144  13.512   5.474   7.129  0.2459  0.1826 -0.1429
 1139YOPC   C3A15145  13.647   5.765   7.407 -0.3906  0.0975  0.0192
 1139YOPC   C4A15146  13.501   6.099   7.713  0.0918  0.0582  0.0221
 1139YOPC   C1B15147  13.682   5.995   6.721 -0.1331 -0.1555 -0.2221
 1139YOPC   C2B15148  13.862   6.100   7.057  0.0504  0.1852  0.0993
 1139YOPC   D3B15149  14.001   6.119   7.477 -0.2513 -0.1975  0.1421
 1139YOPC   C4B15150  14.052   6.269   7.817 -0.0590  0.1213 -0.1044
 1140YOPC   NC315151   8.478   3.052   5.285 -0.0718  0.2915  0.1489
 1140YOPC   PO415152   8.636   2.837   5.728  0.4569 -0.0188 -0.2431
 1140YOPC   GL115153   8.508   2.974   6.022  0.3965  0.2042 -0.2199
 1140YOPC   GL215154   8.240   3.145   5.888 -0.0467  0.0292 -0.0999
 1140YOPC   C1A15155   8.384   3.087   6.431  0.0907  0.0057  0.1166
 1140YOPC   D2A15156   8.373   3.175   6.889  0.3169  0.0023 -0.0139
 1140YOPC   C3A15157   8.344   3.013   7.342  0.4652  0.2641  0.1772
 1140YOPC   C4A15158   8.304   3.148   7.687 -0.0982 -0.1840 -0.1353
 1140YOPC   C1B15159   8.043   2.788   6.107 -0.0307  0.1129 -0.1399
 1140YOPC   C2B15160   7.993   2.915   6.656 -0.2196 -0.0759 -0.1418
 1140YOPC   D3B15161   7.982   2.880   6.994 -0.2572 -0.1325  0.1630
 1140YOPC   C4B15162   7.770   2.947   7.392  0.0975  0.4509  0.1886
 1141YOPC   NC315163  15.425  10.408   5.114 -0.0715 -0.1698  0.1685
 1141YOPC   PO415164  15.386  10.485   5.503  0.0778  0.3312 -0.3007
 1141YOPC   GL115165  15.366  10.391   5.950 -0.2129 -0.1133  0.0732
 1141YOPC   GL215166  15.455  10.182   6.084  0.1195 -0.0112  0.1211
 1141YOPC   C1A15167  15.054  10.374   6.274 -0.1682 -0.0412 -0.0109
 1141YOPC   D2A15168  14.970  10.007   6.532  0.3066 -0.0802 -0.2190
 1141YOPC   C3A15169  14.836  10.025   6.875 -0.1436 -0.0043  0.0058
 1141YOPC   C4A15170  14.631  10.073   7.221 -0.0851  0.0203 -0.0499
 1141YOPC   C1B15171  15.740  10.342   6.330  0.0578  0.1287 -0.0834
 1141YOPC   C2B15172  16.236  10.457   6.467  0.1344  0.1911  0.1130
 1141YOPC   D3B15173  16.672  10.340   6.266 -0.0345  0.2384  0.0884
 1141YOPC   C4B15174  16.945  10.139   6.274  0.1202 -0.2738 -0.0655
 1142YOPC   NC315175  15.254   7.458   5.805 -0.0406 -0.1487  0.2039
 1142YOPC   PO415176  15.525   7.315   6.137 -0.1369  0.0974 -0.4461
 1142YOPC   GL115177  15.395   7.575   6.579 -0.1260 -0.0428 -0.1458
 1142YOPC   GL215178  15.396   7.829   6.593  0.2062 -0.2568  0.2655
 1142YOPC   C1A15179  15.313   7.659   7.033 -0.3594  0.0561  0.0411
 1142YOPC   D2A15180  15.336   7.926   7.438  0.0525 -0.0782  0.2188
 1142YOPC   C3A15181  15.458   8.274   7.666 -0.3268  0.0808 -0.0492
 1142YOPC   C4A15182  15.628   8.542   7.993 -0.0819  0.3914 -0.0391
 1142YOPC   C1B15183  15.628   8.110   6.961  0.0713 -0.0283 -0.1610
 1142YOPC   C2B15184  15.552   8.454   7.196 -0.3260  0.1569  0.2734
 1142YOPC   D3B15185  15.457   8.767   7.580 -0.0290  0.0460  0.0316
 1142YOPC   C4B15186  15.283   9.046   8.031  0.1172  0.2623  0.4532
 1143YOPC   NC315187   1.313   6.717   5.518 -0.2037  0.0185 -0.0303
 1143YOPC   PO415188   1.161   6.377   5.793 -0.1237 -0.1773 -0.1070
 1143YOPC   GL115189   1.187   6.241   6.114 -0.1510  0.1469  0.1517
 1143YOPC   GL215190   0.813   6.296   6.155 -0.0243  0.1478 -0.3035
 1143YOPC   C1A15191   1.160   5.948   6.408 -0.0506  0.2260 -0.0025
 1143YOPC   D2A15192   1.328   5.823   6.797  0.0293  0.2282 -0.0825
 1143YOPC   C3A15193   1.329   5.623   7.096  0.0407 -0.0748 -0.1097
 1143YOPC   C4A15194   1.428   5.078   7.134 -0.2471 -0.0948  0.2475
 1143YOPC   C1B15195   0.806   6.276   6.620 -0.0080 -0.0584  0.0045
 1143YOPC   C2B15196   0.916   6.063   6.983 -0.3293  0.0989  0.2436
 1143YOPC   D3B15197   0.641   6.090   7.362  0.0057 -0.1223 -0.0202
 1143YOPC   C4B15198   0.423   5.864   7.522  0.1870  0.2902  0.0919
 1144ERGO   ROH15199   0.049  12.037   6.122 -0.3018  0.2847  0.0709
 1144ERGO    R115200   0.008  11.849   6.329 -0.0714  0.0977 -0.0479
 1144ERGO    R215201   0.137  11.866   6.573  0.0136  0.0196 -0.0835
 1144ERGO    R315202  -0.116  11.855   6.671  0.0589 -0.2494  0.0090
 1144ERGO    R415203   0.057  11.813   6.905  0.1915  0.1174 -0.0241
 1144ERGO    R515204  -0.107  11.684   6.839  0.3351 -0.1355  0.1110
 1144ERGO    C115205  -0.227  11.771   7.191  0.3378 -0.0781  0.0974
 1144ERGO    C215206  -0.175  11.912   7.491  0.0469  0.0025  0.0034
 1145ERGO   ROH15207  15.069  12.747   6.036 -0.1967  0.0184 -0.0307
 1145ERGO    R115208  15.244  12.668   6.245 -0.0452  0.1329 -0.1151
 1145ERGO    R215209  15.386  12.850   6.396 -0.3898  0.2508  0.0597
 1145ERGO    R315210  15.267  12.722   6.604 -0.1419 -0.1884 -0.0545
 1145ERGO    R415211  15.491  12.867   6.725 -0.5580  0.3840  0.1095
 1145ERGO    R515212  15.449  12.654   6.744  0.0078  0.2336 -0.0178
 1145ERGO    C115213  15.440  12.757   7.112 -0.4233  0.0492  0.0312
 1145ERGO    C215214  15.464  12.837   7.390 -0.2110  0.1303  0.3009
 1146ERGO   ROH15215   3.989   0.704   6.255  0.1526 -0.1695  0.0031
 1146ERGO    R115216   4.048   0.849   6.491 -0.1575 -0.0596  0.0160
 1146ERGO    R215217   3.857   0.903   6.684 -0.2768 -0.4888  0.0199
 1146ERGO    R315218   4.039   0.786   6.849 -0.0172 -0.1125  0.0122
 1146ERGO    R415219   3.847   0.915   7.029 -0.3361 -0.5577  0.0214
 1146ERGO    R515220   4.063   0.942   7.030 -0.3792 -0.0712  0.0378
 1146ERGO    C115221   4.012   0.813   7.385 -0.1268 -0.2446  0.0150
 1146ERGO    C215222   4.037   0.735   7.627  0.1572 -0.1892  0.1238
 1147ERGO   ROH15223  10.205   9.253   5.851  0.0389  0.0136  0.1030
 1147ERGO    R115224  10.128   9.260   6.123 -0.0397  0.0178  0.0804
 1147ERGO    R215225  10.288   9.372   6.319 -0.1246  0.0738  0.1132
 1147ERGO    R315226  10.064   9.517   6.372 -0.1761  0.0225  0.0428
 1147ERGO    R415227  10.200   9.494   6.631 -0.2520  0.0395  0.0918
 1147ERGO    R515228   9.993   9.441   6.588 -0.2301 -0.0059  0.0186
 1147ERGO    C115229   9.939   9.702   6.861 -0.3743 -0.0285  0.0132
 1147ERGO    C215230   9.888   9.912   7.227  0.1106  0.0860  0.2058
 1148ERGO   ROH15231   2.246  16.837   6.549  0.0097  0.2093 -0.0224
 1148ERGO    R115232   2.197  16.949   6.804  0.1661  0.0954  0.0588
 1148ERGO    R215233   1.942  16.974   6.909  0.1948  0.4019  0.0585
 1148ERGO    R315234   2.051  16.837   7.118 -0.0210  0.0795 -0.0318
 1148ERGO    R415235   1.825  16.984   7.234  0.2537  0.4364  0.0793
 1148ERGO    R515236   2.032  16.987   7.303  0.2797  0.0182  0.0565
 1148ERGO    C115237   1.859  16.862   7.619  0.0854  0.1537  0.0067
 1148ERGO    C215238   1.899  16.642   7.890 -0.3303 -0.0334 -0.2329
 1149ERGO   ROH15239  11.314   9.362   6.353  0.2196 -0.0642  0.0549
 1149ERGO    R115240  11.306   9.389   6.635  0.1274 -0.0726  0.0537
 1149ERGO    R215241  11.101   9.285   6.788  0.0792 -0.0841 -0.0142
 1149ERGO    R315242  11.305   9.165   6.922  0.0407 -0.0819  0.0456
 1149ERGO    R415243  11.126   9.266   7.132  0.0885  0.0988 -0.0042
 1149ERGO    R515244  11.340   9.305   7.113  0.0997  0.0112 -0.0346
 1149ERGO    C115245  11.333   9.142   7.458  0.0578  0.2075  0.0579
 1149ERGO    C215246  11.163   8.999   7.670  0.1825  0.2521 -0.2046
 1150ERGO   ROH15247  16.042  17.285   6.984 -0.0056  0.0568  0.0264
 1150ERGO    R115248  16.140  17.211   7.239 -0.0271 -0.1082 -0.0107
 1150ERGO    R215249  16.339  17.353   7.368  0.1306 -0.3242  0.0003
 1150ERGO    R315250  16.157  17.362   7.570  0.1679 -0.2151  0.0279
 1150ERGO    R415251  16.417  17.356   7.705  0.1787 -0.2870 -0.0123
 1150ERGO    R515252  16.249  17.221   7.740  0.1366 -0.2131  0.0411
 1150ERGO    C115253  16.291  17.367   8.090  0.2418 -0.1628  0.0064
 1150ERGO    C215254  16.287  17.349   8.429  0.2371  0.0404  0.2105
 1151ERGO   ROH15255  14.544  15.080   6.285 -0.1420  0.0128  0.1040
 1151ERGO    R115256  14.522  14.971   6.546 -0.0348 -0.0955  0.0678
 1151ERGO    R215257  14.743  14.905   6.699  0.0287  0.0301  0.0236
 1151ERGO    R315258  14.624  15.067   6.882 -0.0875 -0.1302  0.0953
 1151ERGO    R415259  14.788  14.884   7.041  0.1385 -0.0190  0.0076
 1151ERGO    R515260  14.575  14.923   7.067  0.0993 -0.2329  0.0719
 1151ERGO    C115261  14.703  15.025   7.411  0.0933 -0.1982  0.0656
 1151ERGO    C215262  14.792  15.118   7.584  0.0792  0.0711 -0.1503
 1152ERGO   ROH15263   8.817  17.123   6.449 -0.0825  0.2938  0.0504
 1152ERGO    R115264   8.918  16.978   6.670 -0.1842  0.1451  0.0026
 1152ERGO    R215265   9.134  17.065   6.819 -0.0570 -0.1022 -0.0189
 1152ERGO    R315266   8.962  17.035   7.027 -0.0535  0.0369  0.0026
 1152ERGO    R415267   9.215  17.115   7.151  0.1220 -0.5185  0.0060
 1152ERGO    R515268   9.095  16.940   7.202 -0.1763 -0.3458 -0.1084
 1152ERGO    C115269   9.099  17.117   7.540  0.2295 -0.6302  0.0409
 1152ERGO    C215270   9.240  17.126   7.805 -0.1611 -0.1114  0.0382
 1153ERGO   ROH15271   8.990   6.712   6.184 -0.2917  0.0516 -0.1052
 1153ERGO    R115272   8.878   6.614   6.424 -0.1767 -0.0226 -0.0810
 1153ERGO    R215273   9.018   6.453   6.599 -0.0257  0.0844 -0.0996
 1153ERGO    R315274   8.948   6.643   6.780 -0.1317  0.0417 -0.0956
 1153ERGO    R415275   8.938   6.390   6.929 -0.0863  0.0284 -0.1246
 1153ERGO    R515276   8.778   6.538   6.913 -0.1287 -0.0240 -0.1469
 1153ERGO    C115277   8.825   6.532   7.292 -0.2211 -0.0443 -0.1354
 1153ERGO    C215278   8.950   6.673   7.678 -0.1633  0.1622  0.1360
 1154ERGO   ROH15279  15.691   2.776   6.499  0.0564  0.2066 -0.0427
 1154ERGO    R115280  15.626   2.879   6.755  0.0849  0.0473  0.0292
 1154ERGO    R215281  15.369   2.949   6.826  0.1222  0.1720  0.0387
 1154ERGO    R315282  15.414   2.779   7.034 -0.0341 -0.0286 -0.0868
 1154ERGO    R415283  15.237   2.985   7.144  0.2776  0.1465  0.1071
 1154ERGO    R515284  15.429   2.922   7.225  0.2253 -0.1683  0.0036
 1154ERGO    C115285  15.203   2.848   7.523  0.2213 -0.0567  0.0293
 1154ERGO    C215286  15.032   3.044   7.725 -0.1727 -0.0479 -0.1068
 1155ERGO   ROH15287  17.634   9.426   5.891 -0.1715 -0.1055 -0.0884
 1155ERGO    R115288  17.829   9.298   6.051 -0.1810 -0.0752 -0.0515
 1155ERGO    R215289  17.886   9.378   6.309 -0.1562  0.0117 -0.0796
 1155ERGO    R315290  17.835   9.118   6.367 -0.1937  0.0395  0.0133
 1155ERGO    R415291  17.991   9.215   6.595  0.0169  0.0281 -0.1329
 1155ERGO    R515292  18.035   9.040   6.473 -0.1375 -0.0070 -0.1319
 1155ERGO    C115293  18.004   8.875   6.815  0.0825  0.0638 -0.0767
 1155ERGO    C215294  17.908   8.801   7.131  0.2226  0.1604 -0.1199
 1156ERGO   ROH15295  10.622  11.244   6.127  0.1821 -0.0636 -0.1847
 1156ERGO    R115296  10.685  11.393   6.359  0.0618 -0.2050 -0.0612
 1156ERGO    R215297  10.586  11.647   6.404  0.3321 -0.0915 -0.1397
 1156ERGO    R315298  10.501  11.538   6.638 -0.1321 -0.0352 -0.2700
 1156ERGO    R415299  10.569  11.815   6.705  0.6813 -0.2501 -0.0249
 1156ERGO    R515300  10.643  11.635   6.804  0.0965 -0.5785 -0.1135
 1156ERGO    C115301  10.479  11.811   7.100  0.4490 -0.2894 -0.0804
 1156ERGO    C215302  10.328  11.723   7.418  0.1177  0.2956 -0.1776
 1157ERGO   ROH15303  12.569  10.295   6.734  0.2573  0.0200 -0.1124
 1157ERGO    R115304  12.687  10.315   6.991  0.2028 -0.0122 -0.0842
 1157ERGO    R215305  12.537  10.318   7.223  0.1403  0.1348 -0.1219
 1157ERGO    R315306  12.699  10.111   7.292 -0.0195  0.0341 -0.0430
 1157ERGO    R415307  12.647  10.251   7.544  0.0183  0.1129 -0.0845
 1157ERGO    R515308  12.842  10.201   7.462  0.0022 -0.0377 -0.0263
 1157ERGO    C115309  12.863  10.018   7.795 -0.2028  0.0057  0.0112
 1157ERGO    C215310  12.884   9.980   8.122 -0.2507 -0.1649 -0.2052
 1158ERGO   ROH15311  10.965   5.587   6.599 -0.0855  0.0129  0.0552
 1158ERGO    R115312  10.872   5.515   6.856 -0.1006  0.0065  0.0479
 1158ERGO    R215313  10.977   5.302   6.998 -0.1341 -0.0184  0.0329
 1158ERGO    R315314  11.014   5.490   7.191 -0.1109 -0.0394  0.0494
 1158ERGO    R415315  11.034   5.235   7.333 -0.0703 -0.0589  0.0142
 1158ERGO    R515316  10.903   5.402   7.383 -0.0723 -0.0716  0.0584
 1158ERGO    C115317  11.101   5.373   7.708 -0.0114 -0.1021  0.0188
 1158ERGO    C215318  11.215   5.279   8.070 -0.0488 -0.2659 -0.1418
 1159ERGO   ROH15319  14.110  13.061   6.254 -0.2216 -0.1515  0.0467
 1159ERGO    R115320  14.300  13.037   6.462 -0.0952 -0.2379 -0.0771
 1159ERGO    R215321  14.287  13.187   6.694  0.2082 -0.1252 -0.1312
 1159ERGO    R315322  14.296  12.943   6.814  0.0668 -0.0832 -0.0312
 1159ERGO    R415323  14.344  13.134   7.031  0.1093 -0.0100 -0.0953
 1159ERGO    R515324  14.469  12.963   6.978  0.0437 -0.0941 -0.0009
 1159ERGO    C115325  14.386  12.874   7.339 -0.0809  0.0965  0.0193
 1159ERGO    C215326  14.331  12.987   7.668 -0.1242  0.3869  0.1383
 1160ERGO   ROH15327  14.358   3.100   6.393 -0.0632  0.2062  0.1310
 1160ERGO    R115328  14.310   2.876   6.559 -0.0237  0.1862  0.1142
 1160ERGO    R215329  14.427   2.846   6.807 -0.0395  0.2047  0.1198
 1160ERGO    R315330  14.170   2.817   6.890 -0.0415  0.1335  0.0992
 1160ERGO    R415331  14.326   2.649   7.072 -0.0388 -0.0877 -0.0917
 1160ERGO    R515332  14.154   2.587   6.954 -0.0538  0.0556 -0.1579
 1160ERGO    C115333  14.026   2.506   7.304 -0.0405 -0.3249 -0.2341
 1160ERGO    C215334  13.931   2.604   7.577  0.1003 -0.1549 -0.0304
 1161ERGO   ROH15335   7.991  16.899   6.113  0.1924 -0.0753 -0.1482
 1161ERGO    R115336   7.958  17.145   6.249  0.1185 -0.0889 -0.1410
 1161ERGO    R215337   7.712  17.266   6.280  0.1116 -0.0473 -0.3424
 1161ERGO    R315338   7.780  17.264   6.543 -0.1224 -0.0983 -0.2799
 1161ERGO    R415339   7.703  17.542   6.488  0.1924 -0.0240 -0.3693
 1161ERGO    R515340   7.890  17.474   6.577  0.0515 -0.2002 -0.1979
 1161ERGO    C115341   7.761  17.701   6.856  0.0198 -0.0583 -0.3264
 1161ERGO    C215342   7.968  17.866   7.170 -0.0677 -0.2896  0.0725
 1162ERGO   ROH15343   5.376   6.116   5.829  0.0110  0.1851 -0.0540
 1162ERGO    R115344   5.377   6.199   6.099 -0.0616  0.0385 -0.0084
 1162ERGO    R215345   5.151   6.191   6.258 -0.0943 -0.0822 -0.0635
 1162ERGO    R315346   5.310   6.045   6.423 -0.1101 -0.1465 -0.1039
 1162ERGO    R415347   5.103   6.156   6.599 -0.1674 -0.2623 -0.0904
 1162ERGO    R515348   5.319   6.173   6.625 -0.1726 -0.2464 -0.0347
 1162ERGO    C115349   5.226   6.000   6.952 -0.2249 -0.4276 -0.1439
 1162ERGO    C215350   5.160   5.941   7.312  0.1755  0.0492  0.2028
 1163ERGO   ROH15351   0.581  16.654   6.629 -0.2996  0.1315 -0.1933
 1163ERGO    R115352   0.639  16.696   6.903 -0.0675 -0.0326 -0.2145
 1163ERGO    R215353   0.476  16.845   7.069  0.2222  0.1176 -0.0544
 1163ERGO    R315354   0.480  16.620   7.221  0.0433  0.0561 -0.1379
 1163ERGO    R415355   0.437  16.838   7.412  0.0826  0.0015 -0.0717
 1163ERGO    R515356   0.593  16.686   7.422 -0.0022 -0.0827 -0.0672
 1163ERGO    C115357   0.418  16.623   7.755 -0.1665 -0.1240 -0.1601
 1163ERGO    C215358   0.306  16.444   8.031  0.2543  0.1116  0.0767
 1164ERGO   ROH15359  14.922   7.535   6.818 -0.0510 -0.4500  0.0060
 1164ERGO    R115360  14.799   7.713   7.001 -0.3060 -0.4511 -0.1568
 1164ERGO    R215361  14.552   7.663   7.114 -0.1618 -0.8036  0.0415
 1164ERGO    R315362  14.687   7.701   7.347 -0.0892 -0.2416 -0.0789
 1164ERGO    R415363  14.408   7.758   7.413 -0.0823 -0.2894 -0.0750
 1164ERGO    R515364  14.578   7.888   7.449 -0.1573 -0.1045 -0.4063
 1164ERGO    C115365  14.450   7.848   7.806  0.0321  0.5376 -0.2559
 1164ERGO    C215366  14.297   7.786   8.089  0.1484 -0.0137  0.0680
 1165ERGO   ROH15367   1.378  11.138   6.109  0.0612 -0.2130  0.1291
 1165ERGO    R115368   1.489  11.235   6.350  0.0021 -0.1287  0.1241
 1165ERGO    R215369   1.389  11.456   6.482  0.0221 -0.0262 -0.0200
 1165ERGO    R315370   1.375  11.284   6.693 -0.1138  0.0776  0.0563
 1165ERGO    R415371   1.478  11.535   6.806  0.4377 -0.0631 -0.1204
 1165ERGO    R515372   1.569  11.337   6.824  0.0948 -0.2222 -0.1240
 1165ERGO    C115373   1.517  11.421   7.193  0.5521  0.0130 -0.1072
 1165ERGO    C215374   1.596  11.425   7.486  0.3231 -0.0638  0.1041
 1166ERGO   ROH15375  11.647  17.810   6.695 -0.0784  0.0863 -0.0314
 1166ERGO    R115376  11.670  17.723   6.964 -0.0734  0.0308 -0.0492
 1166ERGO    R215377  11.881  17.796   7.127 -0.0030 -0.1034 -0.0744
 1166ERGO    R315378  11.682  17.879   7.292  0.0682 -0.0262 -0.0273
 1166ERGO    R415379  11.899  17.800   7.472  0.1005 -0.0438 -0.0806
 1166ERGO    R515380  11.693  17.730   7.479  0.0881  0.0074 -0.0040
 1166ERGO    C115381  11.723  17.880   7.828  0.2276  0.0635 -0.0399
 1166ERGO    C215382  11.765  18.225   8.145 -0.2576  0.5202 -0.2196
 1167ERGO   ROH15383   6.920   9.618   5.886  0.4247 -0.0636  0.0654
 1167ERGO    R115384   6.779   9.745   6.096  0.2455  0.0844 -0.1405
 1167ERGO    R215385   6.714   9.615   6.331 -0.1794  0.1703 -0.2043
 1167ERGO    R315386   6.841   9.827   6.445 -0.1540  0.0810 -0.0629
 1167ERGO    R415387   6.753   9.662   6.671 -0.2163 -0.0415 -0.1690
 1167ERGO    R515388   6.712   9.874   6.641 -0.1735 -0.0128 -0.0499
 1167ERGO    C115389   6.895   9.888   6.976 -0.2140 -0.2489 -0.0159
 1167ERGO    C215390   7.048   9.820   7.268  0.0827 -0.2516 -0.1981
 1168ERGO   ROH15391   4.826   8.968   5.797 -0.0136  0.0536  0.0403
 1168ERGO    R115392   4.771   8.894   6.065  0.1078  0.0623  0.0684
 1168ERGO    R215393   4.970   8.864   6.255  0.1785  0.2671  0.0325
 1168ERGO    R315394   4.819   9.041   6.395  0.0603  0.1716  0.0260
 1168ERGO    R415395   5.036   8.969   6.577  0.0694  0.2785  0.0511
 1168ERGO    R515396   4.823   8.958   6.619  0.0712  0.1574  0.0183
 1168ERGO    C115397   4.932   9.196   6.897 -0.1051  0.1957  0.0557
 1168ERGO    C215398   4.783   9.393   7.225 -0.0249  0.0974  0.2827
 1169ERGO   ROH15399  13.273   6.893   6.766  0.0531  0.2112  0.1126
 1169ERGO    R115400  13.282   6.728   6.996  0.1392  0.1314  0.0534
 1169ERGO    R215401  13.512   6.600   7.078  0.2112  0.2279  0.0105
 1169ERGO    R315402  13.460   6.726   7.313  0.1354  0.1165  0.0561
 1169ERGO    R415403  13.660   6.522   7.380  0.2823  0.2329 -0.0236
 1169ERGO    R515404  13.467   6.551   7.477  0.2660  0.0667 -0.0014
 1169ERGO    C115405  13.697   6.595   7.777  0.2526  0.1312 -0.0005
 1169ERGO    C215406  13.770   6.600   8.101  0.2225  0.2221 -0.0031
 1170ERGO   ROH15407  16.348   4.495   6.281 -0.2105  0.0227  0.0241
 1170ERGO    R115408  16.190   4.473   6.514 -0.1294  0.1447  0.0911
 1170ERGO    R215409  16.211   4.260   6.689 -0.2001  0.1426  0.0961
 1170ERGO    R315410  16.249   4.456   6.873  0.0070  0.1301  0.0684
 1170ERGO    R415411  16.222   4.210   7.031 -0.2205  0.1721  0.1012
 1170ERGO    R515412  16.108   4.394   7.056 -0.0405  0.2895  0.0880
 1170ERGO    C115413  16.266   4.366   7.403 -0.0382  0.1777  0.0782
 1170ERGO    C215414  16.440   4.457   7.687  0.3453  0.2468  0.0592
 1171ERGO   ROH15415   9.160  12.162   5.862  0.0825  0.1811  0.0869
 1171ERGO    R115416   9.174  12.001   6.094  0.0539  0.0814  0.0202
 1171ERGO    R215417   9.299  12.084   6.326  0.1863 -0.0879  0.0144
 1171ERGO    R315418   9.060  12.021   6.439  0.1803  0.0258  0.0655
 1171ERGO    R415419   9.243  12.052   6.666  0.2572 -0.1360  0.0215
 1171ERGO    R515420   9.117  11.880   6.624  0.1456 -0.0504  0.0159
 1171ERGO    C115421   8.986  11.975   6.970  0.2928 -0.0573  0.0737
 1171ERGO    C215422   8.788  11.898   7.183  0.3456 -0.0267 -0.0538
 1172ERGO   ROH15423   5.031   4.716   5.849 -0.1037  0.0758  0.0486
 1172ERGO    R115424   5.042   4.878   6.081 -0.0781  0.0387  0.0754
 1172ERGO    R215425   4.925   4.804   6.321 -0.0553 -0.0012  0.0830
 1172ERGO    R315426   5.174   4.848   6.418 -0.0419 -0.0222  0.0537
 1172ERGO    R415427   4.998   4.884   6.649 -0.0093  0.1105  0.0446
 1172ERGO    R515428   5.146   5.026   6.577  0.0161  0.0420 -0.0157
 1172ERGO    C115429   5.275   4.972   6.932  0.0302  0.1558 -0.0053
 1172ERGO    C215430   5.275   4.953   7.261  0.1407 -0.1291 -0.0048
 1173ERGO   ROH15431   4.023  15.525   6.441  0.0677  0.0001 -0.0312
 1173ERGO    R115432   3.930  15.574   6.704  0.1085  0.0311 -0.0226
 1173ERGO    R215433   3.792  15.385   6.850  0.0066  0.0982 -0.0334
 1173ERGO    R315434   3.986  15.433   7.035  0.0430 -0.0299 -0.0371
 1173ERGO    R415435   3.789  15.266   7.175 -0.0381  0.0513 -0.0505
 1173ERGO    R515436   3.866  15.459   7.241  0.0672  0.0027 -0.0263
 1173ERGO    C115437   3.969  15.242   7.537 -0.0299 -0.0962 -0.0640
 1173ERGO    C215438   3.997  15.286   7.893  0.0747 -0.2142 -0.3449
 1174ERGO   ROH15439  12.442  16.456   6.580 -0.1554  0.0755 -0.0768
 1174ERGO    R115440  12.402  16.331   6.831 -0.3228 -0.1221 -0.1987
 1174ERGO    R215441  12.392  16.474   7.068 -0.0187 -0.3470 -0.0455
 1174ERGO    R315442  12.154  16.346   7.096 -0.2470  0.0405 -0.1351
 1174ERGO    R415443  12.227  16.429   7.368 -0.0740 -0.3090 -0.0693
 1174ERGO    R515444  12.174  16.227   7.303 -0.4335 -0.1720 -0.2339
 1174ERGO    C115445  11.907  16.282   7.569 -0.3206  0.0768 -0.1673
 1174ERGO    C215446  11.750  16.301   7.882 -0.3981  0.0143  0.0704
 1175ERGO   ROH15447   1.826   9.549   6.409  0.4588  0.1161  0.0312
 1175ERGO    R115448   1.692   9.499   6.653  0.2679  0.0232 -0.0898
 1175ERGO    R215449   1.723   9.265   6.796  0.2812  0.0310 -0.0728
 1175ERGO    R315450   1.786   9.435   6.998  0.0012  0.0626 -0.0088
 1175ERGO    R415451   1.721   9.181   7.131  0.2287 -0.0299 -0.0881
 1175ERGO    R515452   1.634   9.376   7.174 -0.0086 -0.1388 -0.0866
 1175ERGO    C115453   1.778   9.292   7.517 -0.0647 -0.0358 -0.0372
 1175ERGO    C215454   1.936   9.246   7.782  0.1080 -0.1179  0.0315
 1176ERGO   ROH15455  10.158   4.173   6.781  0.0217  0.1403  0.0196
 1176ERGO    R115456  10.136   4.203   7.061 -0.1437  0.0028  0.0245
 1176ERGO    R215457   9.892   4.227   7.190 -0.2328 -0.1973 -0.0866
 1176ERGO    R315458   9.986   4.017   7.336 -0.1823 -0.2107 -0.1413
 1176ERGO    R415459   9.821   4.169   7.523  0.1480 -0.0664  0.0210
 1176ERGO    R515460  10.028   4.109   7.553  0.1426 -0.1821 -0.2178
 1176ERGO    C115461   9.868   3.940   7.854  0.4172 -0.0028  0.0323
 1176ERGO    C215462   9.737   3.815   8.062 -0.1189  0.1396 -0.1848
 1177ERGO   ROH15463  11.376  14.925   6.634  0.0781 -0.0536  0.0475
 1177ERGO    R115464  11.425  14.978   6.908  0.1512 -0.1434  0.0518
 1177ERGO    R215465  11.222  15.031   7.087  0.2197  0.0641  0.0640
 1177ERGO    R315466  11.335  14.827   7.227 -0.0058 -0.0830  0.0391
 1177ERGO    R415467  11.230  15.009   7.432  0.5064  0.2141  0.0701
 1177ERGO    R515468  11.435  14.934   7.418  0.3720 -0.1616 -0.0991
 1177ERGO    C115469  11.341  14.805   7.764  0.4615  0.1632  0.0502
 1177ERGO    C215470  11.300  14.808   8.068  0.1626  0.0468  0.0470
 1178ERGO   ROH15471  11.097  14.805   6.211 -0.0299  0.0160  0.2971
 1178ERGO    R115472  11.011  14.643   6.427  0.0069 -0.2166  0.1427
 1178ERGO    R215473  10.746  14.623   6.501  0.0330 -0.1608  0.2749
 1178ERGO    R315474  10.791  14.357   6.471 -0.1295 -0.1510 -0.1039
 1178ERGO    R415475  10.583  14.375   6.678  0.2373 -0.2915  0.2815
 1178ERGO    R515476  10.773  14.269   6.693  0.2213 -0.3949 -0.1679
 1178ERGO    C115477  10.530  13.981   6.753  0.2038 -0.3583 -0.0703
 1178ERGO    C215478  10.372  13.732   6.579 -0.0245  0.1350  0.0273
 1179ERGO   ROH15479   3.116   0.594   5.958  0.2006  0.1749  0.0982
 1179ERGO    R115480   2.993   0.649   6.207  0.1369 -0.0085  0.1081
 1179ERGO    R215481   2.932   0.450   6.390  0.3861 -0.1086  0.0826
 1179ERGO    R315482   3.077   0.606   6.558  0.1970  0.0512  0.1018
 1179ERGO    R415483   2.952   0.407   6.732  0.1960  0.0582  0.1170
 1179ERGO    R515484   2.942   0.623   6.755  0.0617  0.0681  0.0117
 1179ERGO    C115485   3.100   0.528   7.090 -0.0921  0.3054  0.1550
 1179ERGO    C215486   2.866   0.509   7.413  0.1015 -0.0446  0.2576
 1180ERGO   ROH15487   0.919  15.414   6.678  0.0830 -0.4901 -0.0386
 1180ERGO    R115488   0.934  15.478   6.953  0.0162 -0.3301 -0.0704
 1180ERGO    R215489   0.759  15.373   7.140 -0.0497 -0.2004 -0.0525
 1180ERGO    R315490   0.988  15.296   7.264 -0.0905 -0.1575  0.0494
 1180ERGO    R415491   0.806  15.365   7.482 -0.1751 -0.1493 -0.0340
 1180ERGO    R515492   1.007  15.443   7.452 -0.1760 -0.1335  0.0349
 1180ERGO    C115493   1.048  15.289   7.798 -0.2865 -0.0791  0.0724
 1180ERGO    C215494   1.221  15.051   7.972  0.2374  0.2775  0.1986
 1181ERGO   ROH15495  13.754  14.073   5.998  0.0958  0.2431 -0.0076
 1181ERGO    R115496  13.843  13.986   6.252 -0.0614  0.2170  0.0391
 1181ERGO    R215497  14.002  14.143   6.416  0.0088  0.1188  0.0631
 1181ERGO    R315498  13.805  14.096   6.597 -0.0915  0.3107  0.0064
 1181ERGO    R415499  14.032  14.184   6.758  0.0027 -0.0618  0.0866
 1181ERGO    R515500  13.917  14.002   6.785 -0.2517  0.0786 -0.0096
 1181ERGO    C115501  13.865  14.164   7.126 -0.0951  0.0131  0.0472
 1181ERGO    C215502  13.946  14.024   7.514  0.0251  0.0740  0.1495
 1182ERGO   ROH15503   4.379  15.231   6.475  0.0644  0.0869  0.0946
 1182ERGO    R115504   4.252  15.157   6.717 -0.0034  0.0883  0.0586
 1182ERGO    R215505   4.323  14.931   6.859 -0.1512  0.0064 -0.0048
 1182ERGO    R315506   4.351  15.107   7.064 -0.0699 -0.0758  0.0566
 1182ERGO    R415507   4.303  14.849   7.194 -0.1240 -0.1208 -0.0333
 1182ERGO    R515508   4.193  15.034   7.228 -0.0698 -0.0972  0.0527
 1182ERGO    C115509   4.319  14.967   7.582 -0.0319 -0.2720  0.0079
 1182ERGO    C215510   4.182  14.740   7.891  0.0111 -0.2925  0.2332
 1183ERGO   ROH15511  11.548  10.762   6.321 -0.0955 -0.0929 -0.0633
 1183ERGO    R115512  11.645  10.798   6.585 -0.0657 -0.1034 -0.0722
 1183ERGO    R215513  11.549  10.996   6.752  0.0938  0.0205 -0.1206
 1183ERGO    R315514  11.505  10.787   6.921 -0.0774  0.0960 -0.0703
 1183ERGO    R415515  11.413  11.023   7.069 -0.0502  0.1796 -0.1950
 1183ERGO    R515516  11.557  10.874   7.138 -0.1485  0.1434 -0.0747
 1183ERGO    C115517  11.292  10.843   7.411 -0.2947  0.3432 -0.1910
 1183ERGO    C215518  11.111  10.733   7.673  0.0995  0.1068  0.0190
 1184ERGO   ROH15519  15.475   3.621   6.421 -0.0025 -0.1614 -0.0745
 1184ERGO    R115520  15.342   3.572   6.666 -0.0217 -0.0100 -0.0535
 1184ERGO    R215521  15.461   3.435   6.874 -0.1229 -0.0933 -0.0480
 1184ERGO    R315522  15.394   3.657   7.017  0.0947 -0.0116 -0.0703
 1184ERGO    R415523  15.336   3.432   7.197 -0.0783  0.0700 -0.0288
 1184ERGO    R515524  15.198   3.592   7.139  0.0554  0.1827 -0.0308
 1184ERGO    C115525  15.200   3.640   7.518  0.1520  0.2417 -0.0386
 1184ERGO    C215526  15.145   3.565   7.919  0.1625  0.0583  0.0750
 1185ERGO   ROH15527  12.086  11.064   6.364  0.1628  0.0498  0.0866
 1185ERGO    R115528  12.121  11.112   6.640  0.0692  0.0712  0.0958
 1185ERGO    R215529  11.933  11.245   6.793  0.0138  0.0815  0.0251
 1185ERGO    R315530  11.948  11.022   6.948 -0.0346  0.0915  0.0433
 1185ERGO    R415531  11.851  11.232   7.129 -0.0756  0.1016  0.0036
 1185ERGO    R515532  12.024  11.103   7.161 -0.0901  0.0997  0.0578
 1185ERGO    C115533  11.818  11.015   7.470 -0.1731  0.1229  0.0082
 1185ERGO    C215534  11.704  11.127   7.796  0.1885  0.3056 -0.2225
 1186ERGO   ROH15535   3.421   5.263   6.464 -0.0014  0.0150  0.0192
 1186ERGO    R115536   3.505   5.448   6.662 -0.0267  0.0087  0.0356
 1186ERGO    R215537   3.328   5.602   6.806 -0.0425  0.0299 -0.0085
 1186ERGO    R315538   3.456   5.493   7.019 -0.1038  0.0205  0.0240
 1186ERGO    R415539   3.301   5.715   7.132  0.2541  0.3392 -0.0850
 1186ERGO    R515540   3.515   5.680   7.156  0.2216  0.0562 -0.1531
 1186ERGO    C115541   3.406   5.677   7.522  0.3692  0.5105 -0.0988
 1186ERGO    C215542   3.487   5.872   7.714 -0.0126 -0.1779  0.0245
 1187ERGO   ROH15543  11.188  13.494   6.336  0.1127  0.1178  0.0579
 1187ERGO    R115544  11.254  13.291   6.522  0.0329 -0.0330 -0.0769
 1187ERGO    R215545  11.356  13.347   6.774  0.0543 -0.2409 -0.0441
 1187ERGO    R315546  11.147  13.194   6.856 -0.0026 -0.2172 -0.1389
 1187ERGO    R415547  11.299  13.248   7.100 -0.0139 -0.3545 -0.0889
 1187ERGO    R515548  11.240  13.052   7.025 -0.0595 -0.3133 -0.1806
 1187ERGO    C115549  11.071  13.046   7.367 -0.1071 -0.3984 -0.2040
 1187ERGO    C215550  10.892  13.134   7.628 -0.0094 -0.0423 -0.2746
 1188ERGO   ROH15551  15.099  13.997   6.287  0.1184  0.0596  0.0214
 1188ERGO    R115552  14.973  13.902   6.521  0.0803  0.0166 -0.0170
 1188ERGO    R215553  15.108  13.759   6.716  0.0756  0.0860  0.0333
 1188ERGO    R315554  15.009  13.952   6.880 -0.0643  0.0489 -0.0051
 1188ERGO    R415555  15.109  13.744   7.061  0.0054  0.1080  0.0350
 1188ERGO    R515556  14.909  13.831   7.061 -0.0440  0.0055 -0.0190
 1188ERGO    C115557  15.017  13.917   7.416 -0.1667  0.0859 -0.0001
 1188ERGO    C215558  14.885  14.109   7.709  0.3149 -0.0834 -0.0241
 1189ERGO   ROH15559   5.798   0.165   6.287  0.0494 -0.1522  0.0698
 1189ERGO    R115560   5.946   0.176   6.527  0.0731 -0.0900  0.0519
 1189ERGO    R215561   6.063   0.409   6.619 -0.0083 -0.0437  0.0332
 1189ERGO    R315562   5.922   0.353   6.845  0.0414 -0.0946  0.0524
 1189ERGO    R415563   6.172   0.475   6.940 -0.0463  0.1228  0.0134
 1189ERGO    R515564   6.089   0.283   7.002  0.1028  0.0727  0.0654
 1189ERGO    C115565   6.103   0.461   7.339 -0.0218  0.1719  0.0199
 1189ERGO    C215566   6.252   0.641   7.651 -0.0093 -0.1592 -0.0163
 1190ERGO   ROH15567  13.048  16.311   6.577 -0.1414 -0.0921 -0.0763
 1190ERGO    R115568  12.869  16.347   6.793 -0.0587 -0.0404 -0.0157
 1190ERGO    R215569  12.788  16.139   6.956  0.0071 -0.0013  0.0692
 1190ERGO    R315570  12.879  16.301   7.154  0.0819  0.0506 -0.0071
 1190ERGO    R415571  12.754  16.077   7.294  0.2093  0.0455  0.0991
 1190ERGO    R515572  12.711  16.288   7.324  0.1793  0.0406  0.0889
 1190ERGO    C115573  12.820  16.193   7.677  0.3973  0.1215  0.0449
 1190ERGO    C215574  12.906  15.964   7.769 -0.0844 -0.2469 -0.0440
 1191ERGO   ROH15575   6.804  17.674   6.107 -0.1540 -0.0229  0.0474
 1191ERGO    R115576   6.679  17.539   6.322  0.0976 -0.1591  0.1136
 1191ERGO    R215577   6.814  17.468   6.552  0.2392  0.2160  0.1576
 1191ERGO    R315578   6.615  17.606   6.674 -0.0352 -0.0974  0.0775
 1191ERGO    R415579   6.765  17.482   6.894  0.2602  0.3826  0.1541
 1191ERGO    R515580   6.550  17.467   6.858  0.2801 -0.0914  0.1953
 1191ERGO    C115581   6.549  17.620   7.208  0.0150  0.1853  0.0768
 1191ERGO    C215582   6.646  17.542   7.572 -0.1838  0.1698  0.3881
 1192ERGO   ROH15583  13.410  12.107   6.594 -0.0557  0.0746  0.0511
 1192ERGO    R115584  13.530  12.038   6.841 -0.0784  0.0569  0.0579
 1192ERGO    R215585  13.745  12.176   6.946  0.0676 -0.0953 -0.0310
 1192ERGO    R315586  13.583  12.198   7.163  0.1174  0.1340 -0.0103
 1192ERGO    R415587  13.855  12.204   7.272  0.1456  0.0886 -0.0720
 1192ERGO    R515588  13.694  12.070   7.333  0.0941  0.2022  0.0584
 1192ERGO    C115589  13.768  12.240   7.666  0.2377  0.4110 -0.0764
 1192ERGO    C215590  13.845  12.342   7.913  0.1081 -0.0827  0.4124
 1193ERGO   ROH15591   1.492   2.753   6.392 -0.1372 -0.0507 -0.0117
 1193ERGO    R115592   1.346   2.771   6.634 -0.0498  0.0371  0.0351
 1193ERGO    R215593   1.276   2.548   6.782 -0.1879  0.0740  0.0243
 1193ERGO    R315594   1.400   2.683   6.983 -0.0159 -0.0556  0.0072
 1193ERGO    R415595   1.243   2.477   7.119 -0.1946  0.0872  0.0266
 1193ERGO    R515596   1.239   2.691   7.159  0.0221  0.0934  0.0387
 1193ERGO    C115597   1.341   2.561   7.503 -0.0371 -0.0268  0.0120
 1193ERGO    C215598   1.327   2.648   7.885 -0.4491 -0.1994  0.0642
 1194ERGO   ROH15599  13.144  13.817   6.274 -0.0136  0.0813 -0.1061
 1194ERGO    R115600  13.278  13.867   6.518 -0.0216  0.1630 -0.1180
 1194ERGO    R215601  13.384  14.114   6.582 -0.2271  0.2461 -0.0976
 1194ERGO    R315602  13.233  14.085   6.806 -0.1701  0.0826 -0.0786
 1194ERGO    R415603  13.464  14.243   6.893 -0.3131  0.3250 -0.1084
 1194ERGO    R515604  13.392  14.058   6.983 -0.1119  0.2430 -0.1015
 1194ERGO    C115605  13.367  14.292   7.283 -0.3097  0.2174 -0.0969
 1194ERGO    C215606  13.563  14.368   7.513  0.1610 -0.1411 -0.2530
 1195ERGO   ROH15607   6.409   9.732   5.583 -0.0487  0.0347 -0.0675
 1195ERGO    R115608   6.430   9.840   5.844  0.0837 -0.0539 -0.0414
 1195ERGO    R215609   6.209   9.902   5.998  0.1621  0.0996  0.0050
 1195ERGO    R315610   6.330   9.740   6.180  0.0446 -0.0547 -0.0521
 1195ERGO    R415611   6.171   9.926   6.341  0.1736  0.0123  0.0127
 1195ERGO    R515612   6.383   9.884   6.363  0.1492 -0.1520 -0.0006
 1195ERGO    C115613   6.262   9.787   6.711  0.0700 -0.1836 -0.0365
 1195ERGO    C215614   6.403   9.692   7.101  0.2802  0.2546 -0.1756
 1196ERGO   ROH15615   3.525  10.248   6.710 -0.1013 -0.1628 -0.0677
 1196ERGO    R115616   3.644  10.294   6.963 -0.1092  0.0535 -0.1004
 1196ERGO    R215617   3.497  10.346   7.190 -0.1238  0.1279 -0.1247
 1196ERGO    R315618   3.637  10.136   7.291 -0.0194  0.2555 -0.0003
 1196ERGO    R415619   3.494  10.248   7.522 -0.2434  0.1877 -0.1076
 1196ERGO    R515620   3.708  10.211   7.507 -0.2058  0.3515  0.0287
 1196ERGO    C115621   3.624   9.994   7.809 -0.2151  0.3423  0.0191
 1196ERGO    C215622   3.436   9.899   8.137  0.2495 -0.0145 -0.0579
 1197ERGO   ROH15623  15.642  16.038   6.584  0.0996  0.1142 -0.2045
 1197ERGO    R115624  15.676  16.111   6.855  0.0627  0.1827 -0.2165
 1197ERGO    R215625  15.810  15.952   7.036 -0.3388  0.0095 -0.0466
 1197ERGO    R315626  15.956  16.178   7.078  0.0555 -0.2314 -0.0801
 1197ERGO    R415627  15.875  16.090   7.346 -0.6562  0.3024 -0.1057
 1197ERGO    R515628  15.844  16.288   7.259 -0.0756  0.2571 -0.4451
 1197ERGO    C115629  16.050  16.382   7.566 -0.4708  0.2469 -0.1715
 1197ERGO    C215630  16.175  16.447   7.802 -0.0172 -0.0496  0.2809
 1198ERGO   ROH15631  14.905  15.424   6.336 -0.2958 -0.0515 -0.1418
 1198ERGO    R115632  14.848  15.392   6.611 -0.1580  0.1889 -0.0844
 1198ERGO    R215633  14.988  15.217   6.772 -0.3020  0.0870 -0.0853
 1198ERGO    R315634  15.027  15.438   6.925  0.1166  0.1182 -0.2232
 1198ERGO    R415635  15.085  15.212   7.104 -0.4592  0.0712 -0.0382
 1198ERGO    R515636  14.945  15.376   7.141 -0.1333  0.4250 -0.2111
 1198ERGO    C115637  15.178  15.418   7.440 -0.1579  0.0913 -0.1403
 1198ERGO    C215638  15.186  15.314   7.787 -0.1091 -0.3679 -0.0508
 1199ERGO   ROH15639  14.010   7.474   6.836 -0.0254  0.0594  0.0943
 1199ERGO    R115640  14.106   7.532   7.096 -0.0492  0.1342  0.0875
 1199ERGO    R215641  13.989   7.723   7.258 -0.2180  0.0113  0.1189
 1199ERGO    R315642  13.976   7.517   7.435  0.0045 -0.0197  0.1010
 1199ERGO    R415643  13.868   7.748   7.581 -0.1138 -0.1217  0.1681
 1199ERGO    R515644  14.030   7.617   7.646  0.0088 -0.0065  0.0910
 1199ERGO    C115645  13.785   7.569   7.935  0.1559 -0.2283  0.1802
 1199ERGO    C215646  13.617   7.498   8.285 -0.1240 -0.1650  0.1527
 1200ERGO   ROH15647  18.275  13.164   6.262  0.0816  0.0740 -0.0536
 1200ERGO    R115648  18.216  13.271   6.517  0.1784 -0.0067  0.0030
 1200ERGO    R215649  18.079  13.129   6.710  0.1835 -0.0387 -0.0198
 1200ERGO    R315650  18.296  13.190   6.863  0.2390 -0.1647 -0.0466
 1200ERGO    R415651  18.126  13.026   7.037  0.0989  0.0361  0.0170
 1200ERGO    R515652  18.207  13.223   7.082  0.2666 -0.0106 -0.0556
 1200ERGO    C115653  18.358  13.023   7.370  0.1018 -0.0387  0.0132
 1200ERGO    C215654  18.343  12.674   7.644  0.4149 -0.1373 -0.3353
 1201ERGO   ROH15655  14.068   3.974   6.650  0.0531  0.0409 -0.0135
 1201ERGO    R115656  14.002   4.205   6.799  0.1314  0.0506  0.0062
 1201ERGO    R215657  13.866   4.192   7.039  0.0304  0.0818 -0.0501
 1201ERGO    R315658  14.078   4.337   7.130  0.0811 -0.0600  0.0629
 1201ERGO    R415659  13.847   4.444   7.276  0.0914  0.0126  0.0293
 1201ERGO    R515660  13.991   4.558   7.158  0.1885 -0.0224  0.1105
 1201ERGO    C115661  14.035   4.725   7.498  0.1747 -0.1606  0.1816
 1201ERGO    C215662  14.065   4.707   7.832 -0.0398  0.4737 -0.1055
 1202ERGO   ROH15663  10.657  17.769   6.627  0.1204  0.2499  0.2561
 1202ERGO    R115664  10.774  17.766   6.885  0.1416  0.1032  0.2450
 1202ERGO    R215665  10.624  17.761   7.117  0.1597  0.1026  0.2548
 1202ERGO    R315666  10.776  17.542   7.172  0.0528  0.0057  0.1709
 1202ERGO    R415667  10.636  17.600   7.422  0.1561  0.0443  0.2244
 1202ERGO    R515668  10.851  17.576   7.396  0.1383 -0.0734  0.1568
 1202ERGO    C115669  10.785  17.300   7.652  0.0537 -0.0807  0.1279
 1202ERGO    C215670  10.650  17.239   7.839  0.2971 -0.2119 -0.1369
 1203ERGO   ROH15671   5.320  17.668   5.970  0.2916  0.1159  0.0307
 1203ERGO    R115672   5.337  17.544   6.224  0.2608  0.0280 -0.0092
 1203ERGO    R215673   5.560  17.565   6.385  0.2103  0.0458  0.0651
 1203ERGO    R315674   5.380  17.652   6.569  0.1247 -0.0809  0.0415
 1203ERGO    R415675   5.630  17.626   6.718  0.0800 -0.0448  0.1093
 1203ERGO    R515676   5.438  17.537   6.770  0.0984 -0.1274  0.0187
 1203ERGO    C115677   5.501  17.743   7.085 -0.0762 -0.2166  0.1130
 1203ERGO    C215678   5.444  17.900   7.530 -0.2075 -0.1011  0.2856
 1204ERGO   ROH15679  12.915   2.634   6.644  0.0774 -0.1662 -0.0863
 1204ERGO    R115680  12.995   2.685   6.911  0.0474 -0.1604 -0.0782
 1204ERGO    R215681  12.902   2.902   7.055  0.1883 -0.0418 -0.1620
 1204ERGO    R315682  12.831   2.711   7.235 -0.0213  0.0642 -0.1288
 1204ERGO    R415683  12.782   2.964   7.373  0.4905  0.1477 -0.0808
 1204ERGO    R515684  12.903   2.798   7.446  0.2611 -0.0624 -0.1679
 1204ERGO    C115685  12.646   2.820   7.727  0.4697  0.3576 -0.0026
 1204ERGO    C215686  12.373   2.748   7.867  0.1991  0.0112  0.3172
 1205ERGO   ROH15687  17.081   4.037   6.127 -0.1024 -0.0463  0.0005
 1205ERGO    R115688  17.218   4.098   6.367 -0.0480 -0.0700 -0.0233
 1205ERGO    R215689  17.146   4.310   6.530 -0.0457 -0.1135  0.0439
 1205ERGO    R315690  17.135   4.118   6.721  0.0410 -0.1605  0.0009
 1205ERGO    R415691  17.112   4.370   6.868 -0.1220 -0.2194  0.0551
 1205ERGO    R515692  17.256   4.211   6.906 -0.0396 -0.1401  0.0368
 1205ERGO    C115693  17.082   4.224   7.245 -0.0850 -0.3253  0.0212
 1205ERGO    C215694  17.132   4.292   7.659  0.0597  0.0042 -0.3321
 1206ERGO   ROH15695   8.707   7.985   6.285  0.0341 -0.0617  0.2990
 1206ERGO    R115696   8.426   7.980   6.323  0.0238 -0.0131  0.2326
 1206ERGO    R215697   8.279   7.747   6.313 -0.0141  0.0119  0.1996
 1206ERGO    R315698   8.194   7.828   6.558 -0.0581  0.0287  0.1790
 1206ERGO    R415699   7.957   7.705   6.434 -0.0321  0.0088  0.1505
 1206ERGO    R515700   7.970   7.905   6.521 -0.0551  0.0162  0.1359
 1206ERGO    C115701   7.691   7.756   6.734 -0.0840  0.0226  0.1025
 1206ERGO    C215702   7.380   7.568   6.924  0.0418 -0.1114 -0.0732
 1207ERGO   ROH15703   7.244   8.425   5.863 -0.0675 -0.0673  0.0464
 1207ERGO    R115704   7.322   8.541   6.110 -0.0706 -0.0499  0.0389
 1207ERGO    R215705   7.144   8.672   6.275 -0.0917 -0.1232  0.0720
 1207ERGO    R315706   7.237   8.497   6.461  0.0021 -0.0961  0.0516
 1207ERGO    R415707   7.145   8.728   6.616 -0.1749 -0.1802  0.0822
 1207ERGO    R515708   7.342   8.634   6.625 -0.1108 -0.0517  0.0901
 1207ERGO    C115709   7.234   8.595   6.989 -0.1352 -0.1880  0.0690
 1207ERGO    C215710   7.080   8.569   7.170  0.0498 -0.0072  0.0790
 1208ERGO   ROH15711   2.196   4.073   6.184 -0.0910 -0.0050 -0.0571
 1208ERGO    R115712   2.274   4.032   6.453 -0.0901  0.0104 -0.0546
 1208ERGO    R215713   2.538   4.049   6.535 -0.0981  0.1128 -0.0441
 1208ERGO    R315714   2.436   4.228   6.713 -0.1839  0.0667 -0.0355
 1208ERGO    R415715   2.693   4.146   6.828 -0.1253  0.2007 -0.0588
 1208ERGO    R515716   2.499   4.141   6.927 -0.1204  0.0988 -0.0381
 1208ERGO    C115717   2.689   4.370   7.165 -0.2217  0.2087 -0.0593
 1208ERGO    C215718   2.871   4.330   7.349  0.1055  0.1110 -0.1065
 1209ERGO   ROH15719  14.789  11.878   6.549  0.0747  0.0175 -0.0411
 1209ERGO    R115720  14.845  11.995   6.800  0.1639 -0.0250 -0.0416
 1209ERGO    R215721  14.725  11.910   7.034  0.0297  0.1269 -0.0569
 1209ERGO    R315722  14.982  11.883   7.119 -0.0112 -0.1532 -0.0087
 1209ERGO    R415723  14.822  11.867   7.364 -0.0616  0.5240  0.0269
 1209ERGO    R515724  14.989  12.002   7.327  0.1679  0.1966 -0.2023
 1209ERGO    C115725  15.119  11.818   7.634 -0.1528  0.4924  0.1208
 1209ERGO    C215726  15.183  11.734   7.917  0.0045 -0.0569  0.1251
 1210ERGO   ROH15727  16.795  16.662   6.540 -0.0530 -0.1775  0.0084
 1210ERGO    R115728  16.736  16.625   6.815 -0.0098  0.0862  0.0551
 1210ERGO    R215729  16.817  16.401   6.956 -0.2392  0.0839  0.1823
 1210ERGO    R315730  16.926  16.585   7.123  0.0433  0.0686  0.0210
 1210ERGO    R415731  16.942  16.334   7.271 -0.0651  0.1163  0.1215
 1210ERGO    R515732  16.854  16.520   7.341  0.1436  0.2274  0.1057
 1210ERGO    C115733  17.118  16.469   7.611  0.3013  0.1205 -0.0654
 1210ERGO    C215734  17.257  16.490   7.916 -0.1226 -0.1626  0.0246
 1211ERGO   ROH15735  14.009   1.485   6.889 -0.2654 -0.0718 -0.0408
 1211ERGO    R115736  13.934   1.496   7.161 -0.2161 -0.2102 -0.0213
 1211ERGO    R215737  14.016   1.307   7.346  0.0842 -0.1276 -0.0682
 1211ERGO    R315738  14.105   1.526   7.481 -0.1767 -0.0228 -0.0578
 1211ERGO    R415739  14.110   1.310   7.679  0.2327 -0.0740 -0.1089
 1211ERGO    R515740  14.012   1.503   7.700 -0.0482 -0.2182 -0.0185
 1211ERGO    C115741  14.248   1.516   7.999  0.0742  0.0556 -0.1228
 1211ERGO    C215742  14.411   1.515   8.251  0.4399 -0.3470 -0.1172
 1212ERGO   ROH15743   4.244  17.959   6.244  0.0934 -0.0569 -0.1061
 1212ERGO    R115744   4.224  17.948   6.527 -0.0588 -0.0245 -0.1149
 1212ERGO    R215745   4.429  17.857   6.687 -0.1416 -0.0005  0.0079
 1212ERGO    R315746   4.396  18.098   6.810 -0.2152  0.0136 -0.0392
 1212ERGO    R415747   4.414  17.904   7.030  0.3859  0.1230  0.0223
 1212ERGO    R515748   4.255  18.050   6.998  0.1554 -0.0765  0.2262
 1212ERGO    C115749   4.375  18.157   7.344  0.6240  0.2082 -0.0135
 1212ERGO    C215750   4.467  18.174   7.676  0.3364 -0.0777  0.1386
 1213ERGO   ROH15751   0.543  17.944   6.657  0.0992 -0.1646 -0.0833
 1213ERGO    R115752   0.440  17.917   6.919 -0.0605 -0.1417 -0.1429
 1213ERGO    R215753   0.490  17.695   7.076  0.0803 -0.0023  0.0084
 1213ERGO    R315754   0.576  17.881   7.255 -0.2614  0.1926 -0.0195
 1213ERGO    R415755   0.482  17.656   7.419  0.2821 -0.0387  0.0105
 1213ERGO    R515756   0.420  17.865   7.436 -0.1761 -0.1606  0.0349
 1213ERGO    C115757   0.558  17.808   7.787  0.0789  0.1229 -0.0144
 1213ERGO    C215758   0.459  17.724   7.990 -0.0015  0.0509  0.1393
 1214ERGO   ROH15759   0.257  17.260   7.167  0.0428  0.1308 -0.1969
 1214ERGO    R115760   0.176  17.234   7.437  0.0801  0.0339 -0.1942
 1214ERGO    R215761   0.098  17.450   7.590  0.2416  0.0015 -0.0596
 1214ERGO    R315762  -0.125  17.300   7.630  0.1575  0.1150 -0.1008
 1214ERGO    R415763  -0.058  17.405   7.895  0.3942 -0.2397 -0.0157
 1214ERGO    R515764  -0.089  17.195   7.842  0.2126 -0.1585 -0.2408
 1214ERGO    C115765  -0.357  17.237   8.110  0.4043 -0.2733 -0.0287
 1214ERGO    C215766  -0.670  17.256   8.271 -0.0094  0.0278  0.0410
 1215ERGO   ROH15767   1.733  18.227   6.332 -0.1565  0.0585  0.0812
 1215ERGO    R115768   1.819  18.068   6.549  0.0571  0.0218 -0.0274
 1215ERGO    R215769   2.049  18.124   6.692  0.0502  0.1616 -0.0674
 1215ERGO    R315770   1.880  18.117   6.905  0.1162 -0.1082 -0.0193
 1215ERGO    R415771   2.144  18.164   7.022  0.0750  0.3570 -0.0971
 1215ERGO    R515772   2.004  18.006   7.077  0.3568  0.1184 -0.0417
 1215ERGO    C115773   2.041  18.181   7.414  0.1513  0.2173 -0.0691
 1215ERGO    C215774   2.051  18.317   7.824  0.1239  0.1444  0.1176
 1216ERGO   ROH15775   0.724   7.200   6.016  0.2401  0.3665 -0.0208
 1216ERGO    R115776   0.799   7.040   6.237  0.0054  0.1924 -0.0633
 1216ERGO    R215777   0.999   7.113   6.414  0.0507 -0.1024  0.0187
 1216ERGO    R315778   0.804   7.076   6.599 -0.0427  0.0469 -0.0487
 1216ERGO    R415779   1.047   7.119   6.756 -0.0697 -0.1542  0.0363
 1216ERGO    R515780   0.910   6.951   6.774 -0.2077 -0.0423 -0.0154
 1216ERGO    C115781   0.892   7.088   7.129 -0.2276 -0.0441 -0.0166
 1216ERGO    C215782   0.850   7.012   7.479  0.0258 -0.0616  0.1071
 1217ERGO   ROH15783   4.884   5.453   5.771  0.0524 -0.1646 -0.0864
 1217ERGO    R115784   4.770   5.481   6.028 -0.0255 -0.1745 -0.1193
 1217ERGO    R215785   4.648   5.271   6.160  0.0476 -0.2142 -0.1101
 1217ERGO    R315786   4.823   5.335   6.357 -0.0316 -0.0877 -0.0802
 1217ERGO    R415787   4.627   5.159   6.486 -0.1271  0.0655 -0.0224
 1217ERGO    R515788   4.687   5.358   6.553 -0.1159  0.1071 -0.1614
 1217ERGO    C115789   4.780   5.155   6.862 -0.3033  0.3470  0.0568
 1217ERGO    C215790   4.729   4.942   7.095 -0.0962  0.2860  0.3417
 1218ERGO   ROH15791   9.486   1.675   5.956 -0.1908 -0.0236 -0.1376
 1218ERGO    R115792   9.450   1.787   6.213  0.0513 -0.1413 -0.0497
 1218ERGO    R215793   9.224   1.741   6.365  0.0504  0.0463  0.0052
 1218ERGO    R315794   9.404   1.662   6.552  0.0269 -0.3036 -0.1118
 1218ERGO    R415795   9.148   1.666   6.694  0.1264  0.2972  0.0824
 1218ERGO    R515796   9.331   1.768   6.754  0.4049 -0.0825 -0.0796
 1218ERGO    C115797   9.273   1.548   7.061  0.1486  0.1148  0.0176
 1218ERGO    C215798   9.102   1.402   7.275 -0.0210 -0.0463 -0.1097
 1219ERGO   ROH15799   0.532  10.482   6.362 -0.3487 -0.3060  0.1360
 1219ERGO    R115800   0.600  10.246   6.503 -0.1366 -0.2723  0.0960
 1219ERGO    R215801   0.856  10.140   6.503 -0.0560 -0.1023 -0.0036
 1219ERGO    R315802   0.827  10.155   6.772  0.0248 -0.1314  0.0059
 1219ERGO    R415803   1.016   9.936   6.731  0.0927 -0.0381 -0.0500
 1219ERGO    R515804   0.831   9.927   6.845  0.1424 -0.1219  0.0027
 1219ERGO    C115805   1.081   9.830   7.117  0.2551 -0.0282 -0.0681
 1219ERGO    C215806   1.285   9.665   7.332  0.1677 -0.1183 -0.0568
 1220ERGO   ROH15807   2.355  15.268   6.283  0.1640 -0.0123 -0.1235
 1220ERGO    R115808   2.128  15.308   6.447  0.1389  0.1485 -0.1961
 1220ERGO    R215809   2.070  15.146   6.664 -0.1841  0.0281 -0.3656
 1220ERGO    R315810   2.067  15.383   6.798  0.0768 -0.0813 -0.1570
 1220ERGO    R415811   1.994  15.183   6.999 -0.2486 -0.1680 -0.3579
 1220ERGO    R515812   1.882  15.363   6.949 -0.0007  0.0228 -0.2380
 1220ERGO    C115813   1.945  15.425   7.320 -0.0413 -0.3848 -0.1575
 1220ERGO    C215814   1.906  15.492   7.554 -0.0586 -0.1784  0.1077
 1221ERGO   ROH15815   8.379   2.495   6.047 -0.0849  0.0355 -0.1039
 1221ERGO    R115816   8.419   2.420   6.317 -0.0164  0.2660 -0.0499
 1221ERGO    R215817   8.412   2.602   6.523 -0.4109  0.3775 -0.1633
 1221ERGO    R315818   8.226   2.432   6.626 -0.1241  0.0872 -0.1060
 1221ERGO    R415819   8.340   2.570   6.860 -0.4700  0.5105 -0.1611
 1221ERGO    R515820   8.326   2.354   6.830 -0.0352  0.4412 -0.0003
 1221ERGO    C115821   8.124   2.391   7.152 -0.2352  0.3154 -0.1061
 1221ERGO    C215822   8.069   2.513   7.388 -0.0310  0.0260  0.2992
 1222ERGO   ROH15823  11.415   2.177   6.358 -0.1401 -0.0886 -0.2259
 1222ERGO    R115824  11.383   2.117   6.632 -0.2580 -0.0463 -0.2295
 1222ERGO    R215825  11.573   2.182   6.823 -0.2267 -0.2359 -0.1934
 1222ERGO    R315826  11.363   2.304   6.944 -0.1261 -0.0127 -0.2408
 1222ERGO    R415827  11.570   2.291   7.150 -0.1750 -0.2111 -0.2015
 1222ERGO    R515828  11.365   2.219   7.167 -0.2537 -0.0017 -0.2345
 1222ERGO    C115829  11.371   2.469   7.455 -0.0506  0.0130 -0.2506
 1222ERGO    C215830  11.434   2.712   7.670 -0.2525 -0.1888  0.2021
 1223ERGO   ROH15831   4.843  11.809   6.435  0.0874  0.2088 -0.1143
 1223ERGO    R115832   5.083  11.882   6.566  0.0434  0.1414  0.0041
 1223ERGO    R215833   5.086  12.015   6.808 -0.0380  0.0285  0.0667
 1223ERGO    R315834   5.243  11.807   6.884 -0.0696 -0.0108  0.0268
 1223ERGO    R415835   5.301  12.019   7.078 -0.1351 -0.1006  0.1477
 1223ERGO    R515836   5.447  11.911   6.958 -0.0932 -0.0476  0.1483
 1223ERGO    C115837   5.575  11.826   7.307 -0.2213 -0.2126  0.1573
 1223ERGO    C215838   5.861  11.889   7.581  0.1804  0.0660  0.2916
 1224ERGO   ROH15839   6.197   5.946   5.919  0.1341  0.0028 -0.1284
 1224ERGO    R115840   6.199   5.759   6.131 -0.1937 -0.0243 -0.1426
 1224ERGO    R215841   6.396   5.756   6.326 -0.0356 -0.5425 -0.2823
 1224ERGO    R315842   6.183   5.771   6.495  0.1079  0.0101 -0.1303
 1224ERGO    R415843   6.396   5.653   6.656  0.0379 -0.0743 -0.1287
 1224ERGO    R515844   6.196   5.572   6.626 -0.1018  0.1781  0.1426
 1224ERGO    C115845   6.195   5.607   7.006  0.2156  0.7172  0.1036
 1224ERGO    C215846   6.124   5.579   7.386 -0.2557  0.2584  0.5981
 1225ERGO   ROH15847  18.282   4.410   6.015 -0.0828 -0.1304  0.0722
 1225ERGO    R115848  18.202   4.378   6.285 -0.1959 -0.1047  0.0429
 1225ERGO    R215849  18.335   4.499   6.495 -0.0936 -0.3288  0.1145
 1225ERGO    R315850  18.088   4.595   6.554  0.0075 -0.0293  0.0689
 1225ERGO    R415851  18.237   4.616   6.805 -0.0155 -0.1988  0.0907
 1225ERGO    R515852  18.045   4.517   6.776 -0.1285  0.0306  0.0617
 1225ERGO    C115853  17.948   4.774   7.041  0.1248  0.1580  0.0340
 1225ERGO    C215854  17.728   4.920   7.276 -0.0266 -0.1948  0.0136
 1226ERGO   ROH15855   7.745   3.240   6.213 -0.1865 -0.2156 -0.1291
 1226ERGO    R115856   7.554   3.203   6.419 -0.1108 -0.1407 -0.0447
 1226ERGO    R215857   7.509   2.958   6.538 -0.0813 -0.1017  0.0478
 1226ERGO    R315858   7.558   3.097   6.767  0.0150 -0.0348 -0.0128
 1226ERGO    R415859   7.353   2.902   6.841 -0.0706  0.0917  0.0905
 1226ERGO    R515860   7.343   3.117   6.871  0.0370  0.1092  0.0073
 1226ERGO    C115861   7.307   2.999   7.232  0.0260  0.2672  0.0585
 1226ERGO    C215862   7.223   2.794   7.524 -0.2778  0.3757  0.1185
 1227ERGO   ROH15863   4.672   2.853   6.045  0.4784  0.1583 -0.1591
 1227ERGO    R115864   4.732   2.925   6.312  0.3866  0.0681 -0.1143
 1227ERGO    R215865   4.537   2.955   6.505  0.2955  0.2494 -0.2337
 1227ERGO    R315866   4.690   2.776   6.642  0.0272  0.0754 -0.1534
 1227ERGO    R415867   4.552   2.931   6.850  0.1711  0.2976 -0.2236
 1227ERGO    R515868   4.767   2.898   6.833  0.1353  0.0136 -0.1578
 1227ERGO    C115869   4.704   2.749   7.178 -0.1533  0.1624 -0.1424
 1227ERGO    C215870   4.631   2.767   7.483 -0.0229 -0.0522  0.3243
 1228ERGO   ROH15871   5.154  16.550   6.117  0.0534  0.1328  0.1049
 1228ERGO    R115872   5.099  16.657   6.373 -0.0066  0.0487  0.1284
 1228ERGO    R215873   4.842  16.677   6.473 -0.0348  0.0323  0.0693
 1228ERGO    R315874   4.948  16.539   6.682 -0.0973 -0.0495  0.0462
 1228ERGO    R415875   4.734  16.701   6.801 -0.0422 -0.0018  0.0688
 1228ERGO    R515876   4.942  16.693   6.865 -0.0516 -0.0900  0.0790
 1228ERGO    C115877   4.770  16.584   7.187 -0.1051 -0.0984  0.0468
 1228ERGO    C215878   4.594  16.485   7.419 -0.0018 -0.2265 -0.0458
 1229ERGO   ROH15879   3.915   4.765   6.443 -0.0335  0.0284 -0.0596
 1229ERGO    R115880   3.878   4.915   6.680 -0.0322  0.0046 -0.0433
 1229ERGO    R215881   3.629   5.002   6.765 -0.0411 -0.0472 -0.0041
 1229ERGO    R315882   3.699   4.874   6.994  0.0142 -0.0541 -0.0256
 1229ERGO    R415883   3.509   5.080   7.079  0.1983  0.0764  0.0583
 1229ERGO    R515884   3.709   5.047   7.159  0.2232 -0.0375 -0.0572
 1229ERGO    C115885   3.504   5.005   7.478  0.3897  0.1419  0.0744
 1229ERGO    C215886   3.446   4.940   7.817  0.2799 -0.1218 -0.1931
 1230ERGO   ROH15887   9.472  14.985   6.574  0.0061 -0.2535 -0.0745
 1230ERGO    R115888   9.587  15.025   6.830 -0.1140 -0.3461 -0.0067
 1230ERGO    R215889   9.677  14.816   6.987  0.2771 -0.3718 -0.2651
 1230ERGO    R315890   9.908  14.960   6.989  0.0027  0.0942 -0.0432
 1230ERGO    R415891   9.898  14.833   7.253  0.3399 -0.5492 -0.3030
 1230ERGO    R515892   9.923  15.045   7.212 -0.0957 -0.3778  0.1634
 1230ERGO    C115893  10.243  14.977   7.409  0.1189 -0.2151 -0.1168
 1230ERGO    C215894  10.455  14.730   7.470 -0.0205 -0.0981  0.1290
 1231ERGO   ROH15895   9.557  16.293   6.915 -0.2113  0.1010 -0.0613
 1231ERGO    R115896   9.392  16.319   7.143 -0.3562 -0.0750 -0.1446
 1231ERGO    R215897   9.248  16.108   7.247 -0.0608 -0.2714 -0.1270
 1231ERGO    R315898   9.376  16.175   7.477 -0.2669  0.0314 -0.0934
 1231ERGO    R415899   9.152  16.006   7.563  0.1122 -0.5369 -0.1564
 1231ERGO    R515900   9.200  16.206   7.636 -0.3908 -0.4106 -0.1290
 1231ERGO    C115901   9.216  16.009   7.963  0.0194 -0.4073 -0.1418
 1231ERGO    C215902   9.259  15.753   8.157 -0.3067 -0.0888  0.3904
 1232ERGO   ROH15903   6.876  13.617   6.443  0.1236  0.2350  0.0826
 1232ERGO    R115904   6.801  13.705   6.702 -0.0684  0.1750  0.0482
 1232ERGO    R215905   6.587  13.596   6.840 -0.0509  0.0089 -0.0563
 1232ERGO    R315906   6.774  13.557   7.034 -0.1140  0.1517  0.0349
 1232ERGO    R415907   6.542  13.668   7.175 -0.2579  0.0115 -0.0832
 1232ERGO    R515908   6.746  13.744   7.181 -0.3089  0.1495  0.0054
 1232ERGO    C115909   6.691  13.675   7.552 -0.4377  0.1472 -0.0134
 1232ERGO    C215910   6.788  13.513   7.857  0.0832 -0.0870 -0.2587
 1233ERGO   ROH15911   8.572   9.168   6.049 -0.0185 -0.0880 -0.0286
 1233ERGO    R115912   8.540   9.407   6.197 -0.0114 -0.0690 -0.0568
 1233ERGO    R215913   8.378   9.424   6.420 -0.0707 -0.0177 -0.1007
 1233ERGO    R315914   8.604   9.517   6.538 -0.0829 -0.0557 -0.0484
 1233ERGO    R415915   8.392   9.566   6.734 -0.1161 -0.0144 -0.1004
 1233ERGO    R515916   8.533   9.713   6.656 -0.0732 -0.0424 -0.0686
 1233ERGO    C115917   8.613   9.737   7.028 -0.1538 -0.0481 -0.0512
 1233ERGO    C215918   8.696   9.849   7.363 -0.1038 -0.2571 -0.0394
 1234ERGO   ROH15919   8.865  12.366   6.202 -0.0044  0.0783 -0.0467
 1234ERGO    R115920   8.804  12.481   6.453 -0.0031  0.0358 -0.0264
 1234ERGO    R215921   8.559  12.447   6.577 -0.0235  0.0604 -0.0558
 1234ERGO    R315922   8.712  12.361   6.784 -0.0598 -0.0193 -0.0625
 1234ERGO    R415923   8.445  12.395   6.899 -0.0417  0.0847 -0.0586
 1234ERGO    R515924   8.630  12.482   6.974 -0.0062  0.0000 -0.0534
 1234ERGO    C115925   8.522  12.284   7.281 -0.0863  0.0239 -0.0665
 1234ERGO    C215926   8.478  12.130   7.545  0.3506  0.0210 -0.1985
 1235ERGO   ROH15927   4.752   6.105   5.878 -0.0255  0.2010 -0.0264
 1235ERGO    R115928   4.657   6.290   6.070  0.0292  0.1825  0.0182
 1235ERGO    R215929   4.564   6.212   6.318 -0.0256  0.1472 -0.0152
 1235ERGO    R315930   4.748   6.390   6.408  0.0356  0.0485  0.0572
 1235ERGO    R415931   4.600   6.308   6.648 -0.1160  0.1353 -0.0012
 1235ERGO    R515932   4.634   6.512   6.580  0.0268  0.1170  0.0049
 1235ERGO    C115933   4.795   6.531   6.925 -0.1112  0.0358  0.0749
 1235ERGO    C215934   4.768   6.271   7.226 -0.2856 -0.1646  0.0574
 1236ERGO   ROH15935  10.432   3.223   6.427 -0.1008  0.1613  0.1480
 1236ERGO    R115936  10.562   3.102   6.648 -0.0870  0.1836  0.1525
 1236ERGO    R215937  10.626   3.241   6.878 -0.2244  0.1688  0.2030
 1236ERGO    R315938  10.486   3.043   6.999 -0.1435  0.0594  0.1198
 1236ERGO    R415939  10.585   3.209   7.219 -0.0537 -0.1031  0.2010
 1236ERGO    R515940  10.611   2.994   7.197 -0.0420 -0.0834  0.0208
 1236ERGO    C115941  10.429   3.005   7.533  0.1216 -0.3642  0.1216
 1236ERGO    C215942  10.296   3.063   7.847 -0.0775 -0.0647  0.0799
 1237ERGO   ROH15943  13.606  12.996   6.197 -0.0227  0.0106 -0.0953
 1237ERGO    R115944  13.688  13.109   6.443 -0.0582  0.0024 -0.0791
 1237ERGO    R215945  13.555  13.062   6.679 -0.1266  0.0381 -0.1069
 1237ERGO    R315946  13.801  12.986   6.766 -0.1627 -0.0118 -0.0488
 1237ERGO    R415947  13.679  13.124   6.996 -0.1266  0.1338 -0.1255
 1237ERGO    R515948  13.873  13.168   6.905 -0.1057  0.0206 -0.1261
 1237ERGO    C115949  13.983  13.089   7.262 -0.1603  0.1427 -0.0819
 1237ERGO    C215950  13.927  13.289   7.540  0.0417 -0.0622 -0.2199
 1238ERGO   ROH15951   2.930   8.725   6.218  0.1167  0.0530 -0.1225
 1238ERGO    R115952   2.934   8.661   6.494  0.1527 -0.1235 -0.1637
 1238ERGO    R215953   3.169   8.636   6.638  0.1593  0.2524 -0.1110
 1238ERGO    R315954   3.050   8.819   6.800 -0.2629 -0.0864 -0.0165
 1238ERGO    R415955   3.249   8.689   6.970  0.1128  0.3201 -0.1094
 1238ERGO    R515956   3.037   8.711   7.013  0.0474 -0.2125 -0.0510
 1238ERGO    C115957   3.185   8.892   7.315 -0.3106  0.0414 -0.0199
 1238ERGO    C215958   3.247   8.835   7.616  0.0022  0.1125  0.3897
 1239ERGO   ROH15959   8.278  15.167   6.685 -0.1636  0.1684 -0.0526
 1239ERGO    R115960   8.164  15.138   6.943 -0.0613  0.1337 -0.0109
 1239ERGO    R215961   8.196  14.909   7.095 -0.0125  0.1068 -0.0601
 1239ERGO    R315962   8.286  15.085   7.281  0.0732  0.0725 -0.0690
 1239ERGO    R415963   8.133  14.888   7.434  0.0736  0.0966 -0.0444
 1239ERGO    R515964   8.107  15.104   7.438  0.1204  0.0998 -0.0199
 1239ERGO    C115965   8.182  15.040   7.806  0.2041  0.0584 -0.0436
 1239ERGO    C215966   8.189  14.987   8.117  0.1035 -0.0696 -0.0268
 1240ERGO   ROH15967   2.074   6.526   6.029  0.0128 -0.0511 -0.0881
 1240ERGO    R115968   2.043   6.550   6.309  0.1163  0.1501 -0.0930
 1240ERGO    R215969   2.079   6.338   6.481 -0.0252  0.2237  0.0256
 1240ERGO    R315970   2.254   6.507   6.603  0.1640  0.1429 -0.1275
 1240ERGO    R415971   2.186   6.309   6.809  0.2287  0.1884 -0.0576
 1240ERGO    R515972   2.172   6.526   6.827  0.3552  0.1999 -0.0585
 1240ERGO    C115973   2.413   6.452   7.113  0.5542  0.0922 -0.2497
 1240ERGO    C215974   2.456   6.160   7.368 -0.0332 -0.2426 -0.1542
 1241ERGO   ROH15975   2.172   7.436   6.102  0.0271 -0.0093 -0.0191
 1241ERGO    R115976   2.203   7.560   6.354  0.0089  0.0292 -0.0336
 1241ERGO    R215977   1.995   7.587   6.534 -0.0022  0.0280 -0.0328
 1241ERGO    R315978   2.168   7.462   6.703  0.0148  0.0666 -0.0249
 1241ERGO    R415979   1.972   7.592   6.879 -0.0585 -0.0552 -0.0367
 1241ERGO    R515980   2.189   7.613   6.889 -0.0769  0.0299  0.0078
 1241ERGO    C115981   2.120   7.477   7.238 -0.0753 -0.0675 -0.0316
 1241ERGO    C215982   1.743   7.519   7.306  0.0538  0.1294 -0.0769
 1242ERGO   ROH15983  10.405   1.771   6.001 -0.0199  0.2390  0.0758
 1242ERGO    R115984  10.446   1.905   6.248 -0.1795  0.2001  0.1243
 1242ERGO    R215985  10.237   1.993   6.405 -0.2873 -0.0672  0.1355
 1242ERGO    R315986  10.362   1.846   6.597 -0.1526 -0.0037  0.0983
 1242ERGO    R415987  10.236   2.067   6.743 -0.2879 -0.1062  0.1441
 1242ERGO    R515988  10.446   2.008   6.751 -0.2427  0.0399  0.1041
 1242ERGO    C115989  10.353   1.971   7.119 -0.1619 -0.0693  0.1143
 1242ERGO    C215990  10.472   2.116   7.455 -0.3320 -0.0673 -0.2846
 1243ERGO   ROH15991   3.978   3.642   6.215 -0.2260 -0.1676 -0.1146
 1243ERGO    R115992   3.934   3.781   6.458 -0.2338 -0.0890 -0.1608
 1243ERGO    R215993   3.709   3.741   6.614 -0.1846 -0.1227 -0.0971
 1243ERGO    R315994   3.893   3.694   6.809 -0.1224  0.0331 -0.1170
 1243ERGO    R415995   3.687   3.858   6.938 -0.2532 -0.1526 -0.0908
 1243ERGO    R515996   3.901   3.899   6.933 -0.2893  0.0367 -0.1116
 1243ERGO    C115997   3.846   3.883   7.310 -0.2346 -0.0236 -0.1059
 1243ERGO    C215998   3.763   4.011   7.583 -0.4810  0.1554  0.0764
 1244ERGO   ROH15999  12.511   7.726   6.738 -0.1723 -0.1217 -0.0038
 1244ERGO    R116000  12.457   7.568   6.966 -0.1386 -0.1336 -0.0036
 1244ERGO    R216001  12.626   7.559   7.184 -0.0948 -0.1629 -0.0376
 1244ERGO    R316002  12.401   7.626   7.320 -0.0616 -0.1540  0.0122
 1244ERGO    R416003  12.551   7.456   7.506 -0.0199 -0.1514 -0.0168
 1244ERGO    R516004  12.344   7.429   7.443 -0.0356 -0.1496  0.0321
 1244ERGO    C116005  12.296   7.459   7.820  0.0549 -0.1364  0.0422
 1244ERGO    C216006  12.132   7.522   8.084  0.0063 -0.0729  0.0306
 1245ERGO   ROH16007   4.759   9.788   6.056  0.4691 -0.1006 -0.0384
 1245ERGO    R116008   4.643   9.704   6.300  0.3564 -0.0718 -0.0802
 1245ERGO    R216009   4.477   9.484   6.319  0.1283  0.0805 -0.1760
 1245ERGO    R316010   4.654   9.407   6.510  0.0374 -0.1605 -0.1877
 1245ERGO    R416011   4.393   9.308   6.604 -0.0960  0.2666 -0.1245
 1245ERGO    R516012   4.533   9.433   6.716  0.1158  0.0679 -0.1744
 1245ERGO    C116013   4.510   9.132   6.950 -0.3119  0.1486 -0.1055
 1245ERGO    C216014   4.592   8.876   7.140 -0.2869  0.1396  0.1944
 1246ERGO   ROH16015   8.272  15.038   6.211 -0.0275 -0.1106 -0.2133
 1246ERGO    R116016   8.229  14.813   6.379  0.0981 -0.1081 -0.1748
 1246ERGO    R216017   8.437  14.662   6.481  0.1876  0.0370 -0.1266
 1246ERGO    R316018   8.317  14.716   6.718  0.1320  0.0115 -0.1501
 1246ERGO    R416019   8.442  14.454   6.757 -0.0566 -0.0837 -0.2117
 1246ERGO    R516020   8.233  14.505   6.792 -0.0349  0.0362 -0.2714
 1246ERGO    C116021   8.331  14.384   7.141 -0.2508 -0.1780 -0.2832
 1246ERGO    C216022   8.276  14.416   7.479  0.2077 -0.1981  0.1454
 1247ERGO   ROH16023   6.532   3.322   6.467 -0.2497  0.0957 -0.0946
 1247ERGO    R116024   6.379   3.393   6.694 -0.1653 -0.0457  0.0085
 1247ERGO    R216025   6.451   3.319   6.951  0.1125  0.0738 -0.0289
 1247ERGO    R316026   6.432   3.586   6.998 -0.1591  0.0627 -0.0618
 1247ERGO    R416027   6.341   3.461   7.246  0.1095  0.0006  0.0047
 1247ERGO    R516028   6.234   3.610   7.129 -0.1174 -0.1357  0.0375
 1247ERGO    C116029   6.259   3.794   7.463 -0.1472 -0.0524 -0.0065
 1247ERGO    C216030   6.331   4.062   7.663 -0.1157  0.1018 -0.3108
 1248ERGO   ROH16031   6.217   2.070   6.599 -0.2784  0.0345  0.0266
 1248ERGO    R116032   6.259   2.280   6.784 -0.2830  0.1218 -0.0692
 1248ERGO    R216033   6.051   2.413   6.908 -0.2856  0.0009  0.0652
 1248ERGO    R316034   6.183   2.342   7.135 -0.0412  0.1635 -0.0233
 1248ERGO    R416035   5.989   2.545   7.221 -0.2934 -0.1381  0.1221
 1248ERGO    R516036   6.204   2.547   7.257 -0.2729  0.1781 -0.0076
 1248ERGO    C116037   6.077   2.555   7.617 -0.0685 -0.0663  0.0723
 1248ERGO    C216038   5.975   2.544   7.988 -0.1532  0.1946 -0.2145
 1249ERGO   ROH16039  14.135   6.147   6.570 -0.0550  0.0010 -0.0655
 1249ERGO    R116040  14.272   6.022   6.784 -0.3529 -0.1105  0.0646
 1249ERGO    R216041  14.479   6.145   6.920  0.0222 -0.4943 -0.1404
 1249ERGO    R316042  14.326   6.089   7.138 -0.1052  0.2011 -0.0275
 1249ERGO    R416043  14.586   6.175   7.247  0.2672 -0.6074 -0.2074
 1249ERGO    R516044  14.480   5.989   7.293 -0.3754 -0.2253 -0.0185
 1249ERGO    C116045  14.506   6.140   7.642  0.2901 -0.0204 -0.1404
 1249ERGO    C216046  14.556   6.436   7.845  0.2439 -0.2952 -0.0873
 1250ERGO   ROH16047  15.247  15.836   6.298 -0.1229 -0.1897 -0.1229
 1250ERGO    R116048  15.220  15.730   6.559  0.1620 -0.2726 -0.1235
 1250ERGO    R216049  15.424  15.594   6.687  0.4999  0.1671 -0.1723
 1250ERGO    R316050  15.381  15.779   6.881  0.1249  0.0671 -0.1526
 1250ERGO    R416051  15.523  15.562   7.016  0.4109  0.2587 -0.1360
 1250ERGO    R516052  15.334  15.650   7.077  0.2414 -0.0476 -0.1985
 1250ERGO    C116053  15.540  15.716   7.391  0.0071  0.2182 -0.0965
 1250ERGO    C216054  15.721  15.753   7.668  0.0388  0.0917 -0.2600
 1251ERGO   ROH16055  10.636  13.953   6.271 -0.1813  0.3234  0.0898
 1251ERGO    R116056  10.831  13.831   6.436 -0.2606  0.0918  0.0160
 1251ERGO    R216057  11.078  13.945   6.484 -0.0774 -0.2283 -0.1284
 1251ERGO    R316058  11.006  13.914   6.744  0.0055 -0.0798 -0.0862
 1251ERGO    R416059  11.285  13.822   6.732  0.0324  0.0108 -0.0979
 1251ERGO    R516060  11.115  13.711   6.811  0.0944  0.0036  0.0227
 1251ERGO    C116061  11.338  13.720   7.121  0.1743  0.2893 -0.0407
 1251ERGO    C216062  11.389  13.603   7.405 -0.0490 -0.0185 -0.0465
 1252ERGO   ROH16063  12.697   8.545   6.953  0.2983  0.2221 -0.0660
 1252ERGO    R116064  12.606   8.574   7.220  0.1840  0.0364 -0.0829
 1252ERGO    R216065  12.764   8.514   7.438  0.1722  0.1040 -0.0568
 1252ERGO    R316066  12.703   8.769   7.512 -0.0933  0.0209  0.0223
 1252ERGO    R416067  12.733   8.623   7.765  0.1379 -0.0121 -0.0206
 1252ERGO    R516068  12.561   8.742   7.703 -0.0150 -0.1864  0.0554
 1252ERGO    C116069  12.657   8.925   8.024 -0.1311 -0.1578  0.0747
 1252ERGO    C216070  12.753   8.956   8.420 -0.1366 -0.1095  0.2107
 1253ERGO   ROH16071  10.694   1.021   6.401  0.1072  0.1207  0.0304
 1253ERGO    R116072  10.676   0.908   6.660  0.1826  0.2076  0.0736
 1253ERGO    R216073  10.705   1.059   6.890 -0.1170  0.3554  0.0191
 1253ERGO    R316074  10.464   0.950   6.953  0.0154  0.0277 -0.0197
 1253ERGO    R416075  10.583   1.020   7.211 -0.0936  0.1297  0.0023
 1253ERGO    R516076  10.505   0.825   7.153  0.1626  0.0377 -0.0432
 1253ERGO    C116077  10.286   0.895   7.457  0.0444 -0.3095 -0.0438
 1253ERGO    C216078  10.021   1.109   7.579 -0.1706  0.0434  0.2731
 1254ERGO   ROH16079   8.795   5.692   6.419 -0.1626 -0.1756 -0.0148
 1254ERGO    R116080   8.752   5.578   6.675 -0.2361 -0.1975 -0.0369
 1254ERGO    R216081   8.785   5.722   6.909  0.1364 -0.3389  0.0035
 1254ERGO    R316082   8.530   5.640   6.957  0.0067  0.0920  0.0973
 1254ERGO    R416083   8.660   5.634   7.219  0.1971 -0.4210  0.0050
 1254ERGO    R516084   8.552   5.470   7.124 -0.1864 -0.1287 -0.0921
 1254ERGO    C116085   8.348   5.505   7.445  0.1107 -0.0644  0.0938
 1254ERGO    C216086   8.278   5.377   7.811  0.0971  0.1892  0.1002
 1255ERGO   ROH16087   4.836  16.119   6.134 -0.0886 -0.1426 -0.1599
 1255ERGO    R116088   4.624  16.129   6.322 -0.1068 -0.0573 -0.1846
 1255ERGO    R216089   4.668  16.129   6.595 -0.1389 -0.0952 -0.1810
 1255ERGO    R316090   4.516  16.354   6.586 -0.0354 -0.0242 -0.1822
 1255ERGO    R416091   4.547  16.299   6.871 -0.3646 -0.2546 -0.1792
 1255ERGO    R516092   4.360  16.329   6.765 -0.2427 -0.0982 -0.3652
 1255ERGO    C116093   4.334  16.608   7.023 -0.3989 -0.2805 -0.1793
 1255ERGO    C216094   4.390  16.937   7.101  0.0825 -0.1570 -0.1402
 1256ERGO   ROH16095  16.195   8.578   6.395 -0.0192 -0.0249 -0.0464
 1256ERGO    R116096  16.323   8.625   6.643  0.0115 -0.0280 -0.0624
 1256ERGO    R216097  16.446   8.865   6.704 -0.0494 -0.0050 -0.0480
 1256ERGO    R316098  16.282   8.857   6.921 -0.0041 -0.0850 -0.0151
 1256ERGO    R416099  16.480   9.064   6.985 -0.2666  0.2421 -0.1908
 1256ERGO    R516100  16.428   8.891   7.107 -0.0081  0.2456 -0.0610
 1256ERGO    C116101  16.346   9.172   7.352 -0.3506  0.3109 -0.2430
 1256ERGO    C216102  16.200   9.264   7.666  0.2409  0.0147 -0.0353
 1257ERGO   ROH16103   7.652  16.175   6.447 -0.0215 -0.1981  0.0921
 1257ERGO    R116104   7.845  16.054   6.614 -0.2763 -0.5068  0.1683
 1257ERGO    R216105   8.012  16.200   6.779  0.2882 -0.7110 -0.2079
 1257ERGO    R316106   7.911  16.037   6.972 -0.0982 -0.0804  0.1642
 1257ERGO    R416107   8.130  16.180   7.103  0.4143 -0.4366 -0.2322
 1257ERGO    R516108   8.103  15.964   7.095 -0.2195 -0.4091  0.1820
 1257ERGO    C116109   8.105  16.015   7.473  0.1250  0.3151  0.1029
 1257ERGO    C216110   8.195  16.137   7.794  0.0996  0.0799  0.0149
 1258ERGO   ROH16111  11.697  17.383   6.651  0.1276 -0.1001 -0.1107
 1258ERGO    R116112  11.752  17.259   6.900  0.0963 -0.0420 -0.0747
 1258ERGO    R216113  11.986  17.304   7.040  0.0818 -0.0149 -0.0595
 1258ERGO    R316114  11.814  17.368   7.242  0.0609  0.0387 -0.0939
 1258ERGO    R416115  12.079  17.361   7.368  0.0470  0.0845 -0.0663
 1258ERGO    R516116  11.901  17.252   7.432  0.0453  0.0978 -0.0514
 1258ERGO    C116117  11.972  17.454   7.748  0.0069  0.1927 -0.1025
 1258ERGO    C216118  12.180  17.623   7.967  0.1019 -0.3149 -0.0721
 1259ERGO   ROH16119   1.995   0.938   6.502 -0.0132  0.2299 -0.0148
 1259ERGO    R116120   2.103   1.134   6.675 -0.3537  0.3219  0.0996
 1259ERGO    R216121   1.952   1.258   6.871 -0.4998 -0.3003  0.4048
 1259ERGO    R316122   2.152   1.172   7.034 -0.0900  0.0260  0.0990
 1259ERGO    R416123   2.038   1.403   7.173 -0.4835 -0.3421  0.4206
 1259ERGO    R516124   2.248   1.372   7.123 -0.4540  0.1901  0.1416
 1259ERGO    C116125   2.276   1.406   7.502 -0.0892 -0.0601  0.1428
 1259ERGO    C216126   2.449   1.498   7.772 -0.0136  0.2068 -0.1192
 1260ERGO   ROH16127   8.957   4.340   6.525  0.2229 -0.3423  0.0374
 1260ERGO    R116128   8.798   4.277   6.751  0.1211 -0.1239  0.0294
 1260ERGO    R216129   8.787   4.023   6.858 -0.1173 -0.0763  0.1225
 1260ERGO    R316130   8.856   4.151   7.087 -0.0553 -0.0486  0.0888
 1260ERGO    R416131   8.775   3.883   7.174 -0.1080 -0.0130  0.1511
 1260ERGO    R516132   8.698   4.073   7.249 -0.0524  0.0202  0.1255
 1260ERGO    C116133   8.832   3.923   7.573 -0.0441  0.0499  0.1361
 1260ERGO    C216134   8.817   3.977   7.912 -0.2267  0.0197  0.1068
 1261ERGO   ROH16135  14.341  11.731   6.483 -0.0636 -0.1523  0.0780
 1261ERGO    R116136  14.345  11.550   6.700 -0.0049 -0.1180  0.1064
 1261ERGO    R216137  14.564  11.521   6.867 -0.0042 -0.0003  0.1314
 1261ERGO    R316138  14.382  11.572   7.062 -0.0437 -0.0449  0.1051
 1261ERGO    R416139  14.630  11.515   7.206 -0.0659 -0.0098  0.1430
 1261ERGO    R516140  14.437  11.418   7.237 -0.0504 -0.0429  0.1046
 1261ERGO    C116141  14.496  11.558   7.586 -0.1390 -0.0573  0.1251
 1261ERGO    C216142  14.771  11.474   7.811 -0.2367 -0.0267  0.2204
 1262ERGO   ROH16143  14.448  17.690   6.519  0.0175 -0.1562  0.0003
 1262ERGO    R116144  14.426  17.515   6.740  0.0492 -0.1432  0.0139
 1262ERGO    R216145  14.639  17.364   6.831  0.0642 -0.1365 -0.0050
 1262ERGO    R316146  14.581  17.484   7.068  0.0946 -0.1212 -0.0058
 1262ERGO    R416147  14.687  17.221   7.142  0.0422 -0.1376 -0.0022
 1262ERGO    R516148  14.497  17.307   7.206  0.0628 -0.0992  0.0006
 1262ERGO    C116149  14.661  17.250   7.546  0.0578 -0.1236 -0.0013
 1262ERGO    C216150  14.869  17.332   7.823  0.0063  0.0938  0.0181
 1263ERGO   ROH16151  17.472  14.625   6.265 -0.3233 -0.0378  0.0288
 1263ERGO    R116152  17.537  14.724   6.522 -0.2125 -0.0273 -0.0028
 1263ERGO    R216153  17.345  14.810   6.701 -0.1341 -0.0185  0.0747
 1263ERGO    R316154  17.465  14.631   6.867 -0.0656 -0.0108  0.0337
 1263ERGO    R416155  17.302  14.797   7.044  0.0654  0.0556  0.1034
 1263ERGO    R516156  17.515  14.756   7.064  0.0746  0.0209 -0.0175
 1263ERGO    C116157  17.391  14.622   7.399  0.2459  0.1060  0.0817
 1263ERGO    C216158  17.378  14.565   7.767 -0.0392  0.0815  0.1252
 1264ERGO   ROH16159  10.060  14.087   6.616 -0.1436 -0.0417  0.0994
 1264ERGO    R116160  10.051  14.022   6.892 -0.1280 -0.0706  0.0933
 1264ERGO    R216161  10.072  13.762   6.984 -0.1277 -0.0822  0.0651
 1264ERGO    R316162  10.274  13.865   7.134 -0.1157 -0.1008  0.0617
 1264ERGO    R416163  10.200  13.618   7.271  0.0898 -0.2611 -0.1173
 1264ERGO    R516164  10.212  13.816   7.360  0.0191 -0.3319  0.0498
 1264ERGO    C116165  10.463  13.631   7.579  0.2277 -0.3827 -0.2268
 1264ERGO    C216166  10.444  13.386   7.847  0.2544 -0.3631 -0.2645
 1265ERGO   ROH16167   2.819   3.380   6.446  0.0126  0.1895 -0.0026
 1265ERGO    R116168   2.854   3.211   6.671 -0.0361  0.0749 -0.0799
 1265ERGO    R216169   3.081   3.058   6.708  0.0383  0.1946 -0.0166
 1265ERGO    R316170   3.088   3.185   6.948 -0.2094  0.0577  0.0656
 1265ERGO    R416171   3.286   2.971   6.971 -0.0059  0.2443  0.0340
 1265ERGO    R516172   3.120   3.009   7.107 -0.1128 -0.0048 -0.0248
 1265ERGO    C116173   3.413   3.039   7.350 -0.2642  0.1447  0.1407
 1265ERGO    C216174   3.713   3.018   7.463 -0.4848  0.0163  0.0922
 1266ERGO   ROH16175  16.500  15.146   6.272  0.1162  0.0574  0.0915
 1266ERGO    R116176  16.276  15.081   6.432  0.0736  0.0053  0.0129
 1266ERGO    R216177  16.282  14.880   6.622  0.0789  0.0587  0.0753
 1266ERGO    R316178  16.198  15.078   6.788 -0.0764  0.0726 -0.0200
 1266ERGO    R416179  16.164  14.832   6.943  0.0403  0.1190  0.0695
 1266ERGO    R516180  16.012  14.983   6.904 -0.0414  0.0094 -0.0211
 1266ERGO    C116181  16.015  14.990   7.285 -0.1280  0.1673 -0.0234
 1266ERGO    C216182  16.172  14.936   7.677  0.1974  0.0584  0.2972
 1267ERGO   ROH16183  12.723   0.811   6.897  0.1015 -0.0622 -0.0281
 1267ERGO    R116184  12.625   0.828   7.162 -0.0412 -0.1339 -0.0754
 1267ERGO    R216185  12.594   0.607   7.325  0.0315 -0.1586 -0.0949
 1267ERGO    R316186  12.749   0.751   7.496 -0.1506 -0.0541 -0.0159
 1267ERGO    R416187  12.637   0.537   7.660  0.1841 -0.3393 -0.1499
 1267ERGO    R516188  12.626   0.750   7.701 -0.1207 -0.3787  0.0047
 1267ERGO    C116189  12.806   0.632   8.016  0.1020 -0.3464 -0.1078
 1267ERGO    C216190  13.051   0.730   8.220 -0.0711 -0.0859 -0.0071
 1268ERGO   ROH16191   3.118  14.482   6.373  0.0729  0.2375  0.0693
 1268ERGO    R116192   3.013  14.643   6.580 -0.0996  0.0982  0.0917
 1268ERGO    R216193   2.825  14.549   6.760  0.0070 -0.1323  0.0879
 1268ERGO    R316194   3.006  14.634   6.944 -0.0776  0.0475  0.0906
 1268ERGO    R416195   2.745  14.683   7.069 -0.1262 -0.0757  0.0301
 1268ERGO    R516196   2.905  14.829   7.042 -0.2158  0.0169  0.0082
 1268ERGO    C116197   2.869  14.841   7.421 -0.2833  0.1260 -0.0010
 1268ERGO    C216198   2.892  14.992   7.736 -0.0234 -0.0394  0.4639
 1269ERGO   ROH16199  11.490   7.711   6.585 -0.1572  0.0396  0.0178
 1269ERGO    R116200  11.545   7.699   6.862 -0.1611 -0.0066  0.0161
 1269ERGO    R216201  11.555   7.925   7.022 -0.0901 -0.0283  0.0375
 1269ERGO    R316202  11.372   7.789   7.170 -0.1321  0.0152  0.0271
 1269ERGO    R416203  11.451   8.015   7.339 -0.0160 -0.0504  0.0689
 1269ERGO    R516204  11.454   7.805   7.394 -0.0983 -0.0670  0.0230
 1269ERGO    C116205  11.218   7.941   7.662 -0.0123 -0.0225  0.0774
 1269ERGO    C216206  11.003   7.867   7.885 -0.0711 -0.3215 -0.0605
 1270ERGO   ROH16207   9.633   2.635   5.781  0.3335  0.3672  0.0427
 1270ERGO    R116208   9.586   2.775   6.023  0.0420  0.1189  0.1357
 1270ERGO    R216209   9.376   2.714   6.192  0.0458 -0.2946  0.0002
 1270ERGO    R316210   9.573   2.693   6.377 -0.0043 -0.1760  0.0685
 1270ERGO    R416211   9.335   2.764   6.532 -0.0608 -0.1313 -0.0352
 1270ERGO    R516212   9.527   2.867   6.535 -0.0750 -0.1029 -0.0308
 1270ERGO    C116213   9.497   2.773   6.903 -0.1699  0.0751  0.0083
 1270ERGO    C216214   9.670   2.675   7.190 -0.1153 -0.0074  0.0153
 1271ERGO   ROH16215  13.106   8.852   6.684  0.2001  0.1432 -0.0703
 1271ERGO    R116216  13.216   8.903   6.940  0.0563  0.1301 -0.0039
 1271ERGO    R216217  13.080   8.846   7.174 -0.0349  0.0120 -0.0757
 1271ERGO    R316218  13.305   8.705   7.233  0.0001  0.0947 -0.0136
 1271ERGO    R416219  13.164   8.727   7.488 -0.2028 -0.2073 -0.1122
 1271ERGO    R516220  13.370   8.784   7.449 -0.2111 -0.0558  0.1005
 1271ERGO    C116221  13.424   8.526   7.725 -0.2677 -0.2573 -0.0752
 1271ERGO    C216222  13.686   8.439   8.086 -0.0374  0.0511  0.2348
 1272ERGO   ROH16223  18.105   6.253   6.197  0.1788  0.1577  0.2014
 1272ERGO    R116224  18.036   6.468   6.368  0.0970  0.0589  0.2977
 1272ERGO    R216225  17.781   6.574   6.379  0.1226  0.1729  0.1072
 1272ERGO    R316226  17.806   6.523   6.645 -0.1767 -0.0593  0.0941
 1272ERGO    R416227  17.709   6.799   6.631  0.1729  0.0565  0.2241
 1272ERGO    R516228  17.886   6.728   6.737 -0.0131 -0.2332  0.3291
 1272ERGO    C116229  17.691   6.882   7.027 -0.0786 -0.2292  0.2800
 1272ERGO    C216230  17.547   6.962   7.300 -0.0723  0.3235 -0.0184
 1273ERGO   ROH16231   5.298   0.910   5.923 -0.3825 -0.2187 -0.0239
 1273ERGO    R116232   5.249   0.988   6.191 -0.2640 -0.0922 -0.0369
 1273ERGO    R216233   5.131   0.819   6.376 -0.3004  0.0355  0.0641
 1273ERGO    R316234   5.353   0.878   6.522 -0.2240 -0.0250 -0.0281
 1273ERGO    R416235   5.134   0.870   6.718 -0.1436  0.0736  0.0570
 1273ERGO    R516236   5.276   1.033   6.687 -0.1011  0.0181 -0.0150
 1273ERGO    C116237   5.344   0.954   7.054  0.0194  0.0389 -0.0337
 1273ERGO    C216238   5.100   0.925   7.279  0.0300 -0.0406 -0.1966
 1274ERGO   ROH16239  15.396   0.272   6.634  0.0903  0.0160  0.1582
 1274ERGO    R116240  15.370   0.349   6.905  0.0564 -0.1300  0.1965
 1274ERGO    R216241  15.418   0.175   7.115  0.2625 -0.1767  0.1076
 1274ERGO    R316242  15.589   0.370   7.196  0.0824 -0.0415  0.1729
 1274ERGO    R416243  15.493   0.246   7.444  0.3765 -0.3920  0.1305
 1274ERGO    R516244  15.488   0.459   7.394  0.0901 -0.3425  0.3220
 1274ERGO    C116245  15.698   0.471   7.712  0.2738 -0.3905  0.2051
 1274ERGO    C216246  15.746   0.507   8.039  0.0086 -0.2807  0.1419
 1275ERGO   ROH16247   4.377   3.810   6.218  0.3303  0.3424 -0.0534
 1275ERGO    R116248   4.464   3.891   6.475  0.1866  0.1914  0.0439
 1275ERGO    R216249   4.288   3.951   6.680  0.0686  0.2207 -0.0690
 1275ERGO    R316250   4.434   3.766   6.816 -0.1467  0.0802 -0.0218
 1275ERGO    R416251   4.318   3.936   7.024  0.0654  0.2889 -0.0650
 1275ERGO    R516252   4.529   3.888   6.999  0.0110  0.0245 -0.0622
 1275ERGO    C116253   4.472   3.755   7.352 -0.1384  0.1967 -0.0185
 1275ERGO    C216254   4.309   3.745   7.611  0.0084 -0.1814 -0.0045
 1276ERGO   ROH16255   4.499   8.081   5.985 -0.0542  0.0215  0.0097
 1276ERGO    R116256   4.535   7.954   6.235  0.0524  0.0430  0.0057
 1276ERGO    R216257   4.784   7.885   6.332  0.1001  0.1157 -0.0624
 1276ERGO    R316258   4.705   8.030   6.548  0.1217  0.1049 -0.0469
 1276ERGO    R416259   4.968   7.924   6.622  0.1836  0.2078 -0.1269
 1276ERGO    R516260   4.783   7.904   6.736  0.2306  0.1503 -0.0623
 1276ERGO    C116261   5.000   8.083   6.994  0.2524  0.2513 -0.1496
 1276ERGO    C216262   5.043   8.378   7.292 -0.0591  0.5533  0.0408
 1277ERGO   ROH16263  10.447  10.549   5.974  0.1157  0.1879 -0.0724
 1277ERGO    R116264  10.453  10.405   6.218  0.0217  0.0494 -0.1509
 1277ERGO    R216265  10.675  10.264   6.302  0.0218  0.0836 -0.1012
 1277ERGO    R316266  10.647  10.415   6.526 -0.1662 -0.0578 -0.0268
 1277ERGO    R416267  10.865  10.229   6.588  0.1314  0.2342 -0.1534
 1277ERGO    R516268  10.684  10.261   6.706  0.0978 -0.0902 -0.1034
 1277ERGO    C116269  10.949  10.349   6.966  0.0188  0.1892 -0.1139
 1277ERGO    C216270  11.132  10.424   7.172 -0.0017  0.1662 -0.2458
 1278ERGO   ROH16271   2.314   9.601   6.503 -0.0779  0.1107  0.0508
 1278ERGO    R116272   2.213   9.510   6.751  0.0215  0.0894  0.0843
 1278ERGO    R216273   2.378   9.448   6.965  0.1024  0.1713  0.0502
 1278ERGO    R316274   2.218   9.624   7.097  0.0647  0.1196  0.0729
 1278ERGO    R416275   2.334   9.458   7.308 -0.0955 -0.0383  0.0332
 1278ERGO    R516276   2.123   9.497   7.275 -0.0663  0.0268 -0.0639
 1278ERGO    C116277   2.159   9.630   7.631 -0.2461 -0.2091  0.0446
 1278ERGO    C216278   2.005   9.735   8.033  0.0322  0.1785  0.1647
 1279ERGO   ROH16279  12.243   3.479   6.037  0.3081 -0.1707  0.0005
 1279ERGO    R116280  12.157   3.481   6.307  0.1489  0.0353 -0.0489
 1279ERGO    R216281  12.315   3.385   6.513 -0.0728 -0.0433  0.0831
 1279ERGO    R316282  12.269   3.631   6.618  0.1237  0.0524 -0.0473
 1279ERGO    R416283  12.309   3.458   6.851 -0.0428  0.1353  0.0469
 1279ERGO    R516284  12.139   3.590   6.814  0.0681  0.2611 -0.0357
 1279ERGO    C116285  12.262   3.732   7.146  0.1591  0.3290 -0.0967
 1279ERGO    C216286  12.353   3.712   7.422  0.0493 -0.2638  0.2683
 1280ERGO   ROH16287   4.994  10.843   6.464 -0.1510 -0.2892 -0.0365
 1280ERGO    R116288   4.918  10.798   6.734 -0.0490 -0.1944  0.0100
 1280ERGO    R216289   5.073  10.881   6.947  0.0730 -0.1855 -0.0732
 1280ERGO    R316290   4.843  11.004   7.024  0.1444 -0.0911 -0.0131
 1280ERGO    R416291   4.958  10.899   7.273  0.1028 -0.2298 -0.0613
 1280ERGO    R516292   4.756  10.864   7.198  0.0828 -0.0980 -0.0548
 1280ERGO    C116293   4.676  11.024   7.535  0.1872 -0.1670  0.0021
 1280ERGO    C216294   4.613  11.014   7.832  0.0431  0.1032 -0.1967
 1281ERGO   ROH16295  11.811   9.119   6.553 -0.2561 -0.0486 -0.0876
 1281ERGO    R116296  11.737   9.141   6.825 -0.2103 -0.0560 -0.0741
 1281ERGO    R216297  11.715   8.922   6.992 -0.1718 -0.0598 -0.0730
 1281ERGO    R316298  11.887   9.064   7.147 -0.1513 -0.0545 -0.1014
 1281ERGO    R416299  11.690   8.957   7.335 -0.0168 -0.2059 -0.0454
 1281ERGO    R516300  11.748   9.166   7.313 -0.1095 -0.1748  0.0082
 1281ERGO    C116301  11.836   9.111   7.680  0.0928 -0.2861 -0.0560
 1281ERGO    C216302  11.664   9.083   7.986  0.1577  0.3459  0.0721
 1282ERGO   ROH16303   4.854   1.623   6.093  0.0442  0.2727 -0.1125
 1282ERGO    R116304   4.760   1.782   6.308  0.0913  0.1692 -0.0141
 1282ERGO    R216305   4.569   1.693   6.486  0.1420  0.0768 -0.0052
 1282ERGO    R316306   4.757   1.760   6.671  0.1865  0.0008 -0.0222
 1282ERGO    R416307   4.507   1.737   6.823  0.1873  0.1209 -0.0025
 1282ERGO    R516308   4.642   1.908   6.820  0.2647  0.0599 -0.0205
 1282ERGO    C116309   4.647   1.826   7.193  0.2556  0.0753 -0.0168
 1282ERGO    C216310   4.369   1.786   7.404  0.1055 -0.2417 -0.0953
 1283ERGO   ROH16311   9.823  13.256   6.176 -0.2520 -0.0534 -0.0730
 1283ERGO    R116312   9.790  13.166   6.442 -0.0331 -0.0514 -0.0444
 1283ERGO    R216313   9.557  13.049   6.532 -0.0249  0.1133  0.1954
 1283ERGO    R316314   9.724  12.848   6.607 -0.0901 -0.0174 -0.0007
 1283ERGO    R416315   9.546  12.886   6.836  0.0536 -0.0401  0.1177
 1283ERGO    R516316   9.764  12.887   6.839  0.0584 -0.1592  0.0004
 1283ERGO    C116317   9.697  12.602   7.084  0.0382 -0.2521 -0.1118
 1283ERGO    C216318   9.564  12.474   7.409 -0.1632  0.1589  0.2273
 1284ERGO   ROH16319  10.913   2.097   6.315 -0.0093 -0.1249 -0.0907
 1284ERGO    R116320  10.834   2.051   6.582  0.1142 -0.3051 -0.0831
 1284ERGO    R216321  10.985   1.902   6.759  0.4826  0.0438 -0.0872
 1284ERGO    R316322  10.965   2.124   6.914 -0.0246  0.0138 -0.0953
 1284ERGO    R416323  11.039   1.909   7.100  0.3649  0.1612 -0.0711
 1284ERGO    R516324  10.868   2.044   7.119  0.0730 -0.1843 -0.1245
 1284ERGO    C116325  11.051   2.122   7.445 -0.1798  0.2015 -0.0693
 1284ERGO    C216326  11.198   2.006   7.801  0.1218 -0.3858  0.0526
 1285ERGO   ROH16327  13.033  11.333   6.724  0.0151 -0.2352 -0.0412
 1285ERGO    R116328  13.105  11.351   6.997 -0.0326 -0.2306 -0.0294
 1285ERGO    R216329  12.924  11.420   7.195 -0.0794 -0.2610 -0.0665
 1285ERGO    R316330  13.008  11.187   7.307 -0.0616 -0.2571 -0.0479
 1285ERGO    R416331  12.857  11.322   7.519 -0.1713 -0.2822 -0.0904
 1285ERGO    R516332  13.061  11.245   7.533 -0.1459 -0.2439 -0.0232
 1285ERGO    C116333  12.897  11.046   7.814 -0.2079 -0.2909 -0.0869
 1285ERGO    C216334  12.867  11.113   8.093  0.0283  0.1966 -0.0406
 1286ERGO   ROH16335  17.700  18.108   6.705 -0.1427 -0.0512  0.1315
 1286ERGO    R116336  17.829  18.274   6.895 -0.0902 -0.0429  0.0897
 1286ERGO    R216337  17.689  18.433   7.072 -0.0417  0.0195  0.0770
 1286ERGO    R316338  17.837  18.302   7.258 -0.0509  0.0190  0.0832
 1286ERGO    R416339  17.769  18.558   7.384  0.0024  0.0404  0.0570
 1286ERGO    R516340  17.969  18.474   7.361 -0.0158  0.0061  0.0544
 1286ERGO    C116341  17.956  18.507   7.740  0.0193  0.0520  0.0511
 1286ERGO    C216342  18.088  18.385   8.056  0.3258 -0.1944 -0.0047
 1287ERGO   ROH16343  11.813   1.995   6.520 -0.0000  0.1069  0.0425
 1287ERGO    R116344  11.983   1.975   6.746  0.0437  0.0761  0.0118
 1287ERGO    R216345  12.043   2.191   6.907  0.1022  0.0758  0.0180
 1287ERGO    R316346  11.954   2.028   7.105  0.1055  0.0677  0.0160
 1287ERGO    R416347  12.135   2.214   7.240  0.2222 -0.0479 -0.0098
 1287ERGO    R516348  12.143   1.996   7.247  0.1348 -0.0470 -0.0592
 1287ERGO    C116349  12.104   2.073   7.618  0.2952 -0.1277 -0.0279
 1287ERGO    C216350  12.254   2.235   7.899  0.1659 -0.3603 -0.0597
 1288ERGO   ROH16351   6.254   4.128   5.715  0.1024 -0.0184  0.1480
 1288ERGO    R116352   6.278   3.970   5.948  0.1714 -0.0998  0.0870
 1288ERGO    R216353   6.511   3.839   6.017  0.2758  0.0944  0.1131
 1288ERGO    R316354   6.479   3.973   6.251  0.0607 -0.0365  0.1601
 1288ERGO    R416355   6.647   3.743   6.319  0.2360  0.0812  0.1264
 1288ERGO    R516356   6.461   3.800   6.416  0.1445 -0.1261  0.0760
 1288ERGO    C116357   6.696   3.813   6.716  0.0108 -0.0493  0.1782
 1288ERGO    C216358   6.894   3.984   6.882  0.1485 -0.1700 -0.3192
 1289ERGO   ROH16359   9.946   0.359   6.468 -0.0674  0.0858  0.0594
 1289ERGO    R116360   9.807   0.268   6.697 -0.0756  0.1260  0.0708
 1289ERGO    R216361   9.925   0.108   6.889 -0.1161  0.0612  0.0435
 1289ERGO    R316362   9.839   0.303   7.058 -0.0123  0.0853  0.0690
 1289ERGO    R416363   9.853   0.061   7.223  0.1987  0.1364  0.1255
 1289ERGO    R516364   9.680   0.193   7.199  0.1431  0.0850  0.2452
 1289ERGO    C116365   9.730   0.217   7.577  0.4792  0.2027  0.1972
 1289ERGO    C216366   9.773   0.278   7.936 -0.3653 -0.1088  0.0026
 1290ERGO   ROH16367   8.232   0.570   6.160 -0.4445 -0.2388  0.0218
 1290ERGO    R116368   8.232   0.596   6.442 -0.3514 -0.0715  0.0082
 1290ERGO    R216369   8.093   0.425   6.608 -0.3093  0.0309  0.1591
 1290ERGO    R316370   8.336   0.394   6.726 -0.2701  0.0894  0.0927
 1290ERGO    R416371   8.147   0.263   6.908 -0.1584 -0.1060  0.0595
 1290ERGO    R516372   8.291   0.418   6.961 -0.2301 -0.0635  0.1137
 1290ERGO    C116373   8.405   0.140   7.195 -0.0336 -0.1308 -0.0608
 1290ERGO    C216374   8.430  -0.217   7.336 -0.0692  0.2376 -0.0078
 1291ERGO   ROH16375  13.024  12.259   6.378  0.0510 -0.1508  0.0762
 1291ERGO    R116376  13.062  12.386   6.628 -0.0019 -0.0942  0.0565
 1291ERGO    R216377  12.921  12.314   6.854 -0.0455 -0.0498  0.0483
 1291ERGO    R316378  13.169  12.286   6.961 -0.0640 -0.0200  0.0974
 1291ERGO    R416379  12.988  12.293   7.192 -0.1050 -0.0852  0.0579
 1291ERGO    R516380  13.163  12.420   7.160 -0.1247 -0.0522  0.1132
 1291ERGO    C116381  13.261  12.256   7.490 -0.1571 -0.0776  0.1095
 1291ERGO    C216382  13.246  12.116   7.810  0.2175 -0.1126  0.2259
 1292ERGO   ROH16383  10.068  12.502   5.873 -0.2625 -0.1512  0.0112
 1292ERGO    R116384  10.196  12.547   6.122 -0.1523 -0.2518 -0.0248
 1292ERGO    R216385  10.137  12.766   6.282  0.2717 -0.0378 -0.1377
 1292ERGO    R316386  10.094  12.575   6.470 -0.0820  0.1392 -0.0320
 1292ERGO    R416387  10.184  12.808   6.621  0.2404  0.0827 -0.1484
 1292ERGO    R516388  10.268  12.607   6.630 -0.0770 -0.0442 -0.0042
 1292ERGO    C116389  10.171  12.653   6.996 -0.1098  0.3190 -0.0555
 1292ERGO    C216390  10.173  12.665   7.346  0.1598 -0.3435  0.2978
 1293ERGO   ROH16391  10.607   7.624   6.292 -0.1482  0.1770 -0.0040
 1293ERGO    R116392  10.531   7.623   6.565  0.0503  0.0322  0.0512
 1293ERGO    R216393  10.433   7.398   6.691  0.0455 -0.0038 -0.0289
 1293ERGO    R316394  10.634   7.448   6.867  0.1937 -0.2105 -0.1328
 1293ERGO    R416395  10.443   7.284   7.017 -0.0311  0.1820  0.0403
 1293ERGO    R516396  10.523   7.478   7.077  0.3044  0.1028 -0.1090
 1293ERGO    C116397  10.637   7.265   7.373  0.0635  0.0962 -0.0170
 1293ERGO    C216398  10.601   7.182   7.750 -0.1391 -0.1073 -0.0447
 1294ERGO   ROH16399  10.181  11.072   5.579  0.3404 -0.0678 -0.0365
 1294ERGO    R116400  10.235  11.281   5.763  0.1323  0.0361 -0.0896
 1294ERGO    R216401  10.036  11.418   5.895 -0.0075 -0.1249 -0.1296
 1294ERGO    R316402  10.176  11.344   6.116  0.0633  0.0706 -0.1071
 1294ERGO    R416403   9.983  11.544   6.213 -0.1315 -0.0881 -0.1639
 1294ERGO    R516404  10.200  11.547   6.242 -0.1335  0.1294 -0.1618
 1294ERGO    C116405  10.085  11.547   6.605 -0.1371  0.1169 -0.1627
 1294ERGO    C216406  10.045  11.564   6.940  0.3263  0.1399  0.0785
 1295ERGO   ROH16407  14.116   8.034   6.543 -0.0361 -0.1003 -0.1257
 1295ERGO    R116408  13.881   8.062   6.698 -0.0094 -0.2177 -0.0646
 1295ERGO    R216409  13.783   7.859   6.858  0.2732 -0.1818  0.1535
 1295ERGO    R316410  13.794   8.050   7.051  0.1343  0.0056 -0.0178
 1295ERGO    R416411  13.606   7.849   7.155  0.5399 -0.2322  0.3149
 1295ERGO    R516412  13.570   8.063   7.134  0.1715 -0.2971  0.1599
 1295ERGO    C116413  13.514   8.023   7.509  0.5647 -0.0856  0.2480
 1295ERGO    C216414  13.519   7.980   7.800 -0.1782  0.0336 -0.0487
 1296ERGO   ROH16415  11.695   3.712   6.183 -0.0116  0.1605 -0.0444
 1296ERGO    R116416  11.633   3.550   6.407 -0.2509  0.0623 -0.1740
 1296ERGO    R216417  11.762   3.576   6.650 -0.1577 -0.3676 -0.1488
 1296ERGO    R316418  11.509   3.604   6.744 -0.1071 -0.0094 -0.1153
 1296ERGO    R416419  11.673   3.574   6.984 -0.1433 -0.1119 -0.1443
 1296ERGO    R516420  11.498   3.456   6.932 -0.2853  0.0978 -0.0599
 1296ERGO    C116421  11.383   3.599   7.267 -0.0874  0.3732 -0.1102
 1296ERGO    C216422  11.265   3.404   7.583 -0.1647  0.2047 -0.1059
 1297ERGO   ROH16423   8.543  13.422   6.534 -0.1288  0.2357 -0.0299
 1297ERGO    R116424   8.660  13.325   6.773 -0.1839  0.2140 -0.0081
 1297ERGO    R216425   8.779  13.492   6.959 -0.1618  0.1994  0.0146
 1297ERGO    R316426   8.607  13.370   7.130 -0.2292  0.2470 -0.0237
 1297ERGO    R416427   8.836  13.449   7.297 -0.0254 -0.3117 -0.0676
 1297ERGO    R516428   8.749  13.249   7.280 -0.3289 -0.1524 -0.2575
 1297ERGO    C116429   8.708  13.309   7.655 -0.0093 -0.5645 -0.1514
 1297ERGO    C216430   8.786  13.129   7.837  0.1661  0.3114  0.2956
 1298ERGO   ROH16431   0.339  14.602   6.280 -0.3089  0.1022 -0.1610
 1298ERGO    R116432   0.341  14.638   6.560 -0.0859 -0.0208 -0.1447
 1298ERGO    R216433   0.144  14.778   6.694  0.0527 -0.0233  0.0666
 1298ERGO    R316434   0.126  14.550   6.840  0.1009 -0.0829 -0.0187
 1298ERGO    R416435   0.171  14.762   7.038 -0.1981 -0.1120  0.0842
 1298ERGO    R516436   0.287  14.579   7.015 -0.0511 -0.0238  0.1139
 1298ERGO    C116437   0.169  14.538   7.376 -0.2989 -0.2196  0.0144
 1298ERGO    C216438   0.040  14.426   7.737  0.0319 -0.0540  0.2422
 1299ERGO   ROH16439   7.608  11.767   6.236 -0.0058 -0.0485 -0.0547
 1299ERGO    R116440   7.773  11.729   6.463 -0.0323 -0.1221 -0.0474
 1299ERGO    R216441   7.734  11.865   6.700  0.0014 -0.1133 -0.0478
 1299ERGO    R316442   7.729  11.615   6.806 -0.0999 -0.1235 -0.0532
 1299ERGO    R416443   7.796  11.789   7.032 -0.2444 -0.1190 -0.0013
 1299ERGO    R516444   7.907  11.614   6.966 -0.2070 -0.1381  0.0753
 1299ERGO    C116445   7.826  11.509   7.324 -0.4827 -0.1319  0.0208
 1299ERGO    C216446   7.755  11.424   7.721  0.1275  0.0780  0.1411
 1300ERGO   ROH16447  12.537  18.053   6.693 -0.0079 -0.0537  0.0277
 1300ERGO    R116448  12.742  18.059   6.888 -0.1164  0.1125  0.1414
 1300ERGO    R216449  12.692  18.101   7.156 -0.3165 -0.0727  0.1396
 1300ERGO    R316450  12.830  17.868   7.185 -0.0439  0.0798  0.0981
 1300ERGO    R416451  12.857  18.003   7.444 -0.2397  0.0399  0.1342
 1300ERGO    R516452  13.019  17.927   7.320 -0.1319  0.2644  0.1398
 1300ERGO    C116453  13.081  17.727   7.639  0.0610  0.2486  0.0921
 1300ERGO    C216454  13.256  17.574   7.869 -0.1890 -0.1464  0.1984
 1301ERGO   ROH16455   9.057  14.216   6.650 -0.0607 -0.1093 -0.0918
 1301ERGO    R116456   8.985  14.174   6.920 -0.2132  0.0723 -0.1003
 1301ERGO    R216457   8.724  14.195   7.010 -0.3193 -0.1518 -0.3167
 1301ERGO    R316458   8.770  13.944   7.104 -0.0753 -0.0092 -0.0448
 1301ERGO    R416459   8.574  14.059   7.290 -0.4590 -0.1317 -0.3827
 1301ERGO    R516460   8.765  13.969   7.343 -0.3956  0.1846 -0.0723
 1301ERGO    C116461   8.529  13.745   7.541 -0.3114  0.0140 -0.1658
 1301ERGO    C216462   8.401  13.886   7.847 -0.0967  0.3002 -0.2010
 1302ERGO   ROH16463  12.055  10.007   6.593  0.0441  0.5254 -0.0707
 1302ERGO    R116464  12.058   9.927   6.865  0.0288  0.2174 -0.1573
 1302ERGO    R216465  12.214  10.053   7.055 -0.0029  0.0222  0.0018
 1302ERGO    R316466  11.977  10.078   7.186 -0.0181 -0.1532  0.0106
 1302ERGO    R416467  12.179  10.150   7.385 -0.0560 -0.1690  0.0537
 1302ERGO    R516468  12.022  10.001   7.408  0.0102 -0.2514 -0.0294
 1302ERGO    C116469  11.936  10.231   7.700 -0.1013 -0.4449  0.0921
 1302ERGO    C216470  11.947  10.159   8.023  0.1883 -0.0246  0.0513
 1303ERGO   ROH16471   1.359   3.769   6.344 -0.0062 -0.1810 -0.0579
 1303ERGO    R116472   1.441   3.832   6.607 -0.2246  0.0147 -0.0341
 1303ERGO    R216473   1.301   3.749   6.830 -0.1105 -0.3004 -0.0743
 1303ERGO    R316474   1.542   3.648   6.905  0.1090  0.2433 -0.0005
 1303ERGO    R416475   1.390   3.671   7.155 -0.1508 -0.3786 -0.0819
 1303ERGO    R516476   1.588   3.754   7.115 -0.3177  0.1746  0.1370
 1303ERGO    C116477   1.668   3.531   7.414  0.0319  0.0862 -0.0171
 1303ERGO    C216478   1.768   3.573   7.774 -0.0739  0.2036 -0.1264
 1304ERGO   ROH16479   9.244   4.715   6.466  0.0600 -0.0077 -0.0715
 1304ERGO    R116480   9.140   4.813   6.711  0.1356  0.0721 -0.0711
 1304ERGO    R216481   9.018   4.648   6.897 -0.0493  0.1748 -0.0998
 1304ERGO    R316482   9.203   4.756   7.065  0.0465 -0.0292 -0.0711
 1304ERGO    R416483   8.969   4.707   7.234 -0.0357  0.2270 -0.1065
 1304ERGO    R516484   9.076   4.895   7.213  0.1769  0.1117 -0.0894
 1304ERGO    C116485   9.114   4.842   7.588  0.0624  0.0659 -0.0835
 1304ERGO    C216486   9.238   4.945   7.874  0.1449 -0.1574  0.2065
 1305ERGO   ROH16487   7.803   4.433   6.133  0.0847 -0.0720 -0.1006
 1305ERGO    R116488   7.740   4.635   6.321  0.0586 -0.1043 -0.0757
 1305ERGO    R216489   7.506   4.633   6.470  0.0230 -0.1104 -0.1377
 1305ERGO    R316490   7.678   4.652   6.679 -0.0306 -0.1686 -0.0867
 1305ERGO    R416491   7.441   4.800   6.765  0.0396  0.0274 -0.2105
 1305ERGO    R516492   7.646   4.874   6.763  0.0959 -0.1162 -0.1665
 1305ERGO    C116493   7.564   4.916   7.133 -0.0011  0.0530 -0.2050
 1305ERGO    C216494   7.592   4.775   7.465  0.1670 -0.2395  0.2817
 1306ERGO   ROH16495  10.620  12.679   5.954  0.0462  0.0105  0.0233
 1306ERGO    R116496  10.607  12.650   6.236  0.1163 -0.0878  0.0169
 1306ERGO    R216497  10.809  12.736   6.404  0.0680  0.0423  0.0113
 1306ERGO    R316498  10.607  12.871   6.525 -0.0364 -0.1748  0.0839
 1306ERGO    R416499  10.816  12.851   6.729  0.1401  0.2196 -0.0516
 1306ERGO    R516500  10.608  12.790   6.750  0.2360 -0.0599  0.1271
 1306ERGO    C116501  10.629  13.045   7.033  0.0843  0.1190 -0.0201
 1306ERGO    C216502  10.470  13.130   7.409  0.1840 -0.0689  0.0761
 1307ERGO   ROH16503  11.847   5.040   6.522  0.3167  0.2319 -0.0188
 1307ERGO    R116504  12.011   5.058   6.752  0.1735 -0.0060  0.1063
 1307ERGO    R216505  11.991   5.266   6.934  0.3970  0.0777  0.0378
 1307ERGO    R316506  11.962   5.063   7.112 -0.1030  0.1657  0.0699
 1307ERGO    R416507  12.066   5.287   7.271  0.4962 -0.0542  0.0243
 1307ERGO    R516508  12.149   5.086   7.260 -0.0122 -0.2856  0.0425
 1307ERGO    C116509  12.082   5.109   7.634  0.0846 -0.0483  0.0465
 1307ERGO    C216510  12.205   5.207   7.925  0.2402 -0.3322 -0.0255
 1308ERGO   ROH16511  10.457   2.374   6.400  0.2097 -0.0633 -0.0357
 1308ERGO    R116512  10.519   2.439   6.668  0.1400 -0.1639  0.0058
 1308ERGO    R216513  10.390   2.641   6.806  0.2820 -0.0401 -0.0378
 1308ERGO    R316514  10.343   2.443   6.986 -0.0260 -0.0167 -0.0862
 1308ERGO    R416515  10.265   2.690   7.124  0.4216  0.0851 -0.0015
 1308ERGO    R516516  10.405   2.540   7.197  0.1796 -0.1801 -0.0690
 1308ERGO    C116517  10.148   2.534   7.479  0.2136  0.1800 -0.0259
 1308ERGO    C216518  10.033   2.500   7.776 -0.0727 -0.0392  0.1236
 1309ERGO   ROH16519  15.370   9.825   6.401 -0.2940  0.1552 -0.0128
 1309ERGO    R116520  15.490   9.982   6.604 -0.3538  0.0800  0.0835
 1309ERGO    R216521  15.400   9.980   6.865 -0.2332 -0.2618  0.1361
 1309ERGO    R316522  15.660   9.920   6.920 -0.1458 -0.0650 -0.0567
 1309ERGO    R416523  15.571  10.081   7.148 -0.0485 -0.0438 -0.0504
 1309ERGO    R516524  15.746  10.118   7.024 -0.1835  0.0246 -0.2079
 1309ERGO    C116525  15.914  10.084   7.364  0.1411  0.2679 -0.3399
 1309ERGO    C216526  15.986  10.080   7.769  0.0025 -0.1632  0.1307
 1310ERGO   ROH16527   9.302   1.339   6.181  0.1264 -0.0369 -0.0390
 1310ERGO    R116528   9.357   1.204   6.424 -0.0937 -0.0145  0.0265
 1310ERGO    R216529   9.601   1.222   6.552 -0.0840 -0.2900  0.0572
 1310ERGO    R316530   9.447   1.297   6.764 -0.0214  0.0061  0.0014
 1310ERGO    R416531   9.706   1.229   6.881 -0.1210 -0.2679  0.0680
 1310ERGO    R516532   9.512   1.150   6.940 -0.2327  0.0049  0.0803
 1310ERGO    C116533   9.623   1.303   7.271 -0.0838  0.0231  0.0220
 1310ERGO    C216534   9.555   1.213   7.651  0.0673  0.1583  0.1956
 1311ERGO   ROH16535  13.726  11.078   6.536  0.0096  0.0243  0.1708
 1311ERGO    R116536  13.758  11.007   6.809  0.1281 -0.2132  0.0997
 1311ERGO    R216537  14.003  10.939   6.917  0.2576  0.0837  0.0266
 1311ERGO    R316538  13.943  11.135   7.095 -0.0849 -0.1946  0.2278
 1311ERGO    R416539  14.128  10.958   7.238  0.4924  0.1603 -0.0683
 1311ERGO    R516540  13.930  11.022   7.306  0.3846 -0.3864  0.1579
 1311ERGO    C116541  14.144  11.154   7.593  0.3075 -0.0566  0.0654
 1311ERGO    C216542  14.411  11.116   7.813  0.0500 -0.4883  0.0342
 1312ERGO   ROH16543  11.943  12.105   6.124  0.1792 -0.2421 -0.0901
 1312ERGO    R116544  12.073  12.127   6.374  0.1615  0.0535 -0.1000
 1312ERGO    R216545  12.083  12.364   6.517 -0.1997  0.1424 -0.1906
 1312ERGO    R316546  11.978  12.211   6.715  0.0313  0.0396 -0.1316
 1312ERGO    R416547  12.019  12.473   6.838  0.0306  0.0208 -0.1024
 1312ERGO    R516548  12.092  12.282   6.913  0.1750  0.0285 -0.2110
 1312ERGO    C116549  11.882  12.392   7.212  0.3815 -0.1465  0.0042
 1312ERGO    C216550  11.819  12.443   7.589  0.0736 -0.1801  0.0021
 1313ERGO   ROH16551  11.123  11.861   5.834 -0.4429 -0.1311 -0.0160
 1313ERGO    R116552  11.029  11.835   6.099 -0.2400 -0.2278  0.0512
 1313ERGO    R216553  11.142  11.662   6.282  0.0817 -0.1015 -0.0055
 1313ERGO    R316554  11.163  11.886   6.434 -0.0665 -0.0632 -0.0452
 1313ERGO    R416555  11.016  11.696   6.602 -0.0246 -0.0743 -0.0521
 1313ERGO    R516556  10.954  11.899   6.550 -0.0962 -0.1234 -0.1095
 1313ERGO    C116557  10.962  11.927   6.931 -0.2255 -0.0227 -0.1166
 1313ERGO    C216558  10.930  12.152   7.266 -0.1220  0.0336 -0.2083
 1314ERGO   ROH16559  17.945   2.594   6.517  0.0223  0.0066 -0.0807
 1314ERGO    R116560  18.071   2.512   6.757 -0.0230 -0.0172 -0.0641
 1314ERGO    R216561  17.988   2.598   7.006 -0.0606 -0.0276 -0.0684
 1314ERGO    R316562  17.974   2.331   7.057 -0.0876 -0.0305 -0.0943
 1314ERGO    R416563  17.973   2.458   7.321 -0.0704 -0.0651 -0.0860
 1314ERGO    R516564  18.108   2.302   7.253 -0.0909 -0.0691 -0.1022
 1314ERGO    C116565  17.952   2.127   7.554 -0.1014 -0.0897 -0.1207
 1314ERGO    C216566  17.995   1.948   7.949  0.0005  0.1752  0.2215
 1315ERGO   ROH16567   0.873   0.629   6.762 -0.0419 -0.0321  0.0848
 1315ERGO    R116568   0.801   0.563   7.028  0.1153 -0.1622  0.0969
 1315ERGO    R216569   0.964   0.411   7.193  0.3594  0.0196  0.0323
 1315ERGO    R316570   0.936   0.623   7.361  0.1336 -0.0347  0.0664
 1315ERGO    R416571   1.007   0.400   7.536  0.3756  0.0142  0.0299
 1315ERGO    R516572   0.835   0.531   7.557  0.2340 -0.1731  0.0534
 1315ERGO    C116573   1.006   0.592   7.893  0.1732 -0.0398  0.0606
 1315ERGO    C216574   0.907   0.674   8.211  0.0470  0.1077  0.0919
 1316ERGO   ROH16575   9.375   6.869   6.025  0.2597  0.1268  0.1056
 1316ERGO    R116576   9.387   6.985   6.283  0.0982  0.1060  0.1231
 1316ERGO    R216577   9.232   6.896   6.493  0.0509  0.0129  0.0475
 1316ERGO    R316578   9.472   6.875   6.619  0.0091  0.1113  0.1481
 1316ERGO    R416579   9.291   6.980   6.824 -0.0674  0.2539  0.0104
 1316ERGO    R516580   9.482   7.066   6.763 -0.0486  0.2174  0.0145
 1316ERGO    C116581   9.551   7.008   7.133 -0.1755  0.4867  0.0833
 1316ERGO    C216582   9.611   6.988   7.512 -0.0286  0.1942 -0.2900
 1317ERGO   ROH16583  10.803  16.022   6.776 -0.1240 -0.0118  0.0996
 1317ERGO    R116584  10.862  16.151   7.021  0.0479 -0.0813  0.0943
 1317ERGO    R216585  10.719  16.103   7.252 -0.0865  0.1950  0.0585
 1317ERGO    R316586  10.965  16.051   7.355 -0.1963 -0.2164  0.1364
 1317ERGO    R416587  10.799  16.123   7.588 -0.0796  0.5528  0.0407
 1317ERGO    R516588  10.991  16.213   7.531  0.1560  0.0328 -0.1137
 1317ERGO    C116589  11.077  16.085   7.880 -0.1787  0.3749  0.1034
 1317ERGO    C216590  11.236  16.076   8.271  0.1137 -0.1661 -0.0562
 1318ERGO   ROH16591   4.800  14.258   6.426 -0.3119 -0.0077 -0.0566
 1318ERGO    R116592   4.635  14.318   6.648 -0.0690  0.1048  0.0973
 1318ERGO    R216593   4.660  14.189   6.891  0.1071  0.1323  0.0916
 1318ERGO    R316594   4.682  14.442   6.986  0.3182  0.1370  0.0373
 1318ERGO    R416595   4.630  14.277   7.223 -0.2575  0.2750  0.0260
 1318ERGO    R516596   4.518  14.454   7.161  0.0715  0.4162 -0.1991
 1318ERGO    C116597   4.633  14.566   7.507 -0.2714  0.3625 -0.0633
 1318ERGO    C216598   4.633  14.388   7.846  0.0017 -0.2092 -0.1523
 1319ERGO   ROH16599  11.757   0.988   6.393 -0.4370 -0.2204 -0.1351
 1319ERGO    R116600  11.806   1.004   6.671 -0.2786 -0.0733 -0.1692
 1319ERGO    R216601  11.689   1.195   6.832 -0.2815 -0.0604 -0.1824
 1319ERGO    R316602  11.609   0.979   6.976 -0.0864 -0.0409 -0.0414
 1319ERGO    R416603  11.577   1.206   7.159 -0.1180  0.0196 -0.1287
 1319ERGO    R516604  11.688   1.022   7.197  0.0033  0.1008 -0.1023
 1319ERGO    C116605  11.438   1.009   7.485  0.1602  0.0844  0.0351
 1319ERGO    C216606  11.107   0.998   7.790 -0.2289  0.4997 -0.1154
 1320ERGO   ROH16607   6.802  14.312   6.144  0.2757  0.1000 -0.0567
 1320ERGO    R116608   6.742  14.320   6.421  0.1348 -0.0336 -0.0824
 1320ERGO    R216609   6.910  14.213   6.612  0.1387  0.0644 -0.0365
 1320ERGO    R316610   6.893  14.462   6.720 -0.1386  0.0185  0.0355
 1320ERGO    R416611   6.915  14.281   6.951  0.3425 -0.0211 -0.0199
 1320ERGO    R516612   6.760  14.432   6.917  0.0776 -0.2373  0.1534
 1320ERGO    C116613   6.901  14.555   7.249  0.2009 -0.1140  0.0574
 1320ERGO    C216614   6.878  14.643   7.594 -0.2632  0.2019 -0.1545
 1321ERGO   ROH16615  15.857  14.270   6.176  0.0291  0.0573  0.0622
 1321ERGO    R116616  15.982  14.202   6.421 -0.1238 -0.1902  0.0762
 1321ERGO    R216617  15.984  14.372   6.639  0.2834 -0.1340  0.0426
 1321ERGO    R316618  15.878  14.156   6.767 -0.2392  0.1337  0.0864
 1321ERGO    R416619  16.030  14.299   6.974  0.2075 -0.2476  0.0282
 1321ERGO    R516620  16.050  14.088   6.920 -0.3574 -0.3109  0.0303
 1321ERGO    C116621  15.958  14.055   7.289 -0.3273 -0.0623  0.0610
 1321ERGO    C216622  15.836  14.241   7.621  0.0385 -0.2867  0.0148
 1322ERGO   ROH16623   4.443   0.785   6.124 -0.1717  0.3893  0.0555
 1322ERGO    R116624   4.510   0.673   6.376 -0.4586  0.1172  0.0148
 1322ERGO    R216625   4.690   0.791   6.549 -0.0512 -0.4649  0.0059
 1322ERGO    R316626   4.484   0.772   6.725 -0.0877  0.1190  0.0486
 1322ERGO    R416627   4.718   0.826   6.891  0.1782 -0.7195  0.0167
 1322ERGO    R516628   4.577   0.661   6.915 -0.3724 -0.2971 -0.0312
 1322ERGO    C116629   4.541   0.827   7.256  0.2774 -0.3195  0.0631
 1322ERGO    C216630   4.569   0.861   7.586  0.2414 -0.2199 -0.2191
 1323ERGO   ROH16631  11.634   0.554   6.653 -0.0448  0.1976 -0.0774
 1323ERGO    R116632  11.615   0.467   6.922 -0.1352  0.1842 -0.0875
 1323ERGO    R216633  11.765   0.577   7.125 -0.0687  0.0531 -0.0599
 1323ERGO    R316634  11.522   0.613   7.242 -0.0557  0.2240 -0.0839
 1323ERGO    R416635  11.712   0.609   7.465 -0.0992 -0.0006 -0.0596
 1323ERGO    R516636  11.534   0.485   7.444 -0.1976  0.1578 -0.1205
 1323ERGO    C116637  11.453   0.661   7.773 -0.1047  0.1285 -0.0818
 1323ERGO    C216638  11.439   0.643   8.080  0.2418 -0.3860  0.2970
 1324ERGO   ROH16639   5.752  14.506   6.207 -0.0129  0.0045  0.0165
 1324ERGO    R116640   5.752  14.678   6.432  0.0032  0.0155  0.0072
 1324ERGO    R216641   5.646  14.604   6.677  0.0071  0.0335  0.0122
 1324ERGO    R316642   5.892  14.673   6.768  0.0135  0.0261  0.0032
 1324ERGO    R416643   5.713  14.713   6.997  0.0520 -0.1344  0.0617
 1324ERGO    R516644   5.851  14.859   6.913  0.0090 -0.0617  0.1167
 1324ERGO    C116645   5.984  14.841   7.271  0.0840 -0.2391  0.0822
 1324ERGO    C216646   5.878  14.726   7.608  0.2188  0.1904  0.0224
 1325ERGO   ROH16647  13.847   2.643   6.537 -0.0651 -0.1259 -0.0183
 1325ERGO    R116648  13.739   2.777   6.762 -0.1855 -0.0877 -0.0974
 1325ERGO    R216649  13.492   2.712   6.868 -0.1228 -0.2603 -0.0470
 1325ERGO    R316650  13.635   2.686   7.099 -0.0834  0.0205 -0.0368
 1325ERGO    R416651  13.356   2.718   7.186 -0.1194 -0.2789 -0.0457
 1325ERGO    R516652  13.528   2.836   7.252 -0.2615 -0.0386 -0.1040
 1325ERGO    C116653  13.411   2.697   7.587 -0.0804 -0.0261 -0.0354
 1325ERGO    C216654  13.221   2.583   7.932  0.0157  0.0363 -0.0069
 1326ERGO   ROH16655   1.219  10.368   6.652  0.0308 -0.0227  0.0929
 1326ERGO    R116656   1.349  10.374   6.904 -0.0654  0.0903  0.1400
 1326ERGO    R216657   1.227  10.470   7.132 -0.3029 -0.1922  0.1316
 1326ERGO    R316658   1.296  10.227   7.232  0.0544 -0.1243  0.0670
 1326ERGO    R416659   1.190  10.374   7.462 -0.4075 -0.4079  0.0598
 1326ERGO    R516660   1.383  10.274   7.450 -0.2057 -0.0599  0.1658
 1326ERGO    C116661   1.233  10.090   7.748 -0.1331 -0.4697 -0.0427
 1326ERGO    C216662   1.217  10.018   8.037  0.1827 -0.0338 -0.1313
 1327ERGO   ROH16663  14.480   9.069   6.319  0.0276 -0.1320  0.0681
 1327ERGO    R116664  14.500   9.017   6.597  0.2042 -0.0623  0.0702
 1327ERGO    R216665  14.701   9.123   6.753  0.1059  0.2696 -0.0135
 1327ERGO    R316666  14.494   9.213   6.904  0.0152 -0.0218  0.0406
 1327ERGO    R416667  14.727   9.229   7.081  0.0728  0.4657 -0.0740
 1327ERGO    R516668  14.538   9.128   7.123  0.2655  0.1548  0.0598
 1327ERGO    C116669  14.546   9.376   7.413 -0.0315  0.3064 -0.0583
 1327ERGO    C216670  14.728   9.586   7.613 -0.0692  0.0526  0.1226
 1328ERGO   ROH16671  18.059   3.552   6.460  0.0976  0.0965  0.0747
 1328ERGO    R116672  17.954   3.659   6.700  0.0875  0.0464  0.0924
 1328ERGO    R216673  17.904   3.504   6.923  0.2072  0.0238  0.1025
 1328ERGO    R316674  18.062   3.687   7.047  0.1370  0.1055  0.0729
 1328ERGO    R416675  17.967   3.512   7.263  0.4287 -0.0731  0.0661
 1328ERGO    R516676  17.951   3.730   7.255  0.2378 -0.0793  0.1687
 1328ERGO    C116677  18.152   3.689   7.577  0.4918 -0.0528  0.0172
 1328ERGO    C216678  18.066   3.428   7.928 -0.5018  0.0677  0.1340
 1329ERGO   ROH16679   5.501   4.560   5.879  0.1412 -0.0757 -0.0689
 1329ERGO    R116680   5.422   4.566   6.150  0.0421  0.1498 -0.1017
 1329ERGO    R216681   5.566   4.440   6.350 -0.2262  0.0088  0.0004
 1329ERGO    R316682   5.563   4.687   6.464  0.1020  0.0615 -0.0929
 1329ERGO    R416683   5.661   4.509   6.675 -0.3019 -0.0327  0.0328
 1329ERGO    R516684   5.494   4.648   6.690 -0.0969  0.2472 -0.1151
 1329ERGO    C116685   5.715   4.781   6.971 -0.0378 -0.0074 -0.0359
 1329ERGO    C216686   5.801   4.806   7.227 -0.0643  0.0265  0.0900
 1330ERGO   ROH16687   7.490  12.853   6.136  0.1745 -0.1488 -0.0200
 1330ERGO    R116688   7.550  12.804   6.408  0.1702 -0.0093  0.0055
 1330ERGO    R216689   7.651  12.999   6.576 -0.1609  0.1724 -0.0064
 1330ERGO    R316690   7.437  12.931   6.730 -0.1072 -0.1082 -0.0480
 1330ERGO    R416691   7.636  13.034   6.919 -0.2991  0.2352 -0.0169
 1330ERGO    R516692   7.534  12.842   6.930 -0.0210  0.0795  0.0002
 1330ERGO    C116693   7.427  12.991   7.264 -0.3293  0.0081 -0.0621
 1330ERGO    C216694   7.512  13.098   7.547  0.0512  0.1858 -0.1025
 1331ERGO   ROH16695  17.199  16.390   6.541  0.3200  0.0135 -0.0174
 1331ERGO    R116696  17.225  16.414   6.822  0.3078  0.0715 -0.0203
 1331ERGO    R216697  17.323  16.209   6.980  0.0970  0.0208  0.0548
 1331ERGO    R316698  17.497  16.401   7.064  0.2690 -0.1153  0.0130
 1331ERGO    R416699  17.401  16.274   7.311  0.0267  0.1417  0.0475
 1331ERGO    R516700  17.398  16.487   7.264  0.2780  0.1161 -0.0831
 1331ERGO    C116701  17.609  16.492   7.582  0.1471  0.0847  0.0041
 1331ERGO    C216702  17.770  16.356   7.800  0.0341 -0.0730 -0.0981
 1332ERGO   ROH16703  12.463   7.235   6.590 -0.2012 -0.1781 -0.0128
 1332ERGO    R116704  12.421   7.106   6.838 -0.1253 -0.0609  0.0600
 1332ERGO    R216705  12.628   6.994   6.984 -0.0725  0.1037  0.0956
 1332ERGO    R316706  12.530   7.153   7.182 -0.1142  0.1633  0.0305
 1332ERGO    R416707  12.652   6.926   7.322  0.0012  0.2588  0.1239
 1332ERGO    R516708  12.448   6.999   7.347 -0.0360  0.1944  0.1114
 1332ERGO    C116709  12.575   7.035   7.705  0.0051  0.4051  0.0794
 1332ERGO    C216710  12.808   6.893   8.034  0.1655 -0.2133  0.0395
 1333ERGO   ROH16711   1.071   8.139   6.134 -0.1060 -0.0548 -0.0294
 1333ERGO    R116712   1.112   8.076   6.407  0.0378  0.0497 -0.0250
 1333ERGO    R216713   1.064   8.257   6.611 -0.0284  0.0718 -0.0548
 1333ERGO    R316714   0.907   8.058   6.707  0.1546 -0.0224  0.0498
 1333ERGO    R416715   1.023   8.182   6.945  0.0014  0.2366 -0.0139
 1333ERGO    R516716   1.029   7.971   6.894  0.2139  0.2111  0.1195
 1333ERGO    C116717   0.852   7.951   7.231  0.1906  0.2441  0.1081
 1333ERGO    C216718   0.909   7.850   7.558 -0.2167  0.0655  0.0099
 1334ERGO   ROH16719  13.585   1.766   6.936 -0.0628  0.3450  0.0545
 1334ERGO    R116720  13.505   1.791   7.207 -0.1382  0.2765  0.0394
 1334ERGO    R216721  13.510   1.578   7.383 -0.1976  0.2277 -0.0140
 1334ERGO    R316722  13.661   1.748   7.533 -0.2310  0.1822  0.0712
 1334ERGO    R416723  13.576   1.539   7.720 -0.0773  0.0025 -0.0618
 1334ERGO    R516724  13.550   1.754   7.745 -0.1682 -0.0290  0.1103
 1334ERGO    C116725  13.755   1.676   8.057 -0.0386 -0.1712 -0.0096
 1334ERGO    C216726  13.826   1.611   8.284  0.0812 -0.1477 -0.1198
 1335ERGO   ROH16727  15.113   8.764   6.427 -0.0819 -0.1733 -0.0933
 1335ERGO    R116728  15.134   8.786   6.708 -0.0910 -0.0916 -0.0990
 1335ERGO    R216729  15.341   8.919   6.832 -0.1567  0.0442 -0.1341
 1335ERGO    R316730  15.139   9.055   6.953 -0.2248 -0.0260 -0.1677
 1335ERGO    R416731  15.349   9.038   7.157 -0.2102  0.1494 -0.1704
 1335ERGO    R516732  15.141   8.977   7.179 -0.1757  0.0457 -0.1439
 1335ERGO    C116733  15.164   9.235   7.459 -0.3053  0.1448 -0.2231
 1335ERGO    C216734  15.211   9.445   7.714  0.1403  0.0883 -0.0938
 1336ERGO   ROH16735  16.260   5.641   6.387 -0.0021 -0.2060  0.0523
 1336ERGO    R116736  16.210   5.619   6.664  0.0352 -0.2009  0.0597
 1336ERGO    R216737  16.290   5.401   6.813  0.1054 -0.1736  0.0651
 1336ERGO    R316738  16.409   5.590   6.967  0.0778 -0.1342  0.0377
 1336ERGO    R416739  16.355   5.368   7.151  0.0433 -0.0827  0.0863
 1336ERGO    R516740  16.296   5.576   7.178  0.0401 -0.0765  0.0202
 1336ERGO    C116741  16.506   5.526   7.492 -0.0189  0.0073  0.0729
 1336ERGO    C216742  16.788   5.392   7.749  0.0282 -0.2207 -0.4052
 1337ERGO   ROH16743   2.194  10.320   6.411 -0.0517 -0.0824  0.0409
 1337ERGO    R116744   2.091  10.479   6.621 -0.0210  0.0309 -0.0302
 1337ERGO    R216745   1.853  10.422   6.749 -0.0322  0.1362 -0.0089
 1337ERGO    R316746   2.007  10.433   6.972 -0.0354  0.2037 -0.0089
 1337ERGO    R416747   1.744  10.344   7.067  0.0486 -0.0999 -0.0369
 1337ERGO    R516748   1.859  10.513   7.143 -0.1170 -0.0098  0.0270
 1337ERGO    C116749   1.826  10.308   7.463  0.0928 -0.1740 -0.0532
 1337ERGO    C216750   1.857  10.134   7.733  0.0852 -0.0733 -0.0630
 1338ERGO   ROH16751  18.163  10.797   5.939  0.2123 -0.1249 -0.0339
 1338ERGO    R116752  18.184  10.629   6.166  0.1412 -0.0668  0.0153
 1338ERGO    R216753  18.397  10.643   6.342  0.0283  0.0542  0.1385
 1338ERGO    R316754  18.200  10.673   6.527 -0.0931  0.0160  0.0178
 1338ERGO    R416755  18.444  10.636   6.685 -0.1642  0.1476  0.1690
 1338ERGO    R516756  18.259  10.522   6.703 -0.1319  0.0757  0.0859
 1338ERGO    C116757  18.286  10.660   7.057 -0.3903  0.1660  0.0735
 1338ERGO    C216758  18.306  10.833   7.371 -0.0865  0.1140  0.3102
 1339ERGO   ROH16759  15.178   1.842   6.637  0.1990 -0.1457 -0.1306
 1339ERGO    R116760  15.055   1.918   6.880  0.1019 -0.0783 -0.2020
 1339ERGO    R216761  14.963   1.733   7.064  0.1648 -0.0228 -0.1285
 1339ERGO    R316762  15.122   1.872   7.235  0.0412  0.1589 -0.1553
 1339ERGO    R416763  14.963   1.697   7.408  0.2340 -0.0188 -0.1264
 1339ERGO    R516764  14.983   1.913   7.426  0.0062  0.0169 -0.1393
 1339ERGO    C116765  15.112   1.807   7.768  0.1582  0.1541 -0.1503
 1339ERGO    C216766  15.236   1.804   8.050  0.3492 -0.2886  0.0549
 1340ERGO   ROH16767   7.160  15.216   6.260 -0.0531  0.3287 -0.0799
 1340ERGO    R116768   7.047  15.389   6.453 -0.2122  0.1286  0.0122
 1340ERGO    R216769   6.909  15.296   6.674  0.1242 -0.1259  0.1299
 1340ERGO    R316770   7.088  15.451   6.809 -0.0311  0.1926 -0.0199
 1340ERGO    R416771   6.875  15.398   7.003  0.2346 -0.2069  0.1661
 1340ERGO    R516772   6.953  15.593   6.946 -0.1686 -0.0593  0.1070
 1340ERGO    C116773   7.022  15.601   7.321  0.1532  0.0448  0.0465
 1340ERGO    C216774   7.143  15.629   7.644 -0.0111  0.2235 -0.1388
 1341ERGO   ROH16775   8.071  12.143   6.253 -0.0219  0.0787 -0.0108
 1341ERGO    R116776   8.205  12.120   6.501 -0.0208  0.0356 -0.0148
 1341ERGO    R216777   8.090  12.198   6.740 -0.0084  0.0334 -0.0065
 1341ERGO    R316778   8.151  11.944   6.815 -0.0456  0.0126 -0.0305
 1341ERGO    R416779   8.115  12.089   7.067  0.0564  0.0180 -0.0169
 1341ERGO    R516780   8.288  11.971   7.009  0.0161 -0.0233 -0.0678
 1341ERGO    C116781   8.187  11.787   7.328  0.0591 -0.0105 -0.0454
 1341ERGO    C216782   8.270  11.659   7.651  0.2683 -0.1203  0.0399
 1342ERGO   ROH16783   3.506   7.902   5.879  0.1650 -0.0439 -0.0635
 1342ERGO    R116784   3.553   7.970   6.150  0.2376 -0.0339 -0.0798
 1342ERGO    R216785   3.435   7.835   6.360  0.1750  0.0749 -0.0523
 1342ERGO    R316786   3.692   7.806   6.444  0.1652 -0.0770 -0.0669
 1342ERGO    R416787   3.533   7.799   6.690  0.1665  0.0903 -0.0471
 1342ERGO    R516788   3.702   7.930   6.648  0.2570 -0.0279 -0.0944
 1342ERGO    C116789   3.831   7.751   6.960  0.1523 -0.0433 -0.0577
 1342ERGO    C216790   3.917   7.817   7.264  0.3789  0.0823 -0.1786
 1343ERGO   ROH16791   3.513  16.810   6.645  0.2050  0.3877 -0.0508
 1343ERGO    R116792   3.383  16.802   6.897  0.1447  0.2310 -0.0854
 1343ERGO    R216793   3.494  16.677   7.117  0.0642  0.0404 -0.1499
 1343ERGO    R316794   3.454  16.919   7.234  0.0952 -0.0356  0.0204
 1343ERGO    R416795   3.444  16.726   7.455  0.1300 -0.1869 -0.1056
 1343ERGO    R516796   3.292  16.875   7.406  0.1255 -0.1463  0.0224
 1343ERGO    C116797   3.376  16.982   7.762  0.1974 -0.3907  0.0802
 1343ERGO    C216798   3.334  17.125   8.078  0.0415  0.1329 -0.3785
 1344ERGO   ROH16799   3.970  11.156   6.429 -0.0516 -0.2137 -0.0763
 1344ERGO    R116800   3.831  11.152   6.675  0.0090 -0.3183 -0.0433
 1344ERGO    R216801   3.954  11.086   6.914  0.1855  0.0304 -0.0313
 1344ERGO    R316802   3.854  11.326   6.994 -0.2206 -0.0911 -0.1468
 1344ERGO    R416803   3.848  11.158   7.235  0.5271  0.1390  0.0617
 1344ERGO    R516804   3.680  11.269   7.149  0.1361 -0.3171  0.1883
 1344ERGO    C116805   3.693  11.424   7.498  0.3447  0.0882  0.0074
 1344ERGO    C216806   3.568  11.531   7.802 -0.3879  0.1934 -0.0134
 1345ERGO   ROH16807   4.397  11.993   6.191 -0.0221  0.2011 -0.0396
 1345ERGO    R116808   4.375  12.068   6.463 -0.0587  0.0878 -0.0107
 1345ERGO    R216809   4.473  11.912   6.669  0.0430  0.0709 -0.0727
 1345ERGO    R316810   4.604  12.141   6.736 -0.0929  0.1266  0.0083
 1345ERGO    R416811   4.640  11.965   6.967  0.1751 -0.0128 -0.1312
 1345ERGO    R516812   4.562  12.168   6.970  0.0193 -0.0705  0.0550
 1345ERGO    C116813   4.861  12.210   7.204  0.1245 -0.0092 -0.0891
 1345ERGO    C216814   4.995  12.256   7.552 -0.2214 -0.1391 -0.1983
 1346W        W16815   1.588   6.283   2.720  0.1336  0.0392  0.1312
 1347W        W16816   7.193   9.666   2.105  0.0696  0.1611 -0.0235
 1348W        W16817   2.097  10.305  14.061  0.0516 -0.0307  0.1461
 1349W        W16818  11.288  16.962  12.815 -0.0848 -0.1515  0.1293
 1350W        W16819   1.892   3.114  14.540 -0.1564 -0.0578 -0.1047
 1351W        W16820  10.417  18.039   1.337 -0.3193  0.0908 -0.0420
 1352W        W16821   6.650  16.742   4.531 -0.1130  0.0816  0.1131
 1353W        W16822  17.549   1.866  14.016 -0.0907  0.0140  0.3400
 1354W        W16823   7.293  13.623  14.124  0.0248 -0.1696  0.0646
 1355W        W16824  15.921   3.832  14.972 -0.1092 -0.1262  0.1493
 1356W        W16825  14.023  10.999   1.307  0.0571  0.1338 -0.0139
 1357W        W16826  10.688   7.056   3.092  0.0251  0.1906  0.0906
 1358W        W16827   9.785   1.855  14.992  0.0068  0.2648 -0.1127
 1359W        W16828   1.009   0.342   1.674 -0.2225 -0.0132 -0.1248
 1360W        W16829   0.317   4.469   4.777  0.1188 -0.2915 -0.0621
 1361W        W16830  11.911  16.307   4.476  0.0854  0.0895  0.1881
 1362W        W16831  16.359  17.845  15.709  0.0053  0.2097  0.2872
 1363W        W16832   9.729  11.306  11.913 -0.0057 -0.0516  0.0470
 1364W        W16833  14.454   9.202   2.583  0.2083 -0.2473 -0.1686
 1365W        W16834  12.502   9.094   0.994  0.0815  0.0711 -0.2496
 1366W        W16835   4.642   0.260  13.610  0.0861  0.2247 -0.0537
 1367W        W16836  17.841   6.700  12.843  0.2095 -0.2665  0.1932
 1368W        W16837  14.200  17.474   0.072 -0.0204 -0.1327 -0.0455
 1369W        W16838  15.498   3.510  13.846  0.0619  0.1329  0.1310
 1370W        W16839  11.807   5.374   3.154 -0.2270  0.1489 -0.0253
 1371W        W16840   3.363   9.605  14.426  0.1549 -0.0607 -0.2454
 1372W        W16841  10.227   3.918  12.323 -0.1567 -0.0220 -0.1284
 1373W        W16842  16.645  11.254   4.848 -0.0097  0.2343  0.0076
 1374W        W16843  11.365   8.855   3.750 -0.3066  0.0045 -0.2220
 1375W        W16844   9.907  17.451   2.325  0.0275 -0.2104 -0.1373
 1376W        W16845  12.827  17.863   0.160 -0.1478  0.2762  0.0489
 1377W        W16846   3.190   5.384  12.315  0.1226 -0.0073 -0.0503
 1378W        W16847  12.101   6.017   0.155 -0.1675 -0.0065  0.2789
 1379W        W16848  10.423  13.484   1.574 -0.0231 -0.0634  0.1686
 1380W        W16849   5.562  17.942   4.164  0.0374  0.1505  0.3822
 1381W        W16850  12.511   8.720  15.818 -0.4191 -0.3489 -0.2689
 1382W        W16851  12.550   5.262  12.596  0.3171 -0.0170 -0.1217
 1383W        W16852   8.017   0.672   4.247  0.3131 -0.4653 -0.2822
 1384W        W16853   9.118   9.898   4.594  0.1128  0.0096 -0.3085
 1385W        W16854   2.868  17.329  13.046  0.1014 -0.1597 -0.1038
 1386W        W16855  11.409   0.536  13.462 -0.1889  0.0871  0.0077
 1387W        W16856  10.876   5.760   2.292 -0.1764 -0.1600  0.2199
 1388W        W16857  12.537  12.494  15.702  0.2050 -0.1595 -0.4950
 1389W        W16858   2.628   5.547  14.679 -0.1182  0.0404 -0.0900
 1390W        W16859  14.588  17.529   2.423  0.1450 -0.0760 -0.1161
 1391W        W16860  15.495   9.459  13.623 -0.2309 -0.0472 -0.0578
 1392W        W16861   1.267   8.875   2.668  0.2344  0.0696 -0.3053
 1393W        W16862  11.551  11.459  14.800 -0.0644 -0.2424 -0.0487
 1394W        W16863  17.978   0.215   2.866  0.0935  0.1026  0.0348
 1395W        W16864  10.568   1.007   2.440 -0.3013 -0.3362  0.1574
 1396W        W16865  13.686  15.955   5.080 -0.5103  0.2194  0.0388
 1397W        W16866  15.969   8.694   1.858 -0.5210  0.0081 -0.1448
 1398W        W16867   4.853  17.918  10.543 -0.1889 -0.1971  0.1067
 1399W        W16868  15.397   6.900   5.731  0.0723 -0.0140  0.2204
 1400W        W16869  15.348  14.141   2.932 -0.3345 -0.3323 -0.3693
 1401W        W16870  13.213  17.935  10.970  0.0488 -0.0025 -0.2404
 1402W        W16871  10.031  17.158  12.022 -0.2291  0.1430  0.3882
 1403W        W16872  15.855  16.627   2.794 -0.1941 -0.2874  0.2133
 1404W        W16873   8.670   8.362   3.668  0.2034  0.0093 -0.0587
 1405W        W16874  16.311   0.203   0.410 -0.1798 -0.0428  0.1006
 1406W        W16875  11.147   0.588   2.447 -0.1895 -0.1388 -0.2187
 1407W        W16876   9.680   0.341   1.347 -0.4262 -0.0146  0.0442
 1408W        W16877  13.382   5.330   0.247  0.3465  0.0067 -0.0800
 1409W        W16878  13.221   6.017  14.769 -0.2767 -0.0150  0.3001
 1410W        W16879   5.086   4.520   1.555 -0.2118 -0.0166  0.3830
 1411W        W16880  14.771   8.199   5.343  0.1370 -0.2052 -0.2728
 1412W        W16881   7.851   3.491  15.000  0.2607 -0.2068  0.2205
 1413W        W16882  17.299   8.754   1.619 -0.1163  0.0950 -0.2008
 1414W        W16883  15.577   1.686  11.699 -0.1714  0.0758  0.2392
 1415W        W16884   5.368  16.464  12.069 -0.1086 -0.1041  0.1180
 1416W        W16885  15.912   1.786   3.485 -0.1011 -0.0347  0.2906
 1417W        W16886  12.463   6.645   3.062  0.0657  0.0596  0.0225
 1418W        W16887   8.820  18.096  11.194  0.1216  0.2254 -0.1788
 1419W        W16888   9.624   8.009   4.721  0.2144  0.1789  0.3193
 1420W        W16889   1.337  13.913   4.093 -0.0185  0.0284  0.0818
 1421W        W16890  13.548   5.921   1.599 -0.1051  0.2250  0.1936
 1422W        W16891   1.944   6.454   2.317 -0.1394 -0.0975  0.1308
 1423W        W16892  10.771   6.381   4.952 -0.0103  0.1440  0.0965
 1424W        W16893   6.750  17.805   3.713  0.0590  0.2335  0.1320
 1425W        W16894  12.529  15.361  12.715 -0.1402  0.1218 -0.2496
 1426W        W16895   2.725  12.311   3.918  0.0012 -0.3391  0.0860
 1427W        W16896   0.149   3.528   1.314  0.0662  0.2290 -0.2915
 1428W        W16897   6.456   8.389  15.195  0.2001 -0.0850 -0.0831
 1429W        W16898  17.402   0.718   3.311 -0.0925 -0.0802  0.0293
 1430W        W16899  12.268   7.131   5.408 -0.2484 -0.2315  0.0652
 1431W        W16900   2.567  15.776   5.233  0.0585  0.1242  0.0707
 1432W        W16901   0.853  10.671  13.391 -0.2468  0.1012 -0.4050
 1433W        W16902   0.569   6.093   9.984 -0.1309 -0.0181 -0.1983
 1434W        W16903  11.360  12.938  13.605 -0.1310  0.4152  0.1210
 1435W        W16904  17.049   9.177   0.613  0.2320 -0.0514  0.0378
 1436W        W16905   0.127  11.265  13.476  0.1295 -0.0955 -0.2305
 1437W        W16906   0.440  16.656  15.981 -0.0094 -0.1416 -0.3988
 1438W        W16907   7.004  13.136  15.867  0.0854  0.0333  0.0436
 1439W        W16908   7.524   7.770  14.049 -0.1187 -0.1162  0.0539
 1440W        W16909   1.022   3.595   3.468  0.2344  0.4431  0.1117
 1441W        W16910   7.407  12.737   0.288 -0.0332 -0.1100  0.1475
 1442W        W16911  10.934  11.455  12.157  0.0074  0.0460  0.0264
 1443W        W16912  14.614   0.692  14.104 -0.1943  0.2847 -0.0369
 1444W        W16913  16.299   2.516   1.580  0.1000 -0.2070 -0.0619
 1445W        W16914  14.099   7.249   6.363  0.2681  0.4525 -0.2271
 1446W        W16915  11.645   2.296   4.943  0.1508 -0.2077 -0.0812
 1447W        W16916   2.562   1.472  14.295 -0.0947 -0.0278  0.1520
 1448W        W16917   6.117  15.403  14.198  0.3110  0.2875  0.0639
 1449W        W16918   8.551   6.724  15.897 -0.0377 -0.1450  0.0622
 1450W        W16919   7.156   9.255   1.397 -0.0783 -0.3486  0.3214
 1451W        W16920   5.404  12.199   5.311 -0.0842 -0.0742 -0.0008
 1452W        W16921  12.202  12.571   2.710 -0.0162 -0.0116 -0.0878
 1453W        W16922   9.928  11.413   3.779  0.1960  0.0072 -0.0168
 1454W        W16923  17.510   1.248  16.059 -0.0839 -0.1007  0.3840
 1455W        W16924   7.420   8.249   4.367 -0.0588  0.0462  0.3765
 1456W        W16925   8.792   6.060  11.138 -0.0057 -0.0112  0.1337
 1457W        W16926  16.214  12.890   0.982 -0.2524 -0.2090 -0.2166
 1458W        W16927   4.046   5.084  15.871 -0.0452 -0.1791  0.1026
 1459W        W16928   4.425  15.418   2.361 -0.1628  0.0343  0.2145
 1460W        W16929   6.250   0.100   0.487 -0.0548 -0.0689  0.1839
 1461W        W16930   6.357   6.399   1.880 -0.0610  0.0784  0.0495
 1462W        W16931  13.326  12.624  14.278  0.0180 -0.0863  0.1877
 1463W        W16932   9.676   0.501   4.916 -0.1878  0.2273 -0.1146
 1464W        W16933   2.581  16.776   2.839  0.1357  0.0055  0.0367
 1465W        W16934  14.548   9.735   0.265 -0.0945 -0.0012 -0.0149
 1466W        W16935  11.476   5.032  14.666 -0.1679  0.0263 -0.0302
 1467W        W16936  14.440   4.151   5.356  0.2542 -0.2106  0.1693
 1468W        W16937  14.876   7.664   3.040  0.2247  0.1165 -0.0188
 1469W        W16938  15.827   4.486  10.289 -0.2015  0.0202  0.1448
 1470W        W16939   9.390  14.137   4.437  0.2522  0.3356 -0.2746
 1471W        W16940  13.742   7.331  13.395  0.3373 -0.2413  0.4631
 1472W        W16941   4.592  17.244   0.244 -0.2197  0.0785  0.1708
 1473W        W16942  14.103  10.179  12.318  0.0899 -0.4497 -0.1902
 1474W        W16943   4.554   8.905   9.655 -0.0084  0.0520 -0.2004
 1475W        W16944  10.749   3.149  13.135  0.1898 -0.0396 -0.0070
 1476W        W16945  13.116   7.530  11.886 -0.0327  0.2291 -0.0674
 1477W        W16946   2.128  12.467  11.297 -0.0106 -0.0265 -0.3723
 1478W        W16947  12.081  14.475   1.134  0.0508  0.1458  0.3301
 1479W        W16948  10.067   2.445  15.438  0.0717 -0.0568  0.1251
 1480W        W16949   0.575  11.907  10.073 -0.1524 -0.0002  0.1762
 1481W        W16950   6.858  11.573   3.154 -0.0196 -0.2080  0.2565
 1482W        W16951  16.118  11.418   2.522 -0.4189 -0.1155  0.0072
 1483W        W16952   5.280   5.363  14.079  0.1933  0.4002 -0.1735
 1484W        W16953   5.886  10.907   4.492  0.1227  0.1548  0.3668
 1485W        W16954  16.043  13.378  12.107 -0.2893  0.0830  0.3571
 1486W        W16955   7.256  14.784  15.812 -0.0599  0.2183 -0.1240
 1487W        W16956  11.351  18.157  12.329 -0.0345  0.0694 -0.3296
 1488W        W16957  16.016  17.332  13.258 -0.0100  0.1234  0.0199
 1489W        W16958   9.065   6.464   0.521  0.0482  0.0503  0.1871
 1490W        W16959  10.352   6.568   4.384  0.0609 -0.0703  0.0339
 1491W        W16960   8.878   2.739  12.541  0.2461  0.1367  0.2781
 1492W        W16961  13.388  14.175  13.186 -0.1807  0.0021 -0.2394
 1493W        W16962   3.956  17.599   3.208  0.0641 -0.0884 -0.1082
 1494W        W16963   2.153   1.700   2.381  0.0969 -0.0432  0.0192
 1495W        W16964   9.649  13.632  14.365 -0.1895  0.1575 -0.1257
 1496W        W16965   3.166   9.640  14.868 -0.1911 -0.1285  0.0146
 1497W        W16966   3.878   1.672  13.091 -0.2656  0.4244  0.1534
 1498W        W16967   4.527   8.749  13.148  0.0604 -0.1563 -0.0882
 1499W        W16968  11.256  14.120  15.885 -0.0964  0.0338 -0.1517
 1500W        W16969   9.651  15.611   2.667  0.2385 -0.3400  0.3762
 1501W        W16970   4.434   1.872   0.434  0.0177 -0.0200 -0.1638
 1502W        W16971   1.829   4.201  14.461 -0.2568  0.1180  0.1793
 1503W        W16972   7.114   2.817  15.981 -0.0009  0.1045 -0.0634
 1504W        W16973   1.903  14.524  14.133 -0.1502  0.0787  0.0785
 1505W        W16974  14.140   1.512  11.739  0.1053  0.3085 -0.1315
 1506W        W16975   9.774   6.419  13.209 -0.0116  0.0906 -0.0280
 1507W        W16976   1.451   4.265   4.016 -0.0843  0.2502  0.0289
 1508W        W16977   6.327   9.422  13.318 -0.0313  0.1110 -0.0204
 1509W        W16978   2.088   9.052   4.199  0.5406  0.0146 -0.1217
 1510W        W16979   7.362   6.901   2.011 -0.0707 -0.2338  0.2339
 1511W        W16980  15.512   4.553   5.260  0.4118  0.1630  0.3622
 1512W        W16981   5.770   8.663   0.759  0.0566 -0.1192  0.0096
 1513W        W16982   0.732  13.283  15.899  0.0081 -0.0054 -0.1987
 1514W        W16983   7.361   3.550   0.431  0.3021 -0.2476  0.0781
 1515W        W16984  14.766   3.028  14.339  0.0830  0.0497  0.0151
 1516W        W16985   9.718  16.770   5.669  0.2186  0.0036  0.2434
 1517W        W16986   7.377   4.977   0.512 -0.0246 -0.3320 -0.1204
 1518W        W16987  15.770   4.706   4.802 -0.0012  0.2068  0.2326
 1519W        W16988   1.965   0.193  13.457  0.0623  0.1698  0.1003
 1520W        W16989   0.732   0.429  15.638  0.3198  0.0834 -0.1748
 1521W        W16990  16.776  14.954   2.360  0.3496 -0.0258 -0.0164
 1522W        W16991  13.869  18.261   2.436 -0.1537  0.0285 -0.0180
 1523W        W16992   1.191  13.194  14.133  0.0671  0.0101  0.2244
 1524W        W16993  16.152  15.460   4.802  0.1171 -0.1843 -0.0244
 1525W        W16994   5.777  14.676  15.704  0.0185  0.1469 -0.0008
 1526W        W16995   1.915   3.382   1.122 -0.1608  0.1422  0.2489
 1527W        W16996   2.913   7.624   3.698 -0.0823  0.3053 -0.0707
 1528W        W16997   0.607  10.959   4.451  0.1260 -0.0696 -0.2137
 1529W        W16998  14.826  14.239  12.974  0.0046  0.2522  0.0105
 1530W        W16999   5.152   3.586  12.357 -0.1369 -0.0266 -0.1629
 1531W        W17000  16.276   7.714   0.417  0.0131 -0.3097  0.0974
 1532W        W17001   7.508   6.722  14.214 -0.2663  0.1628  0.0559
 1533W        W17002  16.891  17.659  13.544  0.1123  0.1360  0.1412
 1534W        W17003   0.680  15.110  11.153  0.2368  0.3861  0.0238
 1535W        W17004  14.846   9.737  15.056  0.1940  0.0432  0.0263
 1536W        W17005   9.563  12.245  15.199  0.0059 -0.2139 -0.1254
 1537W        W17006  10.838  18.104  12.591 -0.3079 -0.3399 -0.0829
 1538W        W17007   1.199  14.694  11.702 -0.3609  0.1070 -0.1667
 1539W        W17008  15.920  17.742   0.825 -0.0357 -0.0856  0.0092
 1540W        W17009  16.037   6.161  12.887 -0.2482 -0.2119  0.0384
 1541W        W17010  16.489   6.577   0.701  0.2425  0.0770 -0.1498
 1542W        W17011   5.905   7.146  15.015  0.0211  0.5050 -0.2938
 1543W        W17012   7.923  14.864   3.409 -0.0033 -0.0777  0.0571
 1544W        W17013   2.139  13.162  15.991 -0.1593  0.3469  0.1886
 1545W        W17014   5.482   3.705   9.811  0.0474  0.1021  0.2454
 1546W        W17015  14.049  11.208   4.094  0.1924 -0.1164 -0.0662
 1547W        W17016   5.003   8.657   1.670  0.0575 -0.0547 -0.2201
 1548W        W17017   0.336   0.326   5.924  0.0099  0.0310 -0.1476
 1549W        W17018   1.248  15.452   3.648 -0.1354  0.2056 -0.3115
 1550W        W17019   2.361  14.437   4.807  0.0951 -0.1698 -0.0012
 1551W        W17020   6.401   9.298  10.762  0.3548  0.1197 -0.0860
 1552W        W17021  16.069   4.869   2.181 -0.0081 -0.1243 -0.2110
 1553W        W17022   2.679   3.811   2.206  0.2566 -0.0935 -0.2223
 1554W        W17023   0.093  17.926  11.873  0.1262 -0.0085 -0.0580
 1555W        W17024  10.255  16.271   3.782  0.0202  0.1217 -0.2952
 1556W        W17025  10.534   4.323   1.848 -0.1557 -0.0869  0.0446
 1557W        W17026   1.534   2.707  10.660  0.0478  0.0096  0.2393
 1558W        W17027   2.811   0.880  11.368  0.4582 -0.0915  0.1359
 1559W        W17028   8.217   8.933  13.151  0.3761  0.0718  0.1301
 1560W        W17029   8.389   0.130  11.204  0.4267  0.0329  0.1744
 1561W        W17030   4.671   7.766   1.700 -0.2953  0.0557  0.4064
 1562W        W17031   1.054   4.453  10.344  0.0625  0.2006 -0.0106
 1563W        W17032  16.142   0.803   4.996  0.4297 -0.0668 -0.0798
 1564W        W17033   7.199   0.194   4.444 -0.1777 -0.0766  0.1762
 1565W        W17034  13.216   4.068  11.627 -0.0361  0.1255 -0.0079
 1566W        W17035   0.935   8.202  13.990 -0.1095  0.1716  0.0897
 1567W        W17036  18.219  15.646   3.190  0.1272 -0.0472 -0.0994
 1568W        W17037   6.099  11.732  12.400 -0.0335  0.0157  0.2796
 1569W        W17038   2.072   1.994   5.987 -0.2412  0.2227 -0.2209
 1570W        W17039   9.180  18.164   1.985  0.1691 -0.0879  0.0974
 1571W        W17040   8.354  12.333  13.125 -0.0563 -0.0201 -0.0968
 1572W        W17041  15.776   0.768  16.107  0.0920  0.0693  0.0426
 1573W        W17042   2.150  14.105   4.517 -0.1782 -0.0720  0.1346
 1574W        W17043  13.622  14.617   0.992  0.2456  0.0240  0.1939
 1575W        W17044   5.085  15.071  11.065  0.1644 -0.1066 -0.2595
 1576W        W17045  14.453   5.019   1.537  0.0760  0.1314  0.0939
 1577W        W17046   3.517  14.636   5.619 -0.0654  0.1824  0.3840
 1578W        W17047  14.585  16.464  13.327 -0.2018  0.1504  0.0214
 1579W        W17048   4.938   7.222  15.446 -0.1413  0.1080  0.3162
 1580W        W17049   7.037  11.363   0.555 -0.1478  0.1058 -0.0505
 1581W        W17050  13.767  16.921   0.803  0.0808  0.2252 -0.0053
 1582W        W17051  13.034   4.175   1.987 -0.0510  0.6242  0.0533
 1583W        W17052   8.581   9.757   3.305 -0.1101  0.1745 -0.2464
 1584W        W17053  10.775   0.167   2.738  0.0834 -0.0604  0.0572
 1585W        W17054   7.986  12.119  13.465  0.0440 -0.1059  0.0897
 1586W        W17055  15.015  16.327   2.390  0.0468 -0.1549 -0.2420
 1587W        W17056  11.534   0.308   5.071  0.1565  0.1012  0.0492
 1588W        W17057  11.355  14.165   2.897 -0.0642  0.0903  0.0468
 1589W        W17058   7.882   7.860  11.159  0.3352 -0.2439  0.0397
 1590W        W17059  12.847  12.802   2.060 -0.0545 -0.0430 -0.0681
 1591W        W17060  14.605   6.059   4.758 -0.1053 -0.0495  0.0895
 1592W        W17061  13.150   3.087   1.925 -0.0508  0.5484 -0.1460
 1593W        W17062   5.102   6.378   4.539 -0.0566  0.2407  0.0330
 1594W        W17063  11.571  16.640  14.521  0.0778 -0.0491  0.0514
 1595W        W17064  14.955  18.034   4.971  0.1629  0.0443 -0.3271
 1596W        W17065   8.077  14.364   5.440 -0.2295 -0.2085 -0.1752
 1597W        W17066  16.895  11.409   1.773 -0.3112 -0.1302  0.0704
 1598W        W17067  17.082   1.847  13.813  0.0538 -0.0236  0.1903
 1599W        W17068  16.342  14.920   3.353 -0.0516 -0.0558  0.0185
 1600W        W17069  10.565  15.355   4.870 -0.2115 -0.0602  0.3716
 1601W        W17070   1.123  14.117  15.640  0.0666 -0.2644 -0.3064
 1602W        W17071  16.718   4.079  10.885 -0.0309  0.1557 -0.2847
 1603W        W17072   5.060   9.408   5.157 -0.0170  0.2264 -0.3763
 1604W        W17073  11.275  16.386  14.249  0.3327  0.1126  0.1691
 1605W        W17074   0.268  10.784  16.036  0.0621  0.1096  0.3061
 1606W        W17075   6.114  10.249  14.616 -0.0873  0.0969  0.2131
 1607W        W17076  17.923   1.192   2.354  0.1795 -0.0168  0.7011
 1608W        W17077  16.770   2.579   0.563  0.1476 -0.2455 -0.1391
 1609W        W17078  13.983   1.662   0.128 -0.3932 -0.0919  0.0419
 1610W        W17079   9.045  11.835   0.520 -0.4706 -0.1098  0.0800
 1611W        W17080   3.876  14.591   4.214 -0.0296  0.0529  0.1008
 1612W        W17081  10.378   1.083   3.365  0.0201 -0.0342  0.1287
 1613W        W17082  14.048   0.893   2.778 -0.1395  0.0158 -0.1392
 1614W        W17083  10.798  15.000  14.305 -0.0677  0.1493 -0.2641
 1615W        W17084  13.786   9.416  13.400 -0.1402  0.1491  0.0254
 1616W        W17085  16.833   7.643   1.633 -0.0253 -0.0961 -0.0313
 1617W        W17086   0.071   4.713   0.043  0.1015 -0.1984 -0.1421
 1618W        W17087  18.103   0.150  13.194  0.0548  0.1723  0.3092
 1619W        W17088  12.770   5.214   0.539  0.0056 -0.0392  0.1144
 1620W        W17089  12.967   7.858   1.880 -0.2432  0.4131  0.1967
 1621W        W17090   4.840   1.816   4.822  0.1540  0.0616 -0.2847
 1622W        W17091   2.861   1.246   4.760  0.1108 -0.1376  0.0393
 1623W        W17092  11.863  10.746   5.446  0.0334  0.3473 -0.1426
 1624W        W17093   5.028   8.575   5.008 -0.1538 -0.1475 -0.1244
 1625W        W17094   9.938   4.318   1.466 -0.1211 -0.0826  0.1908
 1626W        W17095   3.030   4.297   0.678  0.0972  0.4034 -0.1569
 1627W        W17096   7.641   7.168  16.076 -0.3363 -0.2064 -0.1078
 1628W        W17097   2.072   1.060  14.730  0.1512  0.2836  0.0244
 1629W        W17098   9.922   7.437  15.602 -0.2179 -0.3521  0.0085
 1630W        W17099   1.096  16.453  13.921 -0.2967 -0.3074 -0.0287
 1631W        W17100   7.071   7.141  12.005  0.2253 -0.0668  0.1244
 1632W        W17101  10.979  17.387   5.190  0.1787 -0.1310  0.0817
 1633W        W17102   6.874   6.289   1.014 -0.0463 -0.0441  0.2950
 1634W        W17103  11.250  11.865   3.975 -0.0005 -0.3087 -0.0022
 1635W        W17104  10.385  10.079  11.685 -0.3210 -0.0677  0.0501
 1636W        W17105   7.372   2.260   2.816 -0.0566 -0.1446  0.1456
 1637W        W17106   2.735  11.190   0.161  0.1593  0.4382  0.1996
 1638W        W17107   8.989  12.505   3.975  0.2723 -0.0642 -0.0834
 1639W        W17108   8.296   5.639   2.672 -0.0076 -0.0111 -0.0072
 1640W        W17109  17.197   1.819   0.460 -0.2535  0.1209  0.1876
 1641W        W17110   9.660  17.350   3.731 -0.0382  0.0718  0.3304
 1642W        W17111  10.131   0.737  13.335  0.1423 -0.1356  0.1438
 1643W        W17112   2.266  13.347  12.852 -0.0144 -0.0582  0.0568
 1644W        W17113   8.514  16.970  15.498 -0.1431  0.0468  0.0446
 1645W        W17114  13.099  14.381   3.359  0.3925 -0.6166  0.1314
 1646W        W17115  11.526   0.094  11.903 -0.3557 -0.0149  0.0209
 1647W        W17116  12.884   5.052   3.727 -0.0999  0.2007 -0.1265
 1648W        W17117  16.420   3.212   0.597  0.1055  0.2176  0.2349
 1649W        W17118   6.239  18.234  15.278 -0.3040  0.0672  0.2555
 1650W        W17119   3.306   8.168  10.662  0.0057 -0.1926  0.1501
 1651W        W17120   4.121  14.605  15.824  0.0142 -0.1756  0.0918
 1652W        W17121   7.902   2.524  15.142 -0.8549  0.1971  0.0726
 1653W        W17122   0.603   0.166  12.765  0.2471 -0.3188  0.1881
 1654W        W17123   3.099   6.782   3.915 -0.2143 -0.1630  0.0260
 1655W        W17124   5.959  10.377   3.304  0.1178 -0.0466  0.1667
 1656W        W17125   2.530  13.131  12.048 -0.1453 -0.0626  0.1713
 1657W        W17126   5.708  10.792  12.314 -0.0850 -0.0430  0.0196
 1658W        W17127  15.830   8.882  15.207 -0.0235  0.0013 -0.1654
 1659W        W17128  10.629  14.788  12.281 -0.2121  0.1473 -0.1339
 1660W        W17129   0.436   8.628  11.366  0.2130 -0.2157 -0.2372
 1661W        W17130  17.996  14.460   1.866 -0.1250  0.0004 -0.1426
 1662W        W17131   8.185   1.535  11.298  0.0152  0.2945  0.0645
 1663W        W17132  12.215   0.752  14.440  0.1487  0.2742  0.1590
 1664W        W17133   9.665  10.842  16.010 -0.0614  0.0894  0.1171
 1665W        W17134  13.611   9.174  12.969  0.1404  0.0942 -0.0903
 1666W        W17135   7.254   9.496   4.496  0.0852 -0.1178  0.0127
 1667W        W17136   6.671  11.432   3.613 -0.2336  0.1895  0.1813
 1668W        W17137   6.619   1.802  12.502 -0.1546 -0.2177 -0.1331
 1669W        W17138  11.415   5.193   5.118 -0.1021 -0.1409 -0.1568
 1670W        W17139   1.226  14.887  11.214 -0.0557  0.3664 -0.1454
 1671W        W17140   5.117  17.376  12.565 -0.0825  0.1776  0.1585
 1672W        W17141  15.146   7.911  12.046 -0.3652  0.1129  0.1659
 1673W        W17142  14.108   4.301  12.548 -0.1963  0.0313 -0.1109
 1674W        W17143  17.185   2.013   4.112  0.0172 -0.1268 -0.0683
 1675W        W17144  12.751   0.602   1.182  0.2142 -0.1103  0.1477
 1676W        W17145  11.200   7.417  12.036 -0.1120 -0.1532 -0.0057
 1677W        W17146   4.631  17.079  15.754 -0.0071 -0.1265 -0.0197
 1678W        W17147  11.457   0.313   0.782  0.0500  0.0174  0.2791
 1679W        W17148   8.836   7.825  13.910 -0.3186  0.4743 -0.2425
 1680W        W17149   0.177  13.609  14.373 -0.0095 -0.1032  0.2506
 1681W        W17150   5.499  17.812   2.907 -0.2668  0.0157 -0.1125
 1682W        W17151  14.531  13.760  10.766  0.0627  0.2684  0.2414
 1683W        W17152   1.309   1.121   2.075 -0.1460  0.0849  0.0505
 1684W        W17153   4.933  11.562  11.120  0.0657  0.0100  0.0764
 1685W        W17154   1.907   7.633   3.605  0.0555 -0.1285  0.0099
 1686W        W17155  12.928  17.015  15.202 -0.0109 -0.0785  0.3410
 1687W        W17156  11.238  17.731   0.799 -0.0504 -0.3309  0.1853
 1688W        W17157   2.497   3.157   4.712  0.2750  0.0711 -0.2585
 1689W        W17158   8.447   4.146  13.511  0.2063  0.1792  0.1065
 1690W        W17159  10.334  17.120   1.728 -0.0030 -0.1674  0.1672
 1691W        W17160  10.484   4.891  12.064 -0.1496  0.1232 -0.3364
 1692W        W17161  10.823   2.701  15.443  0.0483  0.0753 -0.0742
 1693W        W17162  14.503  10.109   2.203 -0.1473 -0.2095 -0.1153
 1694W        W17163   3.793  17.378  14.584  0.0148 -0.0814  0.0295
 1695W        W17164   3.849   9.229  16.059 -0.1196  0.0288 -0.0111
 1696W        W17165  18.096   4.324   4.957  0.1225  0.1798  0.2087
 1697W        W17166  10.772   7.879   0.133  0.0575 -0.1530 -0.2328
 1698W        W17167   4.328  11.547  14.547 -0.1636  0.0684 -0.1570
 1699W        W17168  10.680   7.720   3.859 -0.1063 -0.1380  0.0910
 1700W        W17169  14.797   7.588  12.793 -0.0304  0.2496 -0.1425
 1701W        W17170   7.640  11.263  11.894  0.2020 -0.1515 -0.4403
 1702W        W17171  10.902   3.447  12.212 -0.0314  0.1471 -0.4161
 1703W        W17172  15.184   3.038   1.487 -0.0782 -0.0443 -0.2571
 1704W        W17173  14.490   6.286   4.030 -0.0620  0.2891 -0.3649
 1705W        W17174  12.961  15.322  12.406 -0.1065  0.0877  0.2231
 1706W        W17175   9.412  16.165   1.369 -0.0606  0.4061 -0.1763
 1707W        W17176  11.304  11.694   4.802  0.0513  0.0229  0.1712
 1708W        W17177   8.984  10.256   1.487  0.1299  0.2729 -0.1155
 1709W        W17178  17.495  15.931   4.746 -0.1132  0.1200 -0.0728
 1710W        W17179  15.343  12.054  13.479  0.1027  0.1394  0.1509
 1711W        W17180  14.721  10.456  15.381  0.0348 -0.2876 -0.0831
 1712W        W17181   2.956   9.020   3.757 -0.0720  0.0266  0.2599
 1713W        W17182   9.406   0.627   2.651  0.2549 -0.2933 -0.1981
 1714W        W17183  13.715  13.897   2.356 -0.1838  0.0679 -0.1635
 1715W        W17184   0.440  17.388   4.920  0.1348  0.1653  0.0464
 1716W        W17185   7.992  10.930   1.909  0.3726 -0.0625  0.2999
 1717W        W17186  12.633   2.458   1.733 -0.2287 -0.1478  0.1271
 1718W        W17187   2.069   9.699   2.021 -0.0117  0.0423 -0.1683
 1719W        W17188  11.030   9.541  10.919  0.1684 -0.0166 -0.0819
 1720W        W17189   6.167  12.716   4.740 -0.2160 -0.0820  0.0439
 1721W        W17190  16.814   6.989  14.394  0.1261  0.2823  0.3238
 1722W        W17191  13.375  16.594  14.144 -0.0266 -0.0715  0.0457
 1723W        W17192   8.690  12.944   3.541 -0.2241  0.0429  0.1437
 1724W        W17193  13.001   7.482  13.351 -0.0687 -0.1748  0.0879
 1725W        W17194  10.749   6.221  12.970  0.1006 -0.2050  0.2757
 1726W        W17195   9.836   6.771  13.620  0.2616 -0.1070  0.0228
 1727W        W17196  12.007   1.472  12.864  0.2441  0.3203 -0.0862
 1728W        W17197   0.419  17.299  12.757 -0.0513  0.4055 -0.0231
 1729W        W17198  16.839   2.031  12.346  0.1049  0.3029 -0.2162
 1730W        W17199  17.845   1.423  15.696  0.0026 -0.2406 -0.3741
 1731W        W17200   3.946   9.125   3.905  0.2456 -0.0560 -0.0700
 1732W        W17201  17.323   9.415   0.258  0.1743 -0.0026  0.2369
 1733W        W17202   3.549  10.800   5.560 -0.1132 -0.0321  0.1281
 1734W        W17203   6.257  10.971  13.992 -0.0298  0.0213  0.1891
 1735W        W17204  17.633   1.475   1.357 -0.1255  0.2118 -0.1234
 1736W        W17205  10.924  15.958   1.695 -0.0042  0.2421  0.1218
 1737W        W17206   1.441  17.420   4.631 -0.2388 -0.1435  0.1045
 1738W        W17207   5.000   4.782   2.801  0.0189 -0.0875  0.1642
 1739W        W17208   8.579   7.907  14.543 -0.2602 -0.3164  0.1613
 1740W        W17209   5.332   4.011  10.534  0.0130  0.0833  0.1644
 1741W        W17210  12.418   9.702  11.872 -0.2254 -0.0980  0.0429
 1742W        W17211   0.534   9.213  11.237 -0.0007 -0.0702  0.0553
 1743W        W17212   2.852   5.510   0.549 -0.3608  0.0524 -0.0758
 1744W        W17213   6.681  14.846   4.599  0.1079 -0.0255 -0.2184
 1745W        W17214  11.708  13.156  15.677  0.2567  0.1237  0.2341
 1746W        W17215  16.994   6.773  11.618 -0.1474 -0.2203  0.0809
 1747W        W17216  14.494  14.971  14.606  0.2726 -0.1670  0.2042
 1748W        W17217  16.106   9.623   3.386  0.2689  0.1993 -0.2133
 1749W        W17218   0.320  16.689   4.393 -0.2777 -0.0160  0.0905
 1750W        W17219   1.575  16.671  13.092 -0.1836 -0.1186 -0.0805
 1751W        W17220  11.605   5.031  12.301 -0.3524 -0.0839 -0.1060
 1752W        W17221  10.005   2.082   4.410 -0.0924 -0.0467 -0.1385
 1753W        W17222  16.846   1.544  12.287 -0.0441  0.2802 -0.3718
 1754W        W17223  14.065  13.290  11.180 -0.1395  0.2087  0.1727
 1755W        W17224   5.264   9.363  13.115  0.0511  0.2648  0.2451
 1756W        W17225   6.795  15.215  10.478  0.1606 -0.3373 -0.2951
 1757W        W17226  16.312   2.963   5.070 -0.3602  0.2712  0.1167
 1758W        W17227   2.592  13.433   1.301 -0.0444  0.1586 -0.4138
 1759W        W17228  11.762  11.283   1.924  0.0101 -0.2557  0.1911
 1760W        W17229   1.839   5.223   4.220 -0.0107  0.1300 -0.0515
 1761W        W17230  12.626  13.827   0.343  0.0806  0.1443  0.1748
 1762W        W17231  17.659  14.223  15.698  0.0752 -0.0429  0.2014
 1763W        W17232   4.528  17.447  13.956  0.0446  0.0900  0.2594
 1764W        W17233  10.446   7.380  11.614 -0.0334  0.0690  0.0864
 1765W        W17234  15.642   7.208   0.558  0.0013  0.1769  0.1148
 1766W        W17235   3.866   3.417   5.425 -0.1218  0.1057  0.0488
 1767W        W17236  17.747  15.439   3.331 -0.3586 -0.1210  0.3026
 1768W        W17237  12.631   9.666   5.502 -0.1049  0.3771 -0.1815
 1769W        W17238   0.521  10.090   1.138 -0.1198  0.0840 -0.1771
 1770W        W17239  13.856   3.402   4.640 -0.1386 -0.1528 -0.2501
 1771W        W17240  17.733  13.506  12.022 -0.1445 -0.0070 -0.0321
 1772W        W17241   8.231   7.034   0.659  0.3171  0.0611  0.0930
 1773W        W17242  13.591  10.722   1.648  0.2211  0.0567 -0.0885
 1774W        W17243   8.559   8.911   2.943  0.1895  0.0567 -0.2136
 1775W        W17244  12.863   4.434   2.904 -0.1060  0.1739 -0.0351
 1776W        W17245   6.013   3.030   4.797 -0.2537 -0.0442  0.0424
 1777W        W17246   7.239  17.340  14.869  0.4129 -0.2579 -0.0749
 1778W        W17247   0.746   2.627  13.590  0.1384 -0.2452 -0.0842
 1779W        W17248   1.084  17.652   3.593  0.0050  0.0092  0.0800
 1780W        W17249  12.120   5.791  12.050 -0.1013  0.0264 -0.3801
 1781W        W17250  14.584   5.610   2.708 -0.0338  0.1965 -0.1744
 1782W        W17251   7.951   0.763   4.832  0.0788 -0.2693  0.0988
 1783W        W17252  17.008  14.584   2.156 -0.0235 -0.0307 -0.0639
 1784W        W17253   6.470  15.895  15.919 -0.2266  0.0217  0.0234
 1785W        W17254  14.949  14.515  13.429 -0.3189 -0.1875  0.1063
 1786W        W17255   2.876   9.921   2.163 -0.1050  0.1839 -0.0800
 1787W        W17256  12.154   5.211   6.101 -0.0629 -0.1993 -0.3145
 1788W        W17257  12.545   8.787   5.598  0.2423 -0.0115  0.0860
 1789W        W17258   3.436   0.299   4.419 -0.2003  0.4926  0.2290
 1790W        W17259  10.703   3.860  12.410  0.0162  0.1534 -0.1864
 1791W        W17260   1.948  14.232  13.137  0.1913 -0.2560 -0.0504
 1792W        W17261  13.441   0.669   1.033  0.1547  0.0999  0.0663
 1793W        W17262  10.671  12.952   2.880 -0.0951 -0.1217 -0.1203
 1794W        W17263   3.782  12.449  13.052 -0.1635  0.1143 -0.0117
 1795W        W17264  10.575  13.212   1.992  0.4617  0.1416 -0.0192
 1796W        W17265   4.428   6.773   2.756  0.4629  0.1324  0.1019
 1797W        W17266  14.844   2.701   4.608 -0.0292  0.0829  0.1938
 1798W        W17267   0.267   4.672  13.520 -0.3084  0.2350  0.2238
 1799W        W17268  17.159   9.495  14.552 -0.1288  0.0920 -0.1563
 1800W        W17269  14.540   9.626   4.026 -0.2436  0.0290 -0.2841
 1801W        W17270  15.545  14.019   1.762 -0.2745 -0.0328 -0.1081
 1802W        W17271  11.058   1.531  11.257  0.0846  0.2463  0.4590
 1803W        W17272  14.522   4.213  11.018  0.2902 -0.3268  0.4632
 1804W        W17273   2.739  12.176  10.496  0.1007 -0.0375 -0.0718
 1805W        W17274  17.027   2.686  14.505  0.0511 -0.2282 -0.0672
 1806W        W17275   1.945  11.515   5.371  0.1432 -0.2157  0.1483
 1807W        W17276   0.133   9.764   4.863  0.2314 -0.0257 -0.0916
 1808W        W17277  14.372  15.482  16.079  0.2973 -0.2959  0.0294
 1809W        W17278   4.678  11.704   2.579 -0.1445  0.0063 -0.1178
 1810W        W17279   9.268  16.787  14.477 -0.1370  0.0521 -0.3262
 1811W        W17280   4.982   8.931   3.080 -0.1658 -0.1952  0.2388
 1812W        W17281  10.453   3.101   5.453  0.0728 -0.1399 -0.0198
 1813W        W17282   4.824  18.076  11.803 -0.2904 -0.0795 -0.1462
 1814W        W17283  13.567   0.146   4.580 -0.0801  0.2325  0.0065
 1815W        W17284   2.804   2.022   1.558 -0.0566  0.0895 -0.1772
 1816W        W17285   1.148  10.888  14.940 -0.1241  0.2964  0.1467
 1817W        W17286   7.099  11.229  10.567 -0.2614  0.1793  0.4361
 1818W        W17287   7.803   3.024  14.266 -0.0169 -0.0612 -0.2400
 1819W        W17288   3.770   6.534   1.877  0.0367  0.1690  0.1186
 1820W        W17289  15.086  12.697   4.611  0.1169  0.0177 -0.0422
 1821W        W17290  15.166   4.902   2.728  0.0541  0.0963 -0.0190
 1822W        W17291   1.803   2.535   2.353 -0.3823 -0.0496 -0.0301
 1823W        W17292   3.632   4.666  11.570 -0.1243  0.3016  0.0852
 1824W        W17293  13.697   7.940   3.878 -0.1291  0.1635 -0.3832
 1825W        W17294   8.329  17.027   5.180 -0.0773 -0.1429  0.3213
 1826W        W17295  15.047   4.441  14.221 -0.0591 -0.1229 -0.0122
 1827W        W17296   0.981  13.440  13.679 -0.1662  0.2689 -0.1077
 1828W        W17297   1.231  14.947   2.965  0.2082 -0.0408 -0.1366
 1829W        W17298   4.272  10.474   2.911 -0.1336  0.0278  0.1097
 1830W        W17299  10.174  17.699  13.998  0.0491  0.2625  0.1332
 1831W        W17300  18.099  11.101   2.837  0.2194 -0.0804 -0.0060
 1832W        W17301  10.553   3.967  14.090  0.0058 -0.0513 -0.1953
 1833W        W17302   9.336   8.065  13.694  0.2349  0.0981  0.0507
 1834W        W17303  12.387  12.564   0.121  0.1335 -0.2677 -0.1393
 1835W        W17304   3.206  13.950  14.310  0.0258 -0.1086 -0.0141
 1836W        W17305  11.235   6.235   2.970 -0.2296  0.1328 -0.0166
 1837W        W17306   6.912   6.259  14.790  0.1088 -0.2708 -0.1936
 1838W        W17307   4.353   9.981  10.531  0.1531  0.4310 -0.2397
 1839W        W17308  17.276  15.306   5.432 -0.0552  0.1397 -0.0398
 1840W        W17309   4.501   0.349   3.312 -0.0658  0.0409 -0.0981
 1841W        W17310   4.402   1.155  12.148  0.3725  0.0000 -0.0497
 1842W        W17311   9.778   9.048   2.460  0.0268 -0.3086  0.0674
 1843W        W17312   1.762  12.564   1.486  0.1775 -0.1775  0.0285
 1844W        W17313  16.290  16.469  11.791  0.1789  0.1682 -0.0349
 1845W        W17314   7.921  11.836   0.071 -0.1466  0.0179 -0.1626
 1846W        W17315  16.847   8.644   3.260  0.2179  0.1384 -0.1353
 1847W        W17316   5.894  14.263  12.752 -0.2265  0.1629 -0.0488
 1848W        W17317   1.928   1.921   4.411  0.2516 -0.0244  0.0862
 1849W        W17318  16.597  11.721   5.609 -0.1087 -0.2704  0.1827
 1850W        W17319   2.266   3.339   4.251 -0.0180 -0.4053 -0.1388
 1851W        W17320   5.247  17.165  13.620  0.0997 -0.2828 -0.1671
 1852W        W17321  10.726  14.198  13.620  0.3580 -0.0022 -0.1918
 1853W        W17322   9.685   0.455  13.452  0.1296 -0.0244 -0.0049
 1854W        W17323   0.071  10.043  15.945 -0.1636  0.1233  0.0775
 1855W        W17324   0.693   5.980  16.043  0.0712 -0.4168  0.1641
 1856W        W17325   4.763   2.052  15.066  0.3365  0.1390  0.4181
 1857W        W17326  17.735   3.157   6.376 -0.0106 -0.1005 -0.2462
 1858W        W17327  16.553  10.157  11.330  0.0329 -0.1069  0.1133
 1859W        W17328  10.959   4.162  15.597  0.2534 -0.0828  0.1411
 1860W        W17329   0.956  15.074  14.270 -0.2515 -0.0073 -0.4596
 1861W        W17330   7.855   5.518  13.090  0.1576 -0.2592  0.1608
 1862W        W17331   3.967   9.337  15.083  0.0246  0.2458 -0.3592
 1863W        W17332  14.834   8.189   1.077 -0.1257 -0.2277 -0.2297
 1864W        W17333   4.159   5.851  11.472 -0.1157  0.1266  0.1738
 1865W        W17334   6.906   2.313  14.347  0.0111 -0.0302 -0.1602
 1866W        W17335  13.943   8.901  10.445 -0.0739  0.2712  0.0373
 1867W        W17336  14.692   3.134   4.488 -0.0637 -0.2869 -0.0278
 1868W        W17337   9.289   3.702  11.589  0.0498  0.0195  0.0262
 1869W        W17338   4.380  14.820  15.395  0.0310  0.0275 -0.3131
 1870W        W17339   6.908   0.185   3.599  0.2260  0.0040  0.0201
 1871W        W17340  17.583  16.268   5.698 -0.1754 -0.0839  0.2087
 1872W        W17341   7.843  14.171  14.075 -0.0363 -0.0916 -0.1998
 1873W        W17342   2.359   5.879   3.892 -0.3419  0.0138 -0.0167
 1874W        W17343  12.764  12.829  13.118  0.0942 -0.1777  0.1757
 1875W        W17344   6.728  12.296  15.704  0.0344 -0.1153  0.0585
 1876W        W17345   5.297   2.239  11.838 -0.1213  0.1431  0.1192
 1877W        W17346   8.333   0.840   2.054  0.0281  0.2317 -0.1451
 1878W        W17347   5.623   6.619  10.247  0.0673 -0.1563 -0.1147
 1879W        W17348   4.812   1.481   0.345  0.2159 -0.1361  0.0260
 1880W        W17349   5.793   7.534   1.597  0.1630 -0.1463 -0.0141
 1881W        W17350  14.649   8.087   3.009  0.2099  0.3101  0.2859
 1882W        W17351  13.927  13.227   0.603 -0.2493 -0.0289 -0.1632
 1883W        W17352   3.622  17.201   5.752  0.0222  0.0947  0.0194
 1884W        W17353  12.663   4.372   4.587 -0.0206 -0.1842  0.0413
 1885W        W17354   6.525  11.560  14.287 -0.0260 -0.0493 -0.1212
 1886W        W17355   4.057  15.544  13.352  0.2811 -0.0517 -0.0649
 1887W        W17356   4.017  10.661  11.048 -0.1489  0.0942 -0.1259
 1888W        W17357   4.529   5.379  11.244 -0.0067  0.0260 -0.1038
 1889W        W17358   3.878   9.799  12.599  0.0224  0.1836  0.0215
 1890W        W17359   8.701   6.556  11.276 -0.0278 -0.1402  0.0139
 1891W        W17360  14.855   2.586   3.138  0.3799  0.2915  0.2347
 1892W        W17361  11.199  10.127  12.094  0.0413  0.0310  0.2301
 1893W        W17362   8.635   0.785   3.371 -0.0143 -0.0915  0.2821
 1894W        W17363   4.670  11.702  13.399 -0.1110  0.3860 -0.0312
 1895W        W17364  17.513  12.089  11.405  0.0669 -0.1477 -0.0038
 1896W        W17365   1.681   6.960  13.924  0.2149  0.1746  0.0266
 1897W        W17366   6.950   5.962  13.826 -0.1705 -0.0547  0.1978
 1898W        W17367   0.991   8.046  12.649  0.0034 -0.4552  0.2174
 1899W        W17368  17.030  13.645   1.642 -0.0441  0.1020  0.0295
 1900W        W17369  18.166   7.501   5.066  0.0813 -0.1461 -0.0839
 1901W        W17370   2.515   1.130  11.081  0.1056 -0.2965  0.0784
 1902W        W17371   0.001  17.571  13.670  0.0377  0.0742  0.1537
 1903W        W17372   5.915   2.548   5.068  0.0620  0.2794 -0.1024
 1904W        W17373   5.901  15.694  14.524 -0.1561  0.1491  0.2253
 1905W        W17374  16.207   0.389   2.434  0.0446  0.0362 -0.2079
 1906W        W17375  13.059   0.024   4.588 -0.0058  0.1974 -0.0008
 1907W        W17376   6.935  10.829   4.676 -0.2717 -0.0206 -0.0666
 1908W        W17377  16.347  18.271  14.992 -0.2757  0.0958 -0.2430
 1909W        W17378  15.532  17.383  12.414  0.1285 -0.0379  0.1211
 1910W        W17379  17.125  15.688  15.961  0.1073 -0.1048 -0.0932
 1911W        W17380  13.857   0.295  15.748 -0.1360 -0.0648 -0.0109
 1912W        W17381   6.436  15.208   0.224 -0.0634  0.0270  0.1382
 1913W        W17382   3.272  14.649   0.012 -0.2624 -0.1289 -0.1732
 1914W        W17383   6.166   5.658   4.522  0.0468  0.3582  0.4412
 1915W        W17384  10.772   7.905  13.958  0.1438  0.1870 -0.1408
 1916W        W17385   3.521   2.132  15.126 -0.0996  0.2614 -0.0888
 1917W        W17386   7.769   5.994   1.214  0.0857  0.0999 -0.0140
 1918W        W17387   0.827   6.577   2.415  0.0917  0.2602  0.0630
 1919W        W17388  11.810  14.826   3.257 -0.2336 -0.2241 -0.0022
 1920W        W17389   0.888   6.347  12.548  0.0456 -0.0403 -0.1202
 1921W        W17390   2.593   2.043   2.610 -0.0646 -0.0756 -0.2144
 1922W        W17391   1.434   9.914   4.426 -0.3866  0.2782 -0.1107
 1923W        W17392   0.691  14.576   0.744  0.0581 -0.0757 -0.1717
 1924W        W17393  13.471  11.897   4.286  0.1419  0.1225 -0.0195
 1925W        W17394  13.703  14.742   0.221 -0.0640  0.0624  0.1089
 1926W        W17395   0.073   8.888   2.672 -0.0377  0.5108  0.1946
 1927W        W17396  11.864   0.574   3.359  0.0183  0.0295 -0.0229
 1928W        W17397   4.221  10.638  11.592  0.1016  0.1154  0.0854
 1929W        W17398  13.493  18.177   0.734  0.0597  0.0542  0.0185
 1930W        W17399  12.071  15.015  13.265  0.2262 -0.1660  0.0928
 1931W        W17400   9.284  12.328   2.771  0.1613  0.0506  0.2550
 1932W        W17401   8.873   0.392   9.779 -0.1698  0.0257  0.0107
 1933W        W17402  14.895   3.530   2.416 -0.0289 -0.0565  0.1010
 1934W        W17403   7.912  16.655   4.722  0.1780 -0.1065  0.0580
 1935W        W17404  15.818  10.719  14.745  0.1055 -0.0925  0.0979
 1936W        W17405  14.345   4.919  11.151 -0.0027  0.1314  0.0516
 1937W        W17406   1.653  16.509   2.100 -0.3113 -0.5042 -0.1964
 1938W        W17407  15.673   5.003  15.829  0.0806 -0.1361  0.1054
 1939W        W17408   6.141   6.405  14.174  0.1427  0.0495 -0.0502
 1940W        W17409  10.947  11.555   0.412  0.1345 -0.1713  0.2330
 1941W        W17410   5.063   9.775  11.887  0.0378 -0.0034  0.2181
 1942W        W17411  13.394  13.526  12.557  0.0356 -0.2374 -0.1303
 1943W        W17412   5.810   3.708   2.168 -0.0612 -0.1775  0.0713
 1944W        W17413   9.269  11.199  12.690 -0.2647 -0.0460 -0.1645
 1945W        W17414  16.380   8.754  15.137 -0.2610  0.0947  0.2730
 1946W        W17415   9.396  14.693   3.463 -0.2134  0.4247  0.0692
 1947W        W17416   8.179  12.934   1.860 -0.0608 -0.2880  0.0999
 1948W        W17417   0.261  10.980   3.579 -0.0283  0.2661 -0.1997
 1949W        W17418   7.520   1.285   2.156 -0.2588  0.1461  0.3097
 1950W        W17419   9.797   3.627  12.363 -0.4445 -0.1896  0.0870
 1951W        W17420  14.092   7.244   1.502  0.0917  0.3373 -0.3725
 1952W        W17421   1.191   7.424   3.046  0.1208 -0.0478  0.3017
 1953W        W17422  15.330   0.190   2.219  0.1765  0.1545 -0.2031
 1954W        W17423  14.471   4.481  13.962 -0.0397  0.1796  0.1271
 1955W        W17424  15.473   0.860  10.369  0.1524 -0.0759  0.1792
 1956W        W17425  11.315  15.104  14.246 -0.1347 -0.1098  0.0139
 1957W        W17426  15.998  10.019  10.097 -0.1274 -0.0216  0.1783
 1958W        W17427   0.027  12.225  11.758 -0.1584  0.0359  0.3723
 1959W        W17428  15.247  16.939  14.072  0.0806 -0.0435  0.2456
 1960W        W17429   9.588  12.244  15.971  0.0109  0.0548  0.1550
 1961W        W17430  13.319  15.174  12.064 -0.0454 -0.3317  0.0041
 1962W        W17431  11.976   8.587   1.542 -0.1599 -0.2005  0.1649
 1963W        W17432  18.021  10.135  14.552  0.0184  0.0020 -0.0756
 1964W        W17433   0.573   9.974   2.959  0.0459  0.0822 -0.0204
 1965W        W17434  10.243  10.179  16.060  0.1590  0.0644  0.1318
 1966W        W17435  15.082  12.669  12.271  0.0046 -0.1137 -0.1040
 1967W        W17436   5.866   7.471   3.295 -0.0360  0.0523  0.1033
 1968W        W17437  17.048   7.788   3.603  0.1304 -0.1494 -0.0382
 1969W        W17438   0.825   6.037   2.596  0.4830 -0.1122 -0.1044
 1970W        W17439  12.621   7.089   6.072  0.2649 -0.0003 -0.1237
 1971W        W17440   5.775   9.389  13.365  0.1444 -0.0114  0.0197
 1972W        W17441  15.994  13.878  15.355 -0.2332  0.2934 -0.0744
 1973W        W17442   9.368  17.943  15.704 -0.0482  0.2151  0.2056
 1974W        W17443  14.169  10.063  15.243  0.1365 -0.1248 -0.1711
 1975W        W17444   9.785  14.069   1.249 -0.1521  0.2603  0.1252
 1976W        W17445   7.557   3.088   5.169  0.1983 -0.0267  0.0775
 1977W        W17446  16.135   4.402  10.716  0.1824 -0.0717 -0.0679
 1978W        W17447   3.461  12.124   1.220 -0.3252  0.2891  0.0328
 1979W        W17448  10.740   1.369   1.586 -0.2166 -0.0817  0.1412
 1980W        W17449  12.470   6.513  15.237  0.3651 -0.1066 -0.1959
 1981W        W17450   0.192   4.256   2.089 -0.1808  0.0691  0.2704
 1982W        W17451  16.349  11.187  13.443 -0.1616  0.1116 -0.4244
 1983W        W17452   8.815  16.043  14.020 -0.1478  0.0696 -0.4034
 1984W        W17453   0.775   4.704  13.325 -0.0391  0.1419  0.0811
 1985W        W17454  10.677  14.701  15.410  0.1092  0.0500  0.0968
 1986W        W17455   4.016   7.597   0.583  0.2840  0.1927  0.1126
 1987W        W17456  17.937  13.941   0.414  0.2617 -0.0292  0.0855
 1988W        W17457   0.096  16.525   3.105 -0.1746  0.4606  0.2290
 1989W        W17458   0.823   9.284  11.953 -0.1326  0.0251 -0.2033
 1990W        W17459   7.973  12.510   3.198  0.0379  0.0649  0.1018
 1991W        W17460   9.702   5.136   2.601 -0.0440  0.0740 -0.0820
 1992W        W17461  10.251   5.499   2.413 -0.2033 -0.0118  0.0167
 1993W        W17462   3.801  16.001  11.828  0.0163  0.1878  0.0126
 1994W        W17463  16.652   3.816   1.441 -0.0768  0.1009  0.0505
 1995W        W17464  12.775   0.145  13.496  0.0386  0.3453 -0.0269
 1996W        W17465  18.101   8.775   2.223  0.0541  0.1985  0.2793
 1997W        W17466  14.579   1.927  14.634 -0.2950  0.2188  0.2924
 1998W        W17467  15.549   6.634  14.975 -0.0665 -0.1137  0.0470
 1999W        W17468   4.997   5.328  11.891 -0.4038 -0.1941  0.0430
 2000W        W17469   5.857   4.972  14.487 -0.0685  0.0508 -0.1529
 2001W        W17470   4.661   7.136   4.715  0.0229 -0.1447  0.1025
 2002W        W17471  17.375   8.913   0.233  0.3427 -0.3789  0.1632
 2003W        W17472  17.110   2.186  14.712 -0.0158  0.1294  0.2958
 2004W        W17473  14.391   6.810   2.287 -0.1409  0.2647  0.3828
 2005W        W17474   0.155   7.570  10.794  0.1883 -0.1555  0.0018
 2006W        W17475  10.327  15.914  12.166 -0.0043 -0.2058  0.6454
 2007W        W17476   4.193   9.337   4.244 -0.0989  0.1464 -0.1644
 2008W        W17477  16.556  13.386   1.441  0.5751  0.2221 -0.0563
 2009W        W17478  17.426  10.286   4.743  0.2263  0.0704 -0.1834
 2010W        W17479   1.125   1.821  13.740 -0.2096  0.0975 -0.2433
 2011W        W17480   0.999  15.397   4.112 -0.1085  0.2105  0.1612
 2012W        W17481   5.786  13.263  12.511 -0.0003 -0.2063 -0.0980
 2013W        W17482  15.864   8.106  14.595  0.0348 -0.1773 -0.0243
 2014W        W17483   0.299  15.026   4.531 -0.1558  0.1565 -0.0291
 2015W        W17484  12.374  17.422   5.002 -0.1840 -0.1942 -0.0810
 2016W        W17485   3.678   7.173   3.609  0.1986  0.2360 -0.1460
 2017W        W17486   9.869   7.879   1.285  0.0608  0.0382  0.2427
 2018W        W17487   5.520   3.040   6.079  0.0122 -0.2103  0.0402
 2019W        W17488  13.037   1.421   3.844 -0.0025  0.2719 -0.2292
 2020W        W17489   6.523   5.832   1.565 -0.3605 -0.3995 -0.1651
 2021W        W17490   0.183  13.761   3.921  0.0793  0.0694 -0.1227
 2022W        W17491   8.865   2.752   5.205 -0.1726 -0.2414  0.4339
 2023W        W17492   1.710  15.466  13.235 -0.1380 -0.0707  0.1461
 2024W        W17493  12.972   8.402   4.025 -0.0371  0.0886  0.0098
 2025W        W17494   2.834   5.657  13.910  0.0301 -0.0138 -0.0839
 2026W        W17495  17.902   7.520  12.219  0.1715  0.1153  0.1801
 2027W        W17496   3.537  14.639   1.452 -0.1198  0.1625  0.0174
 2028W        W17497  14.707   7.817   1.410  0.2158  0.3745 -0.0835
 2029W        W17498   5.185   1.629  16.012 -0.1262 -0.0574 -0.1901
 2030W        W17499  16.139   6.052   3.062 -0.1976 -0.1570 -0.0426
 2031W        W17500   8.648   8.815   0.374  0.1134 -0.3006 -0.2809
 2032W        W17501   2.157   7.463   4.984 -0.2299 -0.2851 -0.1241
 2033W        W17502   9.947   9.547   3.797 -0.1227 -0.1597  0.0377
 2034W        W17503   2.674   4.286   0.352 -0.1215 -0.0709 -0.0989
 2035W        W17504  16.721  17.995  15.369  0.0413 -0.0539 -0.0805
 2036W        W17505  14.557   8.129   0.225  0.0781 -0.1386  0.0867
 2037W        W17506  16.708  10.068   5.887  0.0066  0.0101 -0.0727
 2038W        W17507   4.633  10.245  15.426  0.1366 -0.1726  0.0714
 2039W        W17508  11.167  16.293   2.216  0.2610 -0.0217  0.0833
 2040W        W17509  12.295   1.534  15.240 -0.2221 -0.1186  0.1336
 2041W        W17510   2.470  15.087   4.116  0.1798 -0.3900 -0.0519
 2042W        W17511   9.831  13.664   3.576  0.1197 -0.2733 -0.0636
 2043W        W17512   9.048   9.124  11.768  0.0127  0.0014 -0.3208
 2044W        W17513   0.690   2.050  14.262 -0.1350 -0.0232  0.3969
 2045W        W17514   3.790  10.080   4.392  0.0557  0.2560  0.4267
 2046W        W17515   8.522   1.854  15.505  0.0717  0.1461 -0.2460
 2047W        W17516   1.982   9.173  14.470 -0.0992  0.1858 -0.3123
 2048W        W17517  17.263   9.089   2.822  0.0307  0.0900 -0.2299
 2049W        W17518   4.115  15.280  13.807 -0.1433 -0.1229 -0.0138
 2050W        W17519  14.529  15.762  10.998 -0.2667  0.0938 -0.2181
 2051W        W17520  12.315  16.185  11.116 -0.2186 -0.3398 -0.0271
 2052W        W17521   6.705   0.893  11.487  0.3770 -0.1835  0.2476
 2053W        W17522  14.898  12.264   5.265 -0.0569  0.2766 -0.1146
 2054W        W17523  10.921  10.837  11.469 -0.0997  0.1026  0.0154
 2055W        W17524  12.662   2.684  14.114 -0.4697  0.0125  0.0734
 2056W        W17525   4.240  11.443   1.196 -0.0954  0.0490 -0.0287
 2057W        W17526  14.224   4.880  13.499  0.1045  0.0146 -0.1044
 2058W        W17527   9.195   3.103  14.273 -0.2407 -0.1612 -0.1797
 2059W        W17528   1.399   8.693  11.119  0.2236 -0.0266 -0.1537
 2060W        W17529  12.873   5.122   2.070 -0.1898 -0.2823 -0.0658
 2061W        W17530  10.559   3.626   5.350  0.2906  0.1267  0.2616
 2062W        W17531   2.969  13.471  11.746 -0.1061  0.2266 -0.1138
 2063W        W17532   0.350  10.875  15.490 -0.0102  0.1222  0.0162
 2064W        W17533   8.437   1.825  12.359 -0.0073 -0.1725 -0.0925
 2065W        W17534  10.831   4.128   4.259 -0.0909 -0.2143 -0.1442
 2066W        W17535  17.025  18.122   6.059 -0.1535 -0.2138  0.4937
 2067W        W17536   0.567   1.827   4.711 -0.1619  0.0750  0.0895
 2068W        W17537  11.817   1.631  14.393  0.2172 -0.3015 -0.0991
 2069W        W17538   0.992   3.847   1.149  0.0732  0.1011 -0.2796
 2070W        W17539  16.046   6.903   1.388 -0.2885 -0.3772  0.1110
 2071W        W17540   9.942   5.013  11.319 -0.0794 -0.3104  0.0572
 2072W        W17541   7.946  13.383   3.726  0.1550 -0.2757 -0.3627
 2073W        W17542   0.161   0.927   0.017 -0.2576  0.1731 -0.0144
 2074W        W17543   2.587  17.661   3.948 -0.0426  0.0579  0.2207
 2075W        W17544   0.411   3.766  15.600 -0.1145 -0.1452 -0.0067
 2076W        W17545   9.403   6.278   9.854  0.3439  0.2120  0.2038
 2077W        W17546   9.318  18.262  12.349  0.0367 -0.0232  0.0774
 2078W        W17547   9.682   1.265  15.126 -0.0060 -0.2235 -0.0615
 2079W        W17548  12.861  15.769   3.318  0.1985 -0.4326  0.2752
 2080W        W17549  13.596  16.532   2.471 -0.2338 -0.3173  0.0617
 2081W        W17550  14.052  15.469   4.001  0.1374 -0.1137  0.2209
 2082W        W17551   4.500   6.297   1.178 -0.0080  0.2154 -0.3382
 2083W        W17552  16.021  12.810  11.996  0.1072  0.1761 -0.0088
 2084W        W17553   2.714  16.256   5.526  0.1188 -0.0719  0.2106
 2085W        W17554   7.034  10.298  13.554  0.2003 -0.0985  0.3381
 2086W        W17555  17.053  18.228  10.786  0.0185 -0.1760  0.0533
 2087W        W17556   5.008   9.130   1.955  0.0048 -0.1368 -0.1108
 2088W        W17557   2.138  14.399   5.791  0.0153  0.4724  0.1095
 2089W        W17558  10.038   6.102   2.460 -0.1456 -0.0786 -0.0088
 2090W        W17559  13.964   2.813   5.446 -0.2995  0.1104 -0.1965
 2091W        W17560   6.201  13.636  13.707  0.4627 -0.4507  0.1125
 2092W        W17561  14.356  10.086  16.089  0.2291 -0.1207  0.0727
 2093W        W17562   6.933  16.584  12.270 -0.0486 -0.2264  0.3119
 2094W        W17563   8.436  12.670   2.515  0.2174 -0.0988  0.1622
 2095W        W17564  13.053   8.397  15.166  0.3114  0.0434 -0.0131
 2096W        W17565   0.864  10.565   0.616  0.1783 -0.0460 -0.1826
 2097W        W17566   1.523  13.750   1.063  0.5267  0.0284 -0.0758
 2098W        W17567   5.166   6.428  11.951 -0.2240 -0.0996  0.1235
 2099W        W17568   8.967  17.277   5.150  0.1398 -0.2238 -0.1634
 2100W        W17569   7.831   4.679   1.174 -0.0800 -0.2139 -0.3986
 2101W        W17570  16.821   3.301   1.438  0.0374  0.1462  0.2235
 2102W        W17571   9.711   9.077  13.219 -0.0354 -0.0884 -0.0788
 2103W        W17572  16.226   9.827   0.655  0.0008  0.0743  0.2504
 2104W        W17573   7.019  17.096   3.767  0.0091  0.0321 -0.0929
 2105W        W17574  10.603   0.331  13.891 -0.1890  0.0319 -0.0903
 2106W        W17575   3.880  15.636   5.170  0.0470 -0.0690 -0.0980
 2107W        W17576   9.076   4.335  12.863 -0.0187  0.0486  0.1468
 2108W        W17577   3.825   8.876  15.233 -0.1750 -0.0252  0.0222
 2109W        W17578   1.460   4.782  11.691 -0.0191 -0.0913 -0.1218
 2110W        W17579   7.416   7.783  12.625  0.2968 -0.0810 -0.0478
 2111W        W17580  10.222   5.706  14.559  0.0501  0.0237  0.3463
 2112W        W17581   5.082   4.386   9.693  0.1911 -0.0417  0.3156
 2113W        W17582   9.636   3.210   1.463  0.3069 -0.1049  0.0540
 2114W        W17583   4.451  12.070   5.687  0.1756 -0.2203  0.4015
 2115W        W17584  13.102  16.109  13.333 -0.1481 -0.0034  0.1006
 2116W        W17585   8.476   5.041   5.046  0.1883 -0.1338  0.0214
 2117W        W17586   9.352   8.153  11.523 -0.1074 -0.0635  0.1941
 2118W        W17587  10.431   8.604   0.819 -0.1038 -0.0310  0.0049
 2119W        W17588  12.096  17.594  14.416  0.3885 -0.1925 -0.1765
 2120W        W17589   4.451   9.386  12.970 -0.3620  0.0821 -0.0669
 2121W        W17590   0.522  13.076   3.631 -0.1302  0.0326  0.0951
 2122W        W17591  11.731   0.724  15.978 -0.1424 -0.0573 -0.0397
 2123W        W17592   1.198  10.155   0.481 -0.3349  0.1611  0.2668
 2124W        W17593  10.568   6.515  12.554 -0.2582  0.4219 -0.0917
 2125W        W17594   6.785   7.109   4.546  0.2459 -0.1666 -0.3707
 2126W        W17595   4.081  15.243   6.012 -0.2707  0.0885  0.0552
 2127W        W17596   6.610  14.501   4.156 -0.2658 -0.1416  0.0279
 2128W        W17597   4.136   2.370   2.263 -0.0322  0.1790  0.0799
 2129W        W17598   1.881   2.927   3.598 -0.0854 -0.0881  0.2543
 2130W        W17599  11.631   0.255  14.884  0.3202  0.1323  0.1609
 2131W        W17600  14.716  15.388   1.176 -0.0137 -0.0619  0.0527
 2132W        W17601  13.030   5.477  14.656  0.1211 -0.3667 -0.0893
 2133W        W17602  11.298   3.617  12.437  0.1703  0.0425 -0.0302
 2134W        W17603  16.440   7.659  13.079 -0.2089  0.2224  0.1082
 2135W        W17604   1.607   1.835  15.203  0.2171  0.2071  0.0909
 2136W        W17605  13.308  14.393  12.327  0.0768  0.1392  0.1166
 2137W        W17606   0.367  11.400   0.895 -0.1733 -0.2711  0.1669
 2138W        W17607  18.225  15.968   0.041  0.0209  0.0557 -0.0117
 2139W        W17608  14.004   3.051   1.480 -0.1419  0.5095 -0.1993
 2140W        W17609   4.664   4.727   2.335  0.0894 -0.0979 -0.0089
 2141W        W17610   2.652  16.737  12.944 -0.0385 -0.3278  0.0641
 2142W        W17611  11.108  15.989   4.418 -0.1422 -0.0887  0.4265
 2143W        W17612   9.852  10.584  14.145  0.1612 -0.1138  0.0009
 2144W        W17613   2.898   9.219  14.496 -0.0930 -0.0236 -0.0085
 2145W        W17614  14.014  16.721   3.978  0.0081 -0.1449  0.0645
 2146W        W17615   9.308   5.905   1.936 -0.2143 -0.1860 -0.3195
 2147W        W17616   9.468  12.835  11.328 -0.1073  0.2109  0.1431
 2148W        W17617  15.398  14.340  13.253 -0.1367 -0.0466 -0.1062
 2149W        W17618  16.445   1.159   2.244  0.1026 -0.0518  0.0622
 2150W        W17619  15.318   4.428   2.544 -0.3479  0.0621  0.2628
 2151W        W17620   2.295  11.045  11.058 -0.0972 -0.4232 -0.2695
 2152W        W17621  16.512   4.302   1.519  0.0325  0.1828 -0.0869
 2153W        W17622  15.383   7.359   0.166 -0.1670  0.0946  0.1495
 2154W        W17623   9.491   8.898   1.541 -0.3196  0.3102 -0.0672
 2155W        W17624   7.724   3.627   2.726 -0.0373 -0.1021  0.0233
 2156W        W17625   6.544  17.025  11.870  0.0593  0.1655  0.2813
 2157W        W17626   2.311   0.342  13.132 -0.4273  0.0264  0.0375
 2158W        W17627  15.872  13.255  13.215  0.1709  0.0117  0.0010
 2159W        W17628  12.733  14.774   6.265 -0.0171 -0.0801 -0.0049
 2160W        W17629   9.504  14.993  11.447  0.0915 -0.1957  0.0659
 2161W        W17630   3.110   5.169  15.586 -0.1120  0.1164 -0.3146
 2162W        W17631  10.653   5.868   3.602  0.0963 -0.2522 -0.1029
 2163W        W17632   2.598   0.926  14.308 -0.0675  0.0131 -0.1488
 2164W        W17633  16.327   9.218  11.020 -0.2473  0.0407 -0.1698
 2165W        W17634  13.417   4.232   1.337  0.0305  0.0679 -0.1104
 2166W        W17635   1.795   9.440   4.335  0.0127 -0.2991  0.0558
 2167W        W17636   1.483   9.235  14.787 -0.0697  0.3490  0.4626
 2168W        W17637   3.767  13.698  11.573  0.1391  0.1474 -0.0651
 2169W        W17638   0.843   3.418  15.786  0.0167  0.0204  0.0531
 2170W        W17639   3.028   2.985   4.451 -0.2469 -0.0990  0.1179
 2171W        W17640   5.679   6.709  11.651  0.4568 -0.1336 -0.1328
 2172W        W17641  12.593   3.653   5.045 -0.0125  0.0307 -0.3076
 2173W        W17642  13.225   9.967   2.589 -0.0344  0.0192 -0.1822
 2174W        W17643   5.227  17.997   4.616 -0.2266 -0.0564  0.3700
 2175W        W17644  14.628   9.616   1.159  0.0939 -0.1000  0.1418
 2176W        W17645   1.929  12.080  11.056 -0.2704  0.0345  0.0659
 2177W        W17646  16.433   4.738   1.274  0.2994 -0.1313 -0.3195
 2178W        W17647   2.809  11.097  15.289  0.1391 -0.1822  0.0003
 2179W        W17648   5.195   3.830   3.306  0.0836 -0.1021 -0.3809
 2180W        W17649  15.316  12.071  15.269  0.1866  0.0893  0.0330
 2181W        W17650   0.705   9.481  14.113 -0.2516  0.0622  0.2247
 2182W        W17651  17.319  15.057  14.407 -0.0769  0.0758 -0.2924
 2183W        W17652   2.712  14.782   2.559 -0.0189  0.1368 -0.0872
 2184W        W17653   0.336   7.045  14.272  0.0175  0.3658 -0.1979
 2185W        W17654   8.425  12.532   6.009 -0.1975  0.0727 -0.2395
 2186W        W17655   8.963  12.580  13.559  0.0186  0.1041  0.1803
 2187W        W17656   6.542  18.171   5.693 -0.0566  0.0245  0.0402
 2188W        W17657   2.617   6.269   3.739 -0.1745 -0.1370  0.1975
 2189W        W17658   5.858   1.951   2.368  0.2149 -0.2334  0.0916
 2190W        W17659  15.883   5.551  13.385  0.0095  0.1035  0.1236
 2191W        W17660  14.177  13.303   1.061  0.2292  0.1092  0.0873
 2192W        W17661   7.891  17.504   2.286  0.1136  0.0931  0.0240
 2193W        W17662   0.749   1.980   3.831  0.2892 -0.1726 -0.0929
 2194W        W17663   6.016   6.322   2.220 -0.0032 -0.1496  0.0116
 2195W        W17664  11.869   3.311   0.199 -0.0142  0.1982  0.1543
 2196W        W17665   9.570   8.077   3.195  0.0220 -0.0351  0.0974
 2197W        W17666  10.752   3.654  13.207 -0.1552 -0.0175  0.2907
 2198W        W17667   3.711  15.788   2.907  0.0798  0.2096  0.0006
 2199W        W17668  10.591  11.697   5.891 -0.0172 -0.0627 -0.0360
 2200W        W17669   0.429   4.394  13.142  0.2864 -0.0616 -0.1037
 2201W        W17670   9.942   8.208  14.218  0.1147  0.2323 -0.0121
 2202W        W17671   3.533  15.310  15.561  0.1558  0.1732  0.3195
 2203W        W17672   7.739  13.207   2.806  0.0224  0.0408  0.2628
 2204W        W17673  15.075  13.946  12.074 -0.0334  0.1469 -0.0778
 2205W        W17674  13.580   6.159   4.617 -0.1094  0.3613 -0.1473
 2206W        W17675  12.349  11.949  12.842  0.3447 -0.0713 -0.2820
 2207W        W17676  12.393   4.263  10.919 -0.5102  0.1527 -0.0670
 2208W        W17677  15.813   0.091   3.872 -0.4301  0.0331  0.0950
 2209W        W17678   4.160  13.796  12.598  0.1195 -0.1482 -0.3870
 2210W        W17679   7.877  10.024   1.782  0.1143 -0.2220  0.2306
 2211W        W17680  13.518   9.146   4.385  0.0691 -0.2195  0.0486
 2212W        W17681   7.607   3.563   1.360 -0.0504  0.0931  0.2854
 2213W        W17682  13.319   5.358  12.083  0.0805  0.2999  0.0090
 2214W        W17683  12.015   9.883   5.163 -0.0510  0.0919  0.0383
 2215W        W17684   4.770  15.788  13.208 -0.1978  0.0256 -0.0632
 2216W        W17685   4.085  17.742  13.647 -0.1440  0.1711 -0.1104
 2217W        W17686   4.557   9.609  10.198  0.2323  0.2619 -0.3090
 2218W        W17687   2.761  12.019  14.077 -0.4258 -0.0975  0.1041
 2219W        W17688  15.863   6.340  12.154  0.0354 -0.0036  0.0289
 2220W        W17689  13.631   4.716   1.360 -0.0000  0.1251 -0.0611
 2221W        W17690  10.549   8.215   3.704  0.1487 -0.0204 -0.0495
 2222W        W17691   6.174   0.703   0.288  0.2236  0.1700  0.1231
 2223W        W17692   2.499   4.925   3.448  0.4388 -0.1188 -0.0688
 2224W        W17693   1.934  14.039  14.469 -0.1930  0.0454  0.0702
 2225W        W17694  15.182   0.352   2.710  0.2743 -0.2413  0.0976
 2226W        W17695   3.930  15.666  15.747 -0.0175  0.1430 -0.1005
 2227W        W17696   3.298   1.226   3.395  0.2710  0.2015  0.4168
 2228W        W17697  13.259   8.248   2.508  0.4940 -0.0108  0.1646
 2229W        W17698  12.231   3.989  11.828 -0.0148  0.0893 -0.2341
 2230W        W17699   2.644   2.784  15.944 -0.1088 -0.2565 -0.2677
 2231W        W17700  13.729  14.393   2.336 -0.1472  0.3023 -0.0397
 2232W        W17701   2.609   3.479   1.772  0.2474  0.1131 -0.0137
 2233W        W17702   6.808   5.352  11.816 -0.1540 -0.2809 -0.1618
 2234W        W17703   4.781   8.858  14.827  0.0823 -0.2624 -0.1093
 2235W        W17704   6.548  17.120   0.533  0.1046 -0.1171  0.1551
 2236W        W17705  11.567   5.015  10.336 -0.2231 -0.3416 -0.0763
 2237W        W17706   7.423   7.778  11.022 -0.2902 -0.1125  0.4552
 2238W        W17707   3.588   7.123  12.959 -0.3076  0.3370 -0.1032
 2239W        W17708  14.062   9.659  14.374 -0.1022  0.1406  0.1097
 2240W        W17709   9.612  11.891  13.286  0.3534 -0.1952 -0.1197
 2241W        W17710  17.561  16.848   3.761  0.4510  0.2195 -0.0299
 2242W        W17711  13.402  17.094   5.712 -0.0418  0.0669  0.1540
 2243W        W17712   0.812   0.766   0.932 -0.1222  0.1658 -0.0043
 2244W        W17713  17.750   1.630   0.230  0.4904 -0.1385  0.1450
 2245W        W17714   1.384   7.726   5.331 -0.0259  0.0425 -0.1592
 2246W        W17715   1.281   5.470   4.619  0.0063 -0.2061  0.3425
 2247W        W17716   7.239  12.902   4.079 -0.3034  0.1560  0.0681
 2248W        W17717  11.094   4.926   0.073 -0.1217  0.0643  0.2118
 2249W        W17718  13.087   6.304   3.674 -0.0365  0.0950 -0.0671
 2250W        W17719  13.240  15.227  14.870  0.0773  0.1533  0.0440
 2251W        W17720  14.779   7.738   3.882 -0.0033 -0.4334  0.0673
 2252W        W17721   9.508   0.101  10.264  0.1180  0.1200  0.4431
 2253W        W17722  15.270  13.487   5.298  0.0570 -0.0805 -0.0041
 2254W        W17723  12.084  10.211   3.663 -0.1500  0.0409  0.1252
 2255W        W17724   9.821   4.099   1.010 -0.1842 -0.1425  0.0521
 2256W        W17725   5.951   3.650  14.639  0.2383  0.0128 -0.1747
 2257W        W17726  10.008  10.215  10.689 -0.0461  0.2216 -0.2094
 2258W        W17727   3.862   8.526  12.309 -0.1669 -0.0050 -0.1192
 2259W        W17728   3.671  14.633   2.371  0.2406 -0.1435  0.1863
 2260W        W17729  13.434  17.585  15.936  0.0503  0.3764  0.0436
 2261W        W17730  17.769   0.282   5.245 -0.1339 -0.0764 -0.2784
 2262W        W17731  17.035   6.124   2.734  0.0441 -0.0925 -0.0624
 2263W        W17732  13.558   9.911   0.367 -0.1288  0.1371 -0.1052
 2264W        W17733  16.804  13.254  11.082 -0.1498 -0.0082  0.1695
 2265W        W17734  10.156  12.012   0.600 -0.0817 -0.0694 -0.1878
 2266W        W17735   7.499   5.976   0.174 -0.3025 -0.0501  0.0697
 2267W        W17736  15.434   2.624  11.612  0.0621  0.0394 -0.3739
 2268W        W17737   7.564   0.419  13.581  0.1059  0.0053  0.1416
 2269W        W17738   2.530  13.413   3.947  0.3861  0.1913  0.4806
 2270W        W17739  18.258   6.489   2.890 -0.1433 -0.2819 -0.0388
 2271W        W17740  14.981   9.299   4.415 -0.1515 -0.2204 -0.0029
 2272W        W17741   9.047  17.766  16.088  0.0542  0.0546  0.3915
 2273W        W17742  15.586   9.546  16.034  0.0465  0.3338  0.0846
 2274W        W17743  14.543  11.306   4.077 -0.1560 -0.0134 -0.0013
 2275W        W17744  10.432  14.414   5.338 -0.1028 -0.0055  0.0316
 2276W        W17745   5.988   0.363   3.118 -0.1595 -0.2009 -0.0390
 2277W        W17746  11.563   8.328  14.405  0.0120 -0.1675  0.1628
 2278W        W17747   2.334   9.257  15.993 -0.2369  0.1603  0.3182
 2279W        W17748   4.953  15.555   0.915  0.0935 -0.3970 -0.2324
 2280W        W17749  10.429   3.754  11.344  0.0479 -0.3764 -0.2961
 2281W        W17750  15.244  11.766  14.311  0.1969  0.1109  0.0676
 2282W        W17751   3.671  14.219   2.636  0.2712  0.2183  0.0874
 2283W        W17752   4.490   9.093   3.889  0.1789  0.2553  0.1007
 2284W        W17753  12.884  11.096  11.561 -0.0090  0.0866 -0.1014
 2285W        W17754   8.507  15.104   5.047  0.2213 -0.0264 -0.0670
 2286W        W17755   2.844   4.067   1.101 -0.0686 -0.0416 -0.2229
 2287W        W17756  15.218   6.688  15.363 -0.2768 -0.2249 -0.2614
 2288W        W17757  12.558  14.625   1.063  0.2020 -0.2692 -0.3942
 2289W        W17758   5.264   9.000   4.828 -0.0116 -0.1607 -0.1699
 2290W        W17759  10.450  16.280  13.301  0.1780  0.0941 -0.3594
 2291W        W17760   1.418   4.039  11.212  0.1757  0.0634 -0.0754
 2292W        W17761   5.204  17.517  10.732  0.1925 -0.0000 -0.1297
 2293W        W17762  17.521   9.935   0.958 -0.2597 -0.0385  0.0824
 2294W        W17763  17.008   4.113   1.267 -0.3298 -0.2080  0.1885
 2295W        W17764  10.541   8.176  15.317  0.1690  0.0413  0.0408
 2296W        W17765   3.672   0.256   3.122  0.1937 -0.0445 -0.0306
 2297W        W17766   4.582   2.134  11.350  0.2011 -0.0861  0.3698
 2298W        W17767   5.640  13.784  13.770  0.1238  0.1054 -0.2230
 2299W        W17768   5.199   1.690   1.483 -0.0087  0.0101 -0.0228
 2300W        W17769   7.497   9.955   0.312  0.0678 -0.3164  0.2057
 2301W        W17770  16.612  17.956  12.613 -0.2234  0.2623 -0.2331
 2302W        W17771  16.668   3.229  10.882 -0.0850 -0.1994 -0.0665
 2303W        W17772  17.454   4.816   3.629 -0.0310  0.0022  0.0848
 2304W        W17773   2.313  16.107  12.143 -0.2154 -0.0147  0.0539
 2305W        W17774  15.111   3.911   0.300  0.1826  0.2058 -0.1332
 2306W        W17775   6.391   7.258  11.035  0.1257  0.0439  0.3739
 2307W        W17776   1.638   6.180   3.216  0.0552  0.0403 -0.0983
 2308W        W17777  11.909  11.839  14.773  0.2029 -0.0472  0.0560
 2309W        W17778  12.523  17.643  12.197  0.1483 -0.1577 -0.0144
 2310W        W17779  13.924   8.825  12.217 -0.1084 -0.0054 -0.3961
 2311W        W17780   3.498   6.946   0.199 -0.0554  0.0247  0.1239
 2312W        W17781  14.099  13.090   3.977 -0.0630 -0.0353 -0.0882
 2313W        W17782   1.310   5.688   2.009  0.1456 -0.2767 -0.0545
 2314W        W17783  10.935   0.834   1.716 -0.1100  0.1115  0.0568
 2315W        W17784   2.974   7.540  15.260  0.1495 -0.2571  0.1977
 2316W        W17785  17.913   0.429  12.562  0.0491 -0.3697  0.0664
 2317W        W17786   2.305   8.497   3.983 -0.2066  0.1829 -0.0949
 2318W        W17787  10.747   6.800  15.654  0.0166 -0.3287 -0.1496
 2319W        W17788   7.256   8.315  15.659 -0.0602 -0.0957  0.0170
 2320W        W17789   2.486  10.116   3.161  0.1871 -0.0699  0.0133
 2321W        W17790   9.193  15.227   6.277  0.0568 -0.1889  0.1582
 2322W        W17791  14.545   4.852   3.494 -0.1853 -0.2711  0.2641
 2323W        W17792   4.990   2.302  11.046  0.0197 -0.0340 -0.0602
 2324W        W17793  11.193  12.457   3.202  0.1129  0.0574  0.0371
 2325W        W17794   1.206  10.347  14.615 -0.1447  0.0752 -0.2269
 2326W        W17795   9.783   5.110   6.010 -0.0926 -0.1071 -0.1720
 2327W        W17796   9.950   6.693   2.462 -0.1020 -0.0935 -0.4390
 2328W        W17797   5.962  11.155  13.605  0.2092 -0.2346  0.0140
 2329W        W17798   9.110  15.820  12.671  0.1533  0.0432  0.0384
 2330W        W17799  13.198   9.979   1.082 -0.3069 -0.0417 -0.1633
 2331W        W17800  18.247   5.112   1.700 -0.1050  0.1301 -0.1102
 2332W        W17801   0.508   6.003   4.643 -0.1374 -0.1498  0.4222
 2333W        W17802   0.980  13.648   4.246  0.2154  0.5016 -0.0898
 2334W        W17803   5.332  15.625  14.947 -0.2848  0.0521  0.2821
 2335W        W17804  10.719  14.652  13.883  0.0759  0.0936 -0.2082
 2336W        W17805   4.799   3.362  15.563 -0.0236  0.0509  0.0230
 2337W        W17806   5.123  12.102   1.870  0.0827  0.0036  0.0387
 2338W        W17807  15.262  16.871   2.331 -0.0735  0.2024 -0.2888
 2339W        W17808   6.225  13.799  14.258 -0.0109 -0.2184  0.2056
 2340W        W17809   4.038  14.072   0.642  0.0255  0.0806 -0.0572
 2341W        W17810   2.669   2.747   2.245  0.0869  0.0787  0.2220
 2342W        W17811   3.587  14.900  12.531  0.1993  0.3632  0.1232
 2343W        W17812   9.372   6.467  13.580 -0.0817  0.0471 -0.0988
 2344W        W17813   5.098  14.824  15.299  0.1076 -0.1357  0.0859
 2345W        W17814   2.055  15.675  14.232 -0.3484  0.2610 -0.2418
 2346W        W17815   2.460  18.161  13.411  0.0213  0.0922  0.1568
 2347W        W17816   7.591   6.012  13.318 -0.0321  0.4462  0.0453
 2348W        W17817   3.262   0.842  14.134 -0.0123 -0.2439 -0.2216
 2349W        W17818   3.608  12.271  13.786 -0.0510  0.0415  0.2518
 2350W        W17819  10.138  14.267  15.071 -0.3386  0.2482 -0.2346
 2351W        W17820  14.575  14.232  13.833 -0.3900  0.0436 -0.0433
 2352W        W17821  17.735  18.252   0.511 -0.1989  0.2443 -0.0554
 2353W        W17822   4.970  10.218  14.767 -0.0327  0.0996 -0.0453
 2354W        W17823   1.992   9.366  13.246  0.1636  0.2091  0.0310
 2355W        W17824  12.399  10.067   3.043  0.2497  0.2966  0.1963
 2356W        W17825  11.634  14.984   2.839  0.1120  0.0332  0.2185
 2357W        W17826   0.350  13.432  11.649  0.0854 -0.2302 -0.3538
 2358W        W17827   6.695   1.615  13.284 -0.1283 -0.1718  0.1899
 2359W        W17828  17.339  12.349   3.121  0.1259  0.0770  0.2570
 2360W        W17829  18.230  11.665  12.993 -0.0709 -0.0382 -0.1430
 2361W        W17830   3.249   7.812  13.532 -0.0989 -0.1442 -0.1426
 2362W        W17831  18.211  10.634  11.035 -0.1077 -0.0871  0.2168
 2363W        W17832   3.219  13.889   2.487  0.0144 -0.1652  0.0788
 2364W        W17833   9.819   4.835   0.650 -0.2424  0.0819 -0.0627
 2365W        W17834   6.473   7.092  13.067  0.0901  0.1690  0.0950
 2366W        W17835   9.491   6.855   2.348 -0.2204 -0.2092 -0.0408
 2367W        W17836  12.823   6.327   4.112  0.0631 -0.0857 -0.1695
 2368W        W17837   2.373   0.131   1.680 -0.0702 -0.2257  0.1885
 2369W        W17838   0.773  10.219  12.627  0.1121 -0.3806  0.1038
 2370W        W17839  11.125   1.392  16.012 -0.0385  0.0688 -0.1439
 2371W        W17840  18.143  17.102  12.744 -0.3927 -0.1848 -0.0163
 2372W        W17841  15.494   8.529   0.752 -0.1356  0.2054  0.0032
 2373W        W17842  10.243  16.026   5.274  0.0777  0.4924  0.1462
 2374W        W17843  13.426   6.921  15.329  0.2234  0.2271  0.2679
 2375W        W17844   4.168   6.020  13.506 -0.2719  0.3221 -0.0752
 2376W        W17845   8.874   3.167   4.779  0.1415  0.1109  0.3057
 2377W        W17846  17.864   3.814  11.429  0.0155 -0.1613 -0.2167
 2378W        W17847   3.209   4.403  10.154 -0.2099 -0.0651  0.2836
 2379W        W17848  16.545  13.685  12.409  0.2932 -0.0317 -0.1708
 2380W        W17849  14.213   7.733   3.826  0.0547 -0.2868  0.0572
 2381W        W17850   7.498  11.100   1.814 -0.1090  0.0709 -0.1061
 2382W        W17851   3.003   2.701   3.042  0.1996  0.0196  0.0530
 2383W        W17852  13.214  13.135  12.903 -0.2289 -0.0840 -0.1430
 2384W        W17853  16.826   8.194   5.112 -0.0025  0.2319 -0.1560
 2385W        W17854   3.666   2.079  14.584 -0.2077  0.0582  0.2185
 2386W        W17855   7.198   1.308   5.262  0.3128  0.0939  0.4201
 2387W        W17856  13.461   6.360   0.697  0.0590 -0.2563  0.0132
 2388W        W17857  11.493  13.384   3.518  0.0129  0.0049 -0.1519
 2389W        W17858   9.087   5.639   3.760 -0.3756 -0.1076  0.2234
 2390W        W17859   4.547  12.052  12.920 -0.2545  0.1517  0.0817
 2391W        W17860  10.167  16.833   5.851  0.0697  0.0608  0.3349
 2392W        W17861  16.839   3.428  10.286  0.1012  0.2747  0.0746
 2393W        W17862   7.226  14.523  14.454  0.0101  0.1480 -0.0369
 2394W        W17863   8.095  12.815  13.236 -0.2334 -0.1724  0.2508
 2395W        W17864   0.698   9.125   4.985 -0.0843  0.3320 -0.1081
 2396W        W17865  17.757   5.479   4.533 -0.0360 -0.1002  0.3452
 2397W        W17866  13.474   0.453  11.230 -0.0758  0.4707 -0.1207
 2398W        W17867  10.553   2.506   0.276 -0.2457  0.2543  0.0987
 2399W        W17868   5.648   9.633   4.204  0.0510  0.2891  0.0507
 2400W        W17869   5.030   7.283   3.169 -0.0148  0.1065 -0.0691
 2401W        W17870   4.613   8.308   4.340 -0.1415  0.0653  0.1743
 2402W        W17871  14.150   0.180   5.194 -0.3109  0.0666  0.2294
 2403W        W17872   9.788   7.950   5.212  0.0577 -0.1972  0.0035
 2404W        W17873   0.932  15.312   2.336  0.0653  0.1068 -0.2115
 2405W        W17874   4.188  11.673   0.303  0.1731  0.2087 -0.0854
 2406W        W17875   0.145   7.703  12.179  0.2132 -0.0716  0.5229
 2407W        W17876   4.356   0.003   3.766  0.3377 -0.0554 -0.0724
 2408W        W17877  10.638   1.264   3.948  0.0714  0.1843 -0.0164
 2409W        W17878   5.479  15.526  12.216 -0.0897  0.0940 -0.2094
 2410W        W17879  17.018   8.488   4.142  0.2163 -0.0600  0.0505
 2411W        W17880  12.157   2.069   3.172  0.0447 -0.0454  0.1593
 2412W        W17881  17.669   1.329   1.874 -0.1912  0.0690 -0.0013
 2413W        W17882   9.882   2.553   4.299  0.1623 -0.0812  0.2221
 2414W        W17883  12.147  17.766  15.419  0.2397  0.3799  0.0942
 2415W        W17884  10.117   1.171  11.607 -0.0371  0.2365  0.0704
 2416W        W17885  18.057   5.440   3.373 -0.3585 -0.3201  0.1693
 2417W        W17886  15.431   5.796  14.807 -0.0787 -0.0053 -0.1187
 2418W        W17887   0.109  17.723   2.849  0.3167  0.0341 -0.2747
 2419W        W17888  15.854   4.359  13.636 -0.0183 -0.0039  0.1996
 2420W        W17889  12.970   1.888   2.960 -0.0478 -0.5356  0.2790
 2421W        W17890  17.937  15.569   5.929  0.0486  0.0451  0.2182
 2422W        W17891  13.898  17.424   1.515 -0.1792 -0.0641 -0.0290
 2423W        W17892  15.283   3.839   5.538  0.0599 -0.0888 -0.4199
 2424W        W17893   5.888  12.076  12.680  0.2576  0.2905 -0.2167
 2425W        W17894   9.884  11.377   1.167  0.0678  0.1974  0.0090
 2426W        W17895   1.726   9.650   2.423 -0.1368 -0.0728  0.1779
 2427W        W17896  17.240  11.606   1.335 -0.0850  0.2605 -0.0656
 2428W        W17897  17.328   3.644  11.611  0.1231 -0.0675  0.0050
 2429W        W17898   6.530  12.637  12.137  0.2192 -0.1524 -0.2546
 2430W        W17899   2.493   5.839   1.198  0.3256 -0.1421  0.0763
 2431W        W17900   3.229   7.284   3.457  0.1774 -0.1646 -0.0900
 2432W        W17901  17.441   3.144  15.850  0.0278 -0.0668  0.1857
 2433W        W17902  15.881  12.818  14.994  0.0292 -0.0607 -0.1347
 2434W        W17903   3.970  16.328   4.555 -0.0576 -0.0169  0.1164
 2435W        W17904  11.994  18.116  15.699 -0.1578 -0.0444 -0.0305
 2436W        W17905  17.612   5.216   5.137 -0.0897  0.0805 -0.2178
 2437W        W17906  17.448   2.603   3.023 -0.1651  0.0280  0.0414
 2438W        W17907  16.920   0.834  13.546 -0.0044 -0.1310 -0.1901
 2439W        W17908  12.101  15.510   3.905  0.2108  0.2134 -0.1178
 2440W        W17909  13.137  15.332   1.172  0.2222 -0.1785 -0.2056
 2441W        W17910   4.577   7.626  14.688 -0.2036  0.2531  0.2475
 2442W        W17911   3.713  16.131   0.559 -0.0951  0.2468  0.0814
 2443W        W17912   6.302   3.855   3.029  0.2144 -0.0534 -0.0324
 2444W        W17913   4.514   2.666   0.145  0.1095  0.0331  0.2340
 2445W        W17914  14.294   6.328   0.379 -0.0974  0.0202 -0.1670
 2446W        W17915  12.533  11.485   3.529 -0.0061  0.0870 -0.1913
 2447W        W17916   1.759  13.393   5.315 -0.1164 -0.3434  0.1421
 2448W        W17917   6.410  13.761  14.766  0.1176 -0.0220  0.0776
 2449W        W17918   2.463  11.516  16.026  0.1252  0.0434  0.0591
 2450W        W17919  15.983   6.410  15.913 -0.5402 -0.0113  0.0783
 2451W        W17920  16.402   9.229  13.232  0.1369  0.0875  0.0233
 2452W        W17921   7.359  12.968  12.547  0.2021  0.0674  0.1998
 2453W        W17922   2.394  16.454  12.563 -0.0327  0.1962 -0.2575
 2454W        W17923   9.407   4.258  11.583 -0.1635  0.0224 -0.2248
 2455W        W17924   8.249   5.678  11.804  0.2890  0.3219  0.1520
 2456W        W17925   6.629   9.973   0.111 -0.0453  0.2422  0.2062
 2457W        W17926  10.685  13.765   0.408  0.3354  0.0906 -0.4018
 2458W        W17927   0.084   8.540  14.988  0.1264  0.4230 -0.2282
 2459W        W17928   1.026   3.586   2.849  0.1913  0.0375  0.1008
 2460W        W17929   3.214   1.740  14.040  0.2500 -0.0905 -0.1873
 2461W        W17930   8.742  16.196  12.662  0.1959  0.2685 -0.1105
 2462W        W17931   6.101  10.639   2.492 -0.0155  0.0483 -0.0741
 2463W        W17932  14.624  12.433  12.309 -0.0642 -0.2308 -0.0169
 2464W        W17933   7.395   1.532   2.621  0.1345 -0.0379 -0.0861
 2465W        W17934  15.683  17.960  15.235  0.0741  0.1637  0.1898
 2466W        W17935  16.857   6.424   5.170  0.1831 -0.0566  0.1582
 2467W        W17936  13.964  17.171   5.826 -0.0288 -0.0914 -0.1967
 2468W        W17937   9.856  13.117  12.058 -0.3650  0.2245 -0.1044
 2469W        W17938  17.375   0.313   2.038 -0.2224  0.0395  0.1330
 2470W        W17939   1.668   3.040   3.057  0.2750  0.0651 -0.0203
 2471W        W17940  10.487   6.267   3.957 -0.1469 -0.1001  0.0595
 2472W        W17941   6.094   2.066  14.225  0.0715 -0.0415 -0.0409
 2473W        W17942  14.050   3.396  11.097 -0.1328 -0.0633 -0.1332
 2474W        W17943   8.376   1.831   0.321  0.1411  0.1236 -0.0275
 2475W        W17944  12.903   4.169  13.312 -0.2740 -0.0218  0.0779
 2476W        W17945   7.507  12.037  14.566  0.1254  0.1548  0.0732
 2477W        W17946  15.155  14.963  13.159  0.1624 -0.2838  0.1705
 2478W        W17947   9.448   6.392   4.223  0.0662 -0.5507 -0.1441
 2479W        W17948   3.596  17.973   3.929 -0.2738 -0.0763  0.0553
 2480W        W17949   6.968   1.711   4.657  0.0765 -0.0514 -0.2326
 2481W        W17950   7.894   1.491   2.533  0.3538 -0.2411  0.0457
 2482W        W17951   5.460   8.078  15.018 -0.4071  0.3042  0.0205
 2483W        W17952   4.166   4.283  14.441 -0.3044  0.1514 -0.3341
 2484W        W17953   6.310  17.998  14.790  0.1348 -0.0666  0.1170
 2485W        W17954   5.927   0.577  13.497  0.3391 -0.3488 -0.0607
 2486W        W17955   9.238   8.126   1.632  0.1944  0.0907 -0.3155
 2487W        W17956   6.901  17.708   3.124 -0.0404  0.1927 -0.3247
 2488W        W17957  17.358  13.677   0.330 -0.0724  0.0052  0.1906
 2489W        W17958  18.263   6.884  13.368 -0.0402 -0.3161 -0.0138
 2490W        W17959   0.677   2.014   1.722 -0.0913  0.1143  0.1414
 2491W        W17960  12.293   9.982  15.205 -0.0727 -0.0888 -0.1099
 2492W        W17961   4.210   5.657   4.556  0.1450 -0.0326  0.1410
 2493W        W17962   7.105  14.985  13.016  0.0694  0.0769  0.1627
 2494W        W17963   6.081  18.012   9.840  0.1168  0.2432 -0.0519
 2495W        W17964  14.223  15.177   4.827 -0.0684 -0.1385  0.1242
 2496W        W17965  17.242   5.291  15.088  0.0739  0.2376  0.2211
 2497W        W17966  13.447  12.171   5.156 -0.2920 -0.0729  0.1526
 2498W        W17967  16.943   4.569   1.581 -0.0482  0.1737  0.2959
 2499W        W17968  10.066   4.453  15.450 -0.1052 -0.2607  0.0490
 2500W        W17969   8.860  15.961  14.588  0.1770 -0.3716 -0.0168
 2501W        W17970   4.491  18.016  11.410 -0.0072  0.0151  0.1502
 2502W        W17971  18.051  14.999  10.936 -0.0940  0.0011  0.2392
 2503W        W17972  13.352   4.906   0.609  0.3030 -0.2051 -0.0713
 2504W        W17973  16.986  14.199  13.086 -0.4037  0.0576  0.2413
 2505W        W17974  10.578  12.475   2.153  0.1109 -0.1598 -0.0173
 2506W        W17975   7.629   9.029  15.714 -0.1192  0.0823  0.3329
 2507W        W17976   4.263  15.997  14.411 -0.2100 -0.0534  0.0554
 2508W        W17977  16.876  17.136  12.799  0.0247  0.0073 -0.0826
 2509W        W17978  16.304   9.887   3.756 -0.0380 -0.3722 -0.1671
 2510W        W17979  14.868   9.192  14.956  0.2594 -0.4453 -0.0346
 2511W        W17980  15.895  12.274  14.738  0.0603 -0.0103  0.1619
 2512W        W17981   6.737  11.932   5.628  0.2596  0.1773 -0.3056
 2513W        W17982  17.975  14.269   5.059  0.4062 -0.0194  0.0798
 2514W        W17983  13.883  17.981   3.835  0.0420 -0.0654  0.0025
 2515W        W17984   8.735   5.043  14.509  0.0815 -0.0546  0.4025
 2516W        W17985  17.022   8.170  14.340  0.1384  0.0492  0.2908
 2517W        W17986   1.613   0.818   3.065  0.3740 -0.2610 -0.0724
 2518W        W17987   5.237  11.042  13.036 -0.1821 -0.2802 -0.0831
 2519W        W17988   2.141  15.690   0.075 -0.0557  0.1291  0.0744
 2520W        W17989  16.023   8.826  13.399 -0.4705 -0.4146 -0.2399
 2521W        W17990   7.091  17.750  15.628 -0.0648  0.0273 -0.1731
 2522W        W17991   2.303   0.183  12.033 -0.0996 -0.2907  0.0167
 2523W        W17992  17.731   2.990   5.162  0.1874  0.3296 -0.0161
 2524W        W17993   9.871  13.028   1.445 -0.1043  0.1281 -0.2117
 2525W        W17994  11.753   7.153   0.472 -0.0675 -0.2901  0.1929
 2526W        W17995   8.774  14.424   3.027 -0.0162  0.0404 -0.0751
 2527W        W17996  17.011  10.741   0.098 -0.0322  0.1192 -0.1871
 2528W        W17997  17.791  17.463   4.571  0.1561  0.1787  0.0829
 2529W        W17998  15.413  15.970   5.721  0.0127  0.1077 -0.2732
 2530W        W17999  15.969   8.541   5.542 -0.0725  0.0266  0.2303
 2531W        W18000   2.878   9.479  11.835 -0.1491 -0.0388  0.1453
 2532W        W18001   5.378  13.568  12.223  0.0413  0.0979 -0.1900
 2533W        W18002   4.476  12.654  11.494  0.0560  0.0123 -0.2722
 2534W        W18003  16.788  13.703  14.379  0.1224  0.1986 -0.0541
 2535W        W18004   6.565   0.109   5.005 -0.2431  0.2151 -0.0470
 2536W        W18005   5.732  10.912  10.937  0.1126 -0.1587 -0.2294
 2537W        W18006  17.038  17.734  10.793 -0.1883  0.1632 -0.0829
 2538W        W18007   8.610  10.449  12.904  0.0480 -0.1672  0.1044
 2539W        W18008   9.715  11.262   0.276  0.1294  0.1561  0.3606
 2540W        W18009   3.830  16.585   4.097  0.1685 -0.2038  0.2413
 2541W        W18010   1.404  11.558   5.650  0.1997 -0.2770  0.1797
 2542W        W18011   6.773  12.910   1.812  0.2538 -0.3857  0.0702
 2543W        W18012  14.302   0.248  14.309  0.2247 -0.1983 -0.1376
 2544W        W18013  13.957   3.721   0.471 -0.1332 -0.1855 -0.0011
 2545W        W18014  17.341   9.035  12.480 -0.1905  0.2247  0.0411
 2546W        W18015  18.240  14.326  10.461 -0.2060  0.1365 -0.2405
 2547W        W18016  13.852  17.784  15.642  0.0656  0.0142  0.0662
 2548W        W18017   6.874  14.475  15.201 -0.0318  0.2366  0.1149
 2549W        W18018   5.117  13.400  10.361  0.2738 -0.1915  0.1112
 2550W        W18019   5.088  12.120  11.167 -0.1676  0.1623  0.2000
 2551W        W18020   2.846  16.556  14.998 -0.1297 -0.0161 -0.0167
 2552W        W18021  14.685   5.561   4.067 -0.2652  0.0677  0.0878
 2553W        W18022  12.518   0.788  11.704 -0.0814  0.3104 -0.1980
 2554W        W18023   1.244  11.127  15.614  0.1781 -0.0447 -0.3021
 2555W        W18024   4.591   9.113   3.331  0.3967  0.4349  0.2917
 2556W        W18025   9.373   9.945  13.095 -0.2571 -0.2493  0.2073
 2557W        W18026  12.123  11.065  15.348 -0.2133 -0.3813 -0.2808
 2558W        W18027   8.249  17.488   2.645 -0.0818 -0.2171  0.2171
 2559W        W18028   4.512  17.303   4.251  0.1066 -0.1273 -0.0277
 2560W        W18029   6.795  16.414   2.543 -0.0699  0.3945 -0.0051
 2561W        W18030  15.491   2.885   5.998  0.1184  0.0199 -0.1398
 2562W        W18031   8.141  13.105  12.461 -0.0571  0.0836  0.0630
 2563W        W18032   4.898   6.108  14.793 -0.3642 -0.1749 -0.0931
 2564W        W18033  13.444   8.162   0.292  0.0879  0.0866 -0.0447
 2565W        W18034  10.165   9.860  13.595 -0.0393 -0.2942  0.1649
 2566W        W18035  16.402   1.760   5.471 -0.0261  0.3166  0.1523
 2567W        W18036  12.864  12.180  15.876  0.1242 -0.3533 -0.1640
 2568W        W18037  13.915   3.119  15.726 -0.1377 -0.0861  0.1087
 2569W        W18038  11.197  14.540  13.192 -0.0938  0.2059 -0.0060
 2570W        W18039  14.371   3.948   3.419 -0.0405  0.0143  0.2986
 2571W        W18040   7.237   8.364   1.627 -0.1624 -0.1417 -0.0911
 2572W        W18041   8.639   4.887  13.453  0.1951 -0.2209  0.1408
 2573W        W18042  14.629  11.391   3.376  0.2575  0.1385  0.1101
 2574W        W18043  14.352  14.115  15.833 -0.3716  0.0711  0.2754
 2575W        W18044   1.312  16.874   1.958  0.4546 -0.2030 -0.1557
 2576W        W18045   8.242   8.113   4.728 -0.1741 -0.3813  0.1982
 2577W        W18046  16.685   8.810  15.932 -0.3485  0.2502 -0.0763
 2578W        W18047  14.533   3.956  15.715 -0.2241 -0.2160  0.0222
 2579W        W18048  13.872  10.633   0.901 -0.4303 -0.1327  0.0815
 2580W        W18049   2.068  14.674   0.350 -0.1644  0.2753 -0.0105
 2581W        W18050  14.981  12.266  14.926 -0.1554 -0.1151 -0.2094
 2582W        W18051   4.540  17.082   3.825  0.1594  0.1651 -0.1502
 2583W        W18052  15.014   1.464   3.448  0.0578  0.0318 -0.4047
 2584W        W18053   8.385   4.484   1.694 -0.1361 -0.1319  0.0435
 2585W        W18054  14.911  10.230  11.725  0.3423 -0.1346  0.1430
 2586W        W18055   7.542   5.202  11.413  0.0312 -0.0011  0.1541
 2587W        W18056  10.724   8.234  14.845 -0.0054  0.4404 -0.0597
 2588W        W18057  13.011   1.476   4.796  0.0710 -0.2608  0.1016
 2589W        W18058   4.350   4.627  14.158 -0.0382 -0.2106  0.1635
 2590W        W18059   4.316   6.407   1.801 -0.1224  0.1290  0.1983
 2591W        W18060  16.399   2.065   5.119 -0.1036 -0.0430 -0.1248
 2592W        W18061   5.802   0.211  12.758 -0.0477  0.1326 -0.1747
 2593W        W18062   6.253  12.915   1.136 -0.0511  0.0569 -0.1846
 2594W        W18063   6.315  12.035  15.622 -0.3850  0.1004  0.0420
 2595W        W18064   1.963   7.353  14.039 -0.3158  0.1825  0.1976
 2596W        W18065  13.944  10.579   4.846  0.2419  0.2034 -0.0920
 2597W        W18066   3.170   3.232   3.054  0.0505 -0.2150 -0.1863
 2598W        W18067   6.741   7.221  15.128 -0.0439  0.0743  0.1078
 2599W        W18068  10.889   8.761   4.984 -0.1280  0.0313  0.1496
 2600W        W18069  12.409   5.290  13.826 -0.0646  0.0339  0.3724
 2601W        W18070   4.825  12.429  14.845 -0.4220  0.1089  0.3978
 2602W        W18071   8.923  12.839   2.398  0.0405  0.0418  0.1566
 2603W        W18072  14.079  10.795   4.391  0.0711  0.1347  0.0772
 2604W        W18073   7.035   4.882   3.162  0.2276  0.1862 -0.0359
 2605W        W18074   0.548   2.836  15.141  0.0229  0.1044  0.0176
 2606W        W18075   7.692   1.440  12.718 -0.0997  0.0704 -0.2861
 2607W        W18076  14.816   6.010   2.445 -0.3471 -0.0512 -0.0442
 2608W        W18077  15.278  15.612  14.892 -0.1043 -0.1492 -0.1360
 2609W        W18078   0.287   3.252  15.450 -0.4200  0.0134  0.1950
 2610W        W18079  13.563  16.208  13.121  0.2701 -0.3154  0.0676
 2611W        W18080  11.638   9.425  13.079 -0.0965 -0.0910 -0.1067
 2612W        W18081   5.805   6.796   0.276 -0.0709  0.0092 -0.0388
 2613W        W18082  16.076  11.877   2.774  0.1620  0.0744  0.1885
 2614W        W18083  17.888   9.522  13.418 -0.3029 -0.1162  0.0423
 2615W        W18084  15.554   7.229  13.982 -0.0520  0.0647  0.0636
 2616W        W18085   4.799  12.426  14.222 -0.1092  0.0784  0.3512
 2617W        W18086  14.377   6.322   5.423 -0.1625  0.1792  0.1395
 2618W        W18087  10.600   8.957  13.406 -0.0864 -0.2990 -0.1537
 2619W        W18088   0.397   1.771  12.010 -0.0649  0.2019  0.2924
 2620W        W18089   0.721   4.227   1.252  0.0248 -0.1932 -0.2230
 2621W        W18090   2.648   4.777  14.366 -0.2159 -0.3679 -0.0898
 2622W        W18091   1.830   7.910   1.531  0.0693  0.0254  0.0361
 2623W        W18092   6.572  11.406   1.311  0.0476 -0.2010 -0.1806
 2624W        W18093  14.914   7.716   0.952 -0.0514 -0.2355 -0.1010
 2625W        W18094  13.926  15.164  11.092 -0.0045 -0.0875 -0.2952
 2626W        W18095  10.594   2.406   0.817 -0.2378  0.2301  0.3715
 2627W        W18096   5.003   0.874   2.150  0.1279  0.2522  0.2775
 2628W        W18097   0.874   7.113  12.356 -0.0838  0.1757  0.1424
 2629W        W18098  13.380  13.468   2.309 -0.1366  0.2492 -0.1401
 2630W        W18099  13.943   6.382  13.398  0.1988 -0.1893 -0.0719
 2631W        W18100  10.214  10.840   4.756 -0.2812  0.0100  0.1324
 2632W        W18101   6.963   9.681  11.909 -0.0554  0.1829 -0.0660
 2633W        W18102  13.486   2.759   2.074  0.2562  0.2144  0.0079
 2634W        W18103  15.402  17.065   2.773 -0.0995 -0.0240  0.0056
 2635W        W18104  18.249   0.660   5.884  0.0366 -0.1249  0.2189
 2636W        W18105  17.315   6.327   5.452  0.0850 -0.0790  0.0767
 2637W        W18106   2.976   1.706   2.725 -0.0022 -0.0857  0.1523
 2638W        W18107  11.204   3.607   4.142  0.4848 -0.0847  0.0590
 2639W        W18108   9.471   5.179   4.616  0.1882 -0.0129  0.0291
 2640W        W18109  10.480   2.076  15.614 -0.0206 -0.3192 -0.0955
 2641W        W18110  16.002   4.583  11.141  0.1027  0.1375  0.0163
 2642W        W18111   6.983  16.018  10.392  0.0865  0.0035 -0.1019
 2643W        W18112  12.140  16.502   2.275 -0.0262 -0.2267 -0.0646
 2644W        W18113   6.068   0.998   1.366 -0.0214  0.1789 -0.1055
 2645W        W18114   6.480   4.708  11.394 -0.1819 -0.1378  0.5747
 2646W        W18115   3.790  13.730  13.714  0.0962  0.0666  0.2607
 2647W        W18116  17.021   6.748  14.835 -0.0554  0.0827 -0.1033
 2648W        W18117  17.663   7.546  13.468 -0.0629  0.0062 -0.0233
 2649W        W18118  11.075   1.270   5.363  0.1244  0.3829 -0.0964
 2650W        W18119  12.590   8.803   4.793  0.1810 -0.1542  0.1944
 2651W        W18120  14.074   6.083   4.760  0.0462 -0.0008  0.1436
 2652W        W18121  13.672  13.793   4.042 -0.0565 -0.1308 -0.0222
 2653W        W18122   8.497   0.730   0.054  0.0254  0.3331 -0.0240
 2654W        W18123   4.662   8.653   3.977 -0.0383 -0.1975 -0.0716
 2655W        W18124  17.703  17.197  15.967  0.1835  0.1146 -0.0307
 2656W        W18125  14.113  17.665   4.760  0.3401  0.1156  0.1331
 2657W        W18126   2.373  14.875  12.896  0.0637  0.1035  0.0962
 2658W        W18127  15.668   9.970   3.403 -0.0212 -0.0019 -0.3004
 2659W        W18128  11.774  10.453   4.346  0.1024 -0.1512  0.1673
 2660W        W18129   8.271   7.187   1.299 -0.0420  0.0184  0.3653
 2661W        W18130  15.586  17.956  11.247 -0.0578  0.0971  0.0898
 2662W        W18131   3.416  13.194   3.156  0.1813  0.2404  0.2296
 2663W        W18132   7.964  12.687   2.698  0.4712  0.3130 -0.0725
 2664W        W18133  14.694   2.240   0.686 -0.1915 -0.3213  0.1876
 2665W        W18134  16.023   8.406   4.580  0.2246  0.0448  0.2208
 2666W        W18135  17.155  14.636   1.678  0.3149 -0.1474 -0.0282
 2667W        W18136  17.201   8.577  15.517  0.1011  0.2406 -0.1921
 2668W        W18137  15.079   0.699   3.879 -0.0563 -0.1724 -0.0979
 2669W        W18138   1.644  11.476   2.707 -0.2268 -0.3736  0.1012
 2670W        W18139   1.223   0.482   4.453 -0.1420  0.3713  0.2371
 2671W        W18140   1.261   3.019  15.794  0.0401 -0.1280  0.1913
 2672W        W18141  17.207  14.640   0.363  0.2175 -0.2869  0.1865
 2673W        W18142  13.953   3.761  10.174  0.3432 -0.2602  0.0457
 2674W        W18143  11.500  14.229  11.760  0.0219 -0.1879  0.2757
 2675W        W18144  17.356  15.851   5.717  0.1401 -0.1597  0.0396
 2676W        W18145   8.182   7.189   1.818  0.0140  0.1662 -0.0241
 2677W        W18146  12.668   2.898  13.263 -0.1702  0.0040 -0.4201
 2678W        W18147   4.703  13.019   4.830  0.1649  0.0534 -0.1865
 2679W        W18148   2.354   8.659   5.111 -0.2748 -0.1115  0.0255
 2680W        W18149   7.971   4.511  12.681 -0.0790  0.1989  0.2964
 2681W        W18150  11.903  10.494  10.982 -0.3272 -0.0333 -0.1683
 2682W        W18151  17.904   7.082  11.947 -0.4526 -0.1588 -0.0595
 2683W        W18152   6.967  17.661   2.469  0.0117 -0.3142 -0.0494
 2684W        W18153   9.794  10.491  15.543  0.0058  0.1716 -0.0028
 2685W        W18154   3.407   3.913   0.453 -0.0977  0.2066  0.0246
 2686W        W18155   5.260  10.957  12.482  0.2652  0.1298 -0.2881
 2687W        W18156   6.729   1.749   1.493  0.0003 -0.0170  0.0195
 2688W        W18157   4.367   3.346   2.566 -0.1868  0.2833 -0.0307
 2689W        W18158   2.037  16.194   4.167 -0.1799  0.3310 -0.0671
 2690W        W18159  13.115   5.948  11.925  0.1900  0.1262  0.1524
 2691W        W18160  13.467   9.355   3.194 -0.1451  0.0191 -0.0476
 2692W        W18161   0.561   3.068  14.680  0.0388  0.0763 -0.1134
 2693W        W18162  10.547  11.769  11.373 -0.0694  0.0760  0.4551
 2694W        W18163  17.794   0.624   1.983  0.0039 -0.0769  0.1701
 2695W        W18164   4.069   3.755  13.315 -0.3592  0.0587  0.1189
 2696W        W18165  11.671  12.144   3.107  0.0046  0.1835  0.0681
 2697W        W18166  18.159   8.943   4.872  0.1074 -0.2834 -0.2681
 2698W        W18167  16.200   8.882  12.856  0.0674 -0.1172  0.2678
 2699W        W18168   3.465   5.273  14.811  0.0178  0.2202 -0.0641
 2700W        W18169   5.645  18.155  14.039 -0.0737  0.1984  0.3323
 2701W        W18170   9.653  13.193  12.888  0.2473  0.0609 -0.0101
 2702W        W18171  14.940  11.327  15.912  0.0051  0.2475 -0.0935
 2703W        W18172  12.199   5.064   2.553  0.1935 -0.2379  0.2201
 2704W        W18173  12.622  12.034  15.470 -0.1626  0.0911 -0.3967
 2705W        W18174  17.113   2.520   3.427  0.2419  0.0101  0.0340
 2706W        W18175   6.276  17.106   1.441 -0.1733 -0.1903 -0.1704
 2707W        W18176   1.318  14.050   1.493  0.1784  0.0640  0.1261
 2708W        W18177  13.743   8.554   0.118 -0.0202  0.4361 -0.2120
 2709W        W18178   2.541   2.384  14.535  0.2158 -0.4636 -0.2226
 2710W        W18179   4.577   9.061  15.209 -0.1433  0.0225 -0.2130
 2711W        W18180   8.932   1.725   4.478 -0.0112  0.1458 -0.2894
 2712W        W18181   3.804   0.709  15.930 -0.1889 -0.0212  0.1514
 2713W        W18182   0.943   2.811   2.668 -0.1685  0.1093  0.0856
 2714W        W18183   9.274   9.809  13.537  0.0287  0.3488 -0.4334
 2715W        W18184   9.668   1.461  14.628  0.0036 -0.0046 -0.4218
 2716W        W18185   7.691   8.679   0.067  0.1394  0.1761  0.1292
 2717W        W18186   0.999   5.511   5.408 -0.0350  0.2925  0.0932
 2718W        W18187   5.070   4.148   1.230  0.4543  0.0194 -0.0742
 2719W        W18188  10.383  11.528  13.183 -0.0358  0.1959  0.0306
 2720W        W18189  11.346  15.582   1.331 -0.3046 -0.0655 -0.1105
 2721W        W18190   7.974  15.571   3.566 -0.0224 -0.3623  0.0740
 2722W        W18191   1.680  17.293   3.664  0.0868  0.2077  0.0608
 2723W        W18192   2.183   8.311   4.700 -0.2444 -0.0512 -0.0755
 2724W        W18193   4.867  14.863  11.862  0.0120 -0.2788 -0.0737
 2725W        W18194  11.959   2.209   4.137  0.0896 -0.1300  0.2083
 2726W        W18195   4.353   0.167   4.723  0.0497  0.1970 -0.0076
 2727W        W18196  17.320   4.602   0.095  0.2603  0.0249  0.3669
 2728W        W18197  16.076  11.949  12.492 -0.0433 -0.2291  0.1759
 2729W        W18198  15.276  16.470   4.289 -0.1524 -0.0393 -0.0608
 2730W        W18199  10.301   0.602   2.475 -0.2473  0.0542 -0.0193
 2731W        W18200  16.060   5.904   5.262 -0.1504  0.0912 -0.0138
 2732W        W18201   1.308  14.671   2.125 -0.0128 -0.0301 -0.0216
 2733W        W18202   1.600  17.133   2.801 -0.2071  0.1693 -0.0538
 2734W        W18203   1.994  14.590  10.907  0.0248  0.0027 -0.1454
 2735W        W18204   7.028  16.547  10.214  0.1823  0.1950  0.2502
 2736W        W18205   0.637  12.748  15.115 -0.0741  0.0275  0.1443
 2737W        W18206  12.968   2.745  14.686  0.1848 -0.0858  0.0506
 2738W        W18207   6.185  13.589   5.119 -0.0305 -0.1720 -0.0307
 2739W        W18208   4.234  18.286  12.629  0.1542 -0.0966 -0.1607
 2740W        W18209  16.981   3.044  15.655 -0.0543  0.0601 -0.2338
 2741W        W18210   2.814  12.946  13.717 -0.3034  0.1347 -0.0167
 2742W        W18211   0.527   2.473   2.960  0.0485  0.1187  0.1628
 2743W        W18212  16.147   7.089   2.124  0.1521 -0.1050 -0.0194
 2744W        W18213  11.078  15.032  12.011 -0.1369  0.1144  0.2435
 2745W        W18214   7.964  11.239   4.781  0.0289 -0.0605  0.1791
 2746W        W18215   1.903   2.910   1.177 -0.1578  0.3602 -0.2397
 2747W        W18216   9.274   5.608  11.202  0.0883  0.1477 -0.0669
 2748W        W18217   4.988   7.747  12.351 -0.2564  0.2470 -0.0535
 2749W        W18218   9.105  10.965  14.348 -0.2037  0.1898 -0.0239
 2750W        W18219  17.993   6.304  12.238  0.2889 -0.1019 -0.0229
 2751W        W18220  11.937   0.310   2.683  0.0027 -0.0523 -0.0170
 2752W        W18221  18.116   3.138  10.922  0.0399 -0.0686 -0.0839
 2753W        W18222   8.444  10.937   2.736  0.0324  0.1086 -0.0526
 2754W        W18223   2.666   5.233  14.227 -0.5169 -0.4491 -0.1538
 2755W        W18224   7.113  12.866   1.429  0.0661  0.1785  0.1373
 2756W        W18225  16.965  15.308  15.097 -0.0814  0.2588  0.0557
 2757W        W18226  16.745  16.980   4.856 -0.0953  0.1367 -0.1034
 2758W        W18227  13.932  15.298   1.528  0.1468  0.1478 -0.0853
 2759W        W18228  14.879   5.699   5.108  0.0745 -0.2085  0.0477
 2760W        W18229   5.282   8.965   2.516 -0.1255  0.0878  0.1000
 2761W        W18230  17.587   5.809   1.908  0.0044  0.0183 -0.3846
 2762W        W18231   0.933   9.267   2.739 -0.0461 -0.2094 -0.0311
 2763W        W18232  10.851  14.619   4.486 -0.2699  0.1105  0.2507
 2764W        W18233   2.770  12.320  15.484 -0.2583  0.1214 -0.1786
 2765W        W18234  13.233   9.609   3.547  0.0523  0.2028 -0.0051
 2766W        W18235   1.562  17.611  14.319 -0.0983  0.1505 -0.1976
 2767W        W18236   5.958   6.035  15.099 -0.1103  0.1937 -0.0359
 2768W        W18237   4.694   3.460  12.020  0.1311  0.1801  0.2822
 2769W        W18238  12.337   6.142  14.863 -0.0463  0.2043 -0.0334
 2770W        W18239  15.123  13.961   5.065 -0.1499  0.2152 -0.0003
 2771W        W18240   7.158  14.454   5.116 -0.1087 -0.3676 -0.1840
 2772W        W18241   0.265  17.280   0.064  0.1875 -0.0897 -0.0894
 2773W        W18242  11.199  11.251   4.014  0.0798  0.1413 -0.2003
 2774W        W18243  11.264   9.491  11.978 -0.0791 -0.1193 -0.1083
 2775W        W18244   9.690  17.802  13.408  0.3763 -0.1851 -0.2962
 2776W        W18245   7.636   0.954  14.308  0.2674  0.1916 -0.0221
 2777W        W18246   6.628   6.880   0.517  0.1290 -0.0337 -0.0479
 2778W        W18247  10.847   4.313   2.688 -0.0848  0.1530 -0.0258
 2779W        W18248  16.857   3.557   0.611 -0.0442  0.0898 -0.0888
 2780W        W18249   3.075  15.579   5.085 -0.1718  0.1463 -0.1893
 2781W        W18250  14.522   8.529   2.801  0.1863 -0.5260 -0.0693
 2782W        W18251  16.022  14.538   3.551  0.0491 -0.0442 -0.0944
 2783W        W18252   4.834   3.705  14.578  0.1371 -0.1018 -0.2441
 2784W        W18253  17.644  18.161   2.399 -0.0488 -0.1161  0.1894
 2785W        W18254  13.369   9.763   4.748  0.1452 -0.1963 -0.0598
 2786W        W18255   8.812   3.522  13.000 -0.0239  0.3903  0.2733
 2787W        W18256  12.295   5.327   1.326 -0.0120 -0.0654 -0.0166
 2788W        W18257   7.696   7.555  14.503  0.1618  0.0637  0.2630
 2789W        W18258  15.130   4.978   0.448 -0.4836  0.0785 -0.2629
 2790W        W18259  12.618   8.440   0.889 -0.1634  0.0227 -0.0312
 2791W        W18260  15.447  11.224  13.679 -0.1829 -0.3743  0.2014
 2792W        W18261  17.571  15.634  10.780 -0.2442 -0.0229  0.0246
 2793W        W18262   0.931   6.649  12.168 -0.0926  0.0301  0.3013
 2794W        W18263   2.994   4.654   0.327 -0.1599  0.2208 -0.1044
 2795W        W18264   7.327  16.207  12.343 -0.1815 -0.2198  0.1879
 2796W        W18265  13.547   0.996   6.287  0.0666  0.0708 -0.1802
 2797W        W18266  13.896   5.275  11.857 -0.2664  0.0382 -0.0031
 2798W        W18267   8.078  13.149  11.985 -0.0109 -0.1294  0.1664
 2799W        W18268   0.237  16.711  12.722 -0.0284 -0.2451 -0.2502
 2800W        W18269  16.411   9.348  12.297 -0.0307  0.2428  0.3624
 2801W        W18270   5.200   1.171  15.759 -0.2109 -0.0313  0.1890
 2802W        W18271  10.496  10.714   1.107  0.0840  0.1259 -0.1437
 2803W        W18272   8.302   5.709   0.983 -0.1358  0.0735  0.1661
 2804W        W18273   3.057   2.547  14.268  0.1028 -0.0941  0.2660
 2805W        W18274  15.391   1.563   4.110 -0.0129  0.1454  0.0396
 2806W        W18275  14.886   1.502  15.257 -0.1320 -0.1235 -0.1333
 2807W        W18276   8.405  16.105  11.303 -0.0699 -0.0923 -0.2150
 2808W        W18277  11.233  14.410  15.444 -0.0669  0.1363  0.2105
 2809W        W18278   3.726  13.631  12.360 -0.1154  0.5475 -0.2025
 2810W        W18279   8.237   7.161   5.222  0.0205  0.0303  0.0543
 2811W        W18280   2.500   3.196  14.024 -0.0001  0.0042 -0.1208
 2812W        W18281   6.097   3.094   3.861  0.1285  0.0399  0.1602
 2813W        W18282   6.644  14.519  10.648  0.3611 -0.0156 -0.0864
 2814W        W18283   4.623  10.234  12.655  0.1304 -0.0653 -0.0951
 2815W        W18284   2.414  17.360  15.642 -0.3167 -0.2856  0.1029
 2816W        W18285   0.462  14.484   1.195  0.0466  0.1648  0.2231
 2817W        W18286   2.292   7.103   1.113  0.5191 -0.3362  0.1717
 2818W        W18287   7.903  12.157   2.569  0.1131 -0.1522  0.3027
 2819W        W18288   5.190   7.702   0.981 -0.0166  0.0916 -0.0270
 2820W        W18289  11.708   8.702   2.686 -0.5424 -0.4534  0.1069
 2821W        W18290  17.396  17.423   1.197 -0.0076 -0.0210  0.1590
 2822W        W18291  18.243   3.488   4.403  0.2399  0.0484 -0.1029
 2823W        W18292   2.080   6.495  11.842 -0.5294 -0.1481 -0.0615
 2824W        W18293   4.878   0.314   5.187 -0.2401 -0.0110  0.0395
 2825W        W18294  14.628  13.784   0.348  0.3743 -0.2834 -0.3090
 2826W        W18295   8.531   3.514   4.990  0.0374 -0.1284  0.1484
 2827W        W18296  14.565  13.879  11.993 -0.0208  0.1224  0.2060
 2828W        W18297   6.787   6.561   3.338  0.1404  0.0212 -0.0005
 2829W        W18298   9.193   9.053   0.803 -0.0538  0.0761  0.1505
 2830W        W18299   6.749   1.882  14.710  0.1216 -0.2482  0.0359
 2831W        W18300  11.741   6.266  11.516  0.1547 -0.1175 -0.1365
 2832W        W18301  12.996   9.360   0.997 -0.1049  0.0016 -0.2320
 2833W        W18302   5.440  14.284  15.400  0.3211  0.1513 -0.1818
 2834W        W18303   7.987   5.063   5.080 -0.2710 -0.1634  0.2811
 2835W        W18304  10.939  18.142   3.557 -0.0561 -0.1150 -0.1416
 2836W        W18305   2.425  17.438   0.383  0.2832  0.1458  0.0995
 2837W        W18306   0.990  11.388   3.210  0.2637 -0.0895 -0.1656
 2838W        W18307   0.029  11.480   2.106  0.3621  0.0470  0.0941
 2839W        W18308  10.443  10.008   0.399  0.0273  0.3031 -0.0294
 2840W        W18309  15.853   7.277   5.590 -0.0543  0.5585  0.4091
 2841W        W18310   8.904  17.599  12.565  0.0690  0.0317  0.1207
 2842W        W18311  17.082  15.832   1.216 -0.1782  0.0253  0.1819
 2843W        W18312  17.849  14.013   2.109  0.0977 -0.1844  0.1665
 2844W        W18313  16.328  14.600  11.653 -0.0129 -0.2950 -0.0972
 2845W        W18314   8.812  17.769   4.982 -0.0192  0.0723 -0.1045
 2846W        W18315   4.231  11.854   2.711 -0.0649 -0.0875  0.1027
 2847W        W18316  13.578  16.929   2.794 -0.0844  0.0881  0.2152
 2848W        W18317  13.753   2.922  13.963 -0.0145  0.0629 -0.2468
 2849W        W18318   5.255   3.484   4.172  0.0410  0.0126  0.0791
 2850W        W18319  15.158   0.018  13.044  0.1673  0.0715  0.0449
 2851W        W18320  13.892   4.161  14.603 -0.0772 -0.1405 -0.0947
 2852W        W18321   0.818  12.281  15.156 -0.1695 -0.2487  0.2222
 2853W        W18322  17.604  13.817  10.927  0.0475 -0.0913 -0.1351
 2854W        W18323  16.629  10.656  11.267  0.0263  0.2069 -0.1769
 2855W        W18324  17.796   6.096  14.511 -0.0504 -0.4825  0.1522
 2856W        W18325   9.993   8.342   4.993  0.0179  0.2140  0.2012
 2857W        W18326   5.162  14.132  12.000 -0.2440 -0.2149  0.0395
 2858W        W18327   6.690   7.473  12.812 -0.2829 -0.1315 -0.1701
 2859W        W18328  12.016  16.198   3.980 -0.0548  0.0082 -0.1911
 2860W        W18329   3.691  13.446   2.034  0.1141 -0.0184  0.1091
 2861W        W18330  17.379   6.590   4.857 -0.0505 -0.3145 -0.1465
 2862W        W18331   7.749   8.420   3.921  0.1612  0.0484 -0.1344
 2863W        W18332  11.715   9.456   5.077  0.0843  0.2484 -0.0807
 2864W        W18333  15.702  17.496  15.503 -0.0835  0.0523 -0.0188
 2865W        W18334   4.888   2.332  16.047  0.3199  0.1447 -0.3509
 2866W        W18335  12.521   5.140  10.989 -0.3335  0.3606 -0.1514
 2867W        W18336   4.779  14.833  12.339 -0.0504  0.1051 -0.1413
 2868W        W18337  11.658  14.991  12.875  0.0082  0.0221 -0.0543
 2869W        W18338  14.666  15.730   0.286 -0.0031 -0.0335  0.0453
 2870W        W18339   7.160  17.681   1.713 -0.3490  0.0687  0.0567
 2871W        W18340  10.504   7.941   2.296  0.0041  0.0267  0.2145
 2872W        W18341   2.365   4.055  14.503  0.2055  0.0400 -0.1079
 2873W        W18342   0.583  11.531  12.184  0.0371 -0.1196  0.0842
 2874W        W18343   1.188   2.235   0.767  0.0411 -0.5330 -0.0093
 2875W        W18344  10.274   1.543   1.339  0.0019 -0.2083 -0.2265
 2876W        W18345  16.023   0.814  15.364 -0.2514 -0.1992  0.1852
 2877W        W18346   9.906  16.033   4.014 -0.1318 -0.0567  0.1108
 2878W        W18347   2.400   8.395   2.687  0.2006  0.1392 -0.1753
 2879W        W18348  13.836   0.391   2.833  0.0247 -0.0399 -0.0553
 2880W        W18349   8.844   8.944   4.670  0.1752  0.3329  0.2701
 2881W        W18350   9.958  14.041  14.155 -0.1618  0.0442 -0.1414
 2882W        W18351   9.584   7.191   1.356 -0.1482  0.2334  0.0255
 2883W        W18352  15.383  12.689   1.549 -0.3723  0.4862 -0.1910
 2884W        W18353   0.903  13.562  15.006  0.1058 -0.0882 -0.0622
 2885W        W18354   6.505   9.397   2.123 -0.1011 -0.0415 -0.2224
 2886W        W18355   5.457   4.586   4.938 -0.1693  0.1316 -0.2877
 2887W        W18356  13.140   7.421  10.939  0.1083  0.2746  0.3680
 2888W        W18357   8.187  16.014   3.810 -0.1512 -0.1292  0.0399
 2889W        W18358   9.548  17.102   4.098 -0.1336  0.1339  0.2567
 2890W        W18359   5.004   2.408   3.957 -0.0345  0.0200  0.1277
 2891W        W18360   8.238  17.270   1.980 -0.0101 -0.4033 -0.2419
 2892W        W18361   8.970  10.798  12.878  0.3495  0.3293  0.0912
 2893W        W18362   2.576   5.771   3.478 -0.0153 -0.3690 -0.2433
 2894W        W18363   2.065   6.732   4.499  0.1007 -0.0856 -0.0131
 2895W        W18364  16.113  15.222   1.577 -0.0035  0.0107 -0.0690
 2896W        W18365  13.241  13.897  13.996 -0.0295  0.2163 -0.0721
 2897W        W18366  12.003  12.650  11.771 -0.1755 -0.0276 -0.0050
 2898W        W18367  15.391  10.650   2.228 -0.1604 -0.1654 -0.0916
 2899W        W18368  13.236   8.514  11.665  0.0393  0.2474 -0.1064
 2900W        W18369   6.545  15.424   1.921  0.1965 -0.0920 -0.0558
 2901W        W18370  16.585   7.725  15.150  0.0759 -0.1523 -0.1819
 2902W        W18371   4.416  16.448  14.370  0.3716 -0.0257 -0.0349
 2903W        W18372  16.867   7.391  13.215  0.0132 -0.0899  0.1479
 2904W        W18373  11.582  13.660  15.688 -0.0199  0.0298  0.0060
 2905W        W18374  17.078   6.385   3.980 -0.0060 -0.2128  0.1441
 2906W        W18375  10.578  15.646   5.420 -0.0408 -0.1769  0.0039
 2907W        W18376   2.411   1.438   1.945 -0.5244  0.1632  0.0599
 2908W        W18377  16.508  18.162   3.163  0.1416 -0.0537 -0.0934
 2909W        W18378   1.424  14.506   1.391  0.1936  0.0157 -0.0931
 2910W        W18379   4.658  11.116   1.425 -0.3577  0.2620  0.1909
 2911W        W18380  16.989   2.704  11.523  0.0248 -0.1154 -0.1688
 2912W        W18381  16.731  11.894  11.359 -0.2527 -0.0396 -0.2517
 2913W        W18382   1.307   2.517   1.833  0.1243  0.1499 -0.2057
 2914W        W18383   6.178  10.472  12.229 -0.0653 -0.2552 -0.1409
 2915W        W18384   4.094   7.044  11.981 -0.1710 -0.0878 -0.2304
 2916W        W18385   4.898  13.343   1.416 -0.3788  0.1432 -0.0568
 2917W        W18386   7.330   4.968  13.797  0.0318 -0.1566 -0.0553
 2918W        W18387   4.831   3.370   1.176 -0.0554  0.2535  0.1365
 2919W        W18388  13.285   3.555   5.603 -0.0600  0.1557  0.0513
 2920W        W18389  11.880   9.830  12.621  0.0719  0.0474  0.2815
 2921W        W18390  14.021  18.197  14.877 -0.2355  0.1871 -0.0462
 2922W        W18391   0.150   2.608   5.208 -0.0643 -0.1205  0.1566
 2923W        W18392  16.980   6.972   0.007  0.1582  0.0982  0.0236
 2924W        W18393   1.893   8.911  13.078 -0.1526  0.1734 -0.0910
 2925W        W18394  17.966   5.673  14.105 -0.1067  0.1333  0.0163
 2926W        W18395  15.983   2.293   3.161  0.0069 -0.1860 -0.4452
 2927W        W18396  12.330  13.868  14.089  0.0523 -0.3861 -0.0813
 2928W        W18397   0.834   4.529   3.491  0.0873 -0.1838 -0.0380
 2929W        W18398  12.145   1.671   1.835 -0.3095  0.1389  0.1734
 2930W        W18399   8.804  16.743  13.873 -0.0364  0.3857 -0.2928
 2931W        W18400  16.998   6.339   4.646 -0.0363  0.0933  0.1840
 2932W        W18401  12.604  16.580   1.189 -0.2613  0.0421 -0.2257
 2933W        W18402   5.227   2.112   1.160 -0.0900  0.1079  0.0432
 2934W        W18403   5.755   0.175   5.355  0.0476 -0.1771  0.1735
 2935W        W18404   1.816  16.334  14.809  0.0727  0.3116  0.1196
 2936W        W18405  12.671  17.060   0.493  0.3575 -0.0111  0.3156
 2937W        W18406  13.914  12.808   0.065  0.1076 -0.0259 -0.0565
 2938W        W18407  12.830  12.102   3.080  0.3165  0.0355  0.1260
 2939W        W18408  16.695   8.479  15.552 -0.0725 -0.2141 -0.1046
 2940W        W18409  16.290   5.494  13.700  0.1086  0.1780  0.1519
 2941W        W18410   4.703   9.254  15.784 -0.2969 -0.3330  0.2047
 2942W        W18411  10.989   8.007   2.660 -0.1976 -0.5093 -0.3832
 2943W        W18412   7.530   7.451  15.486 -0.0961 -0.0535  0.1709
 2944W        W18413  13.901  18.128   4.872 -0.1992 -0.4029 -0.1177
 2945W        W18414  13.277  17.145  13.889 -0.0105  0.2022 -0.0700
 2946W        W18415   0.174   7.577  15.074  0.0901 -0.2661  0.0970
 2947W        W18416   1.254  15.599  11.906  0.0371 -0.0395 -0.0936
 2948W        W18417  11.463   8.338   2.954  0.2077 -0.1089  0.0780
 2949W        W18418  15.872   4.368  14.946  0.1064  0.1508  0.0516
 2950W        W18419   1.702  17.129   0.956  0.3210 -0.1146 -0.1041
 2951W        W18420   0.004  18.235   6.269 -0.2322  0.0128 -0.1860
 2952W        W18421   4.255  11.550   3.532  0.0763 -0.2196 -0.2661
 2953W        W18422   6.874  17.852  14.597 -0.4529  0.1798 -0.0810
 2954W        W18423  18.081  15.845   2.019 -0.2049  0.1212 -0.0003
 2955W        W18424  11.278   2.801  14.690 -0.0709 -0.0630 -0.1082
 2956W        W18425  16.527  10.964   3.865 -0.0018 -0.1235 -0.1939
 2957W        W18426  14.238  12.966  13.473 -0.0187  0.3169  0.0047
 2958W        W18427  11.929  13.942   2.896 -0.0939 -0.4508  0.0949
 2959W        W18428  10.630  12.897  15.990 -0.0680 -0.2456  0.0049
 2960W        W18429  16.730   7.432   2.646 -0.0560  0.2686 -0.0504
 2961W        W18430   2.387  11.179   0.882  0.1736  0.0306  0.1356
 2962W        W18431  15.411   8.488   4.624 -0.2717 -0.0990 -0.1467
 2963W        W18432   5.763  10.981  14.161 -0.1912  0.0659 -0.1849
 2964W        W18433   2.376  10.238   4.027 -0.0128 -0.0683 -0.0505
 2965W        W18434   4.912   5.672  13.313  0.2848 -0.1013  0.2573
 2966W        W18435   0.499   3.186  13.539  0.2683 -0.1953 -0.0536
 2967W        W18436   0.231   9.290   5.015  0.3981 -0.1199  0.1149
 2968W        W18437   5.428   2.025   0.083  0.0348 -0.0868 -0.2186
 2969W        W18438   8.145  11.761   2.331 -0.0154 -0.2009  0.0419
 2970W        W18439   4.818   9.941  10.560 -0.0390  0.0314 -0.3709
 2971W        W18440  11.654   7.166  11.119 -0.1014 -0.2092  0.0952
 2972W        W18441   4.319   2.289   3.075  0.1325  0.1263  0.0430
 2973W        W18442  16.918   6.968   3.382 -0.1645  0.2696 -0.4303
 2974W        W18443   0.326  12.251   0.370 -0.0739  0.0831 -0.0134
 2975W        W18444   9.337   8.657  14.826 -0.1845 -0.2076  0.4863
 2976W        W18445  17.603   8.643   2.056  0.3475 -0.1731  0.2108
 2977W        W18446  15.176  11.546   0.494 -0.1991 -0.0011  0.0247
 2978W        W18447   1.177   7.690   2.349  0.3991 -0.0611  0.0697
 2979W        W18448   4.562   8.493  14.563  0.1493  0.2534  0.3305
 2980W        W18449  13.582   4.935  12.104  0.3081  0.1709  0.0893
 2981W        W18450   7.502   4.465   0.811  0.1135 -0.1424  0.1684
 2982W        W18451  15.563   2.699  13.759  0.0518  0.0233 -0.5156
 2983W        W18452   3.449   0.612   3.483 -0.3640  0.0541  0.0672
 2984W        W18453   8.769   8.032  11.378  0.0908  0.0015  0.2053
 2985W        W18454  17.164   6.797   5.449  0.1864 -0.0291  0.0535
 2986W        W18455  17.222  18.064   3.897 -0.0247 -0.2481 -0.1515
 2987W        W18456   6.011   9.244  14.237  0.1166  0.0173 -0.1175
 2988W        W18457  12.454  15.294  13.229 -0.0870  0.1868  0.2978
 2989W        W18458  16.597   1.670  13.501 -0.1843 -0.2869  0.2811
 2990W        W18459  12.405  14.092  10.938 -0.1659  0.1149 -0.1966
 2991W        W18460   5.238  13.564   4.741 -0.0433  0.0077 -0.1558
 2992W        W18461  13.240   1.225   5.185  0.2083  0.2213  0.3011
 2993W        W18462  11.996   1.537   3.206  0.0944  0.0468 -0.1997
 2994W        W18463   4.462   3.560  10.166  0.0650 -0.1428  0.0079
 2995W        W18464   4.295  15.334  15.620  0.1069  0.0661  0.1030
 2996W        W18465   5.331   0.395   3.815  0.0352  0.0750 -0.0301
 2997W        W18466  10.681   9.774  11.435  0.1454  0.0232 -0.0930
 2998W        W18467  11.958   8.832  11.075 -0.2170 -0.2126  0.3079
 2999W        W18468   9.338  10.933   3.245  0.0404 -0.1545 -0.1564
 3000W        W18469  14.541   9.652  11.943 -0.0382  0.0121 -0.1099
 3001W        W18470   9.713   1.347  13.776  0.0546  0.2007 -0.0012
 3002W        W18471   8.876  17.807  15.537  0.0681 -0.2736  0.0586
 3003W        W18472   3.977   2.279  12.287  0.0145 -0.0127  0.1002
 3004W        W18473  11.001  14.621   3.581 -0.1574  0.1799  0.1669
 3005W        W18474  13.404   3.955  13.625 -0.2073 -0.1114 -0.0018
 3006W        W18475   2.502   3.526  13.248 -0.1794 -0.1171  0.2134
 3007W        W18476   0.607   5.609   1.429 -0.2801 -0.0952  0.1981
 3008W        W18477  15.490   2.192   1.193  0.0682  0.2002 -0.1480
 3009W        W18478   5.125   4.290  15.247 -0.0608 -0.1604  0.0803
 3010W        W18479  14.250  11.734   1.277 -0.0980 -0.2093 -0.4361
 3011W        W18480   5.416   9.140   9.950 -0.0365 -0.0464  0.1357
 3012W        W18481   0.210  15.870  14.705 -0.0947 -0.0889  0.3651
 3013W        W18482  10.801  16.350   0.727  0.0447  0.0969  0.2779
 3014W        W18483  18.077  12.888   3.697  0.2396  0.2135  0.2590
 3015W        W18484   1.394  14.662  14.263  0.0602  0.3983  0.3175
 3016W        W18485   8.142   2.030   3.786  0.0533  0.1530 -0.0056
 3017W        W18486   1.000   9.449   0.884  0.0097 -0.0500  0.0910
 3018W        W18487   8.869  17.981  12.239 -0.0682 -0.1242 -0.0837
 3019W        W18488  15.730  14.733  11.240  0.1322  0.0573  0.2371
 3020W        W18489   8.773   6.726  15.409  0.1486  0.2624  0.0089
 3021W        W18490   4.871   2.244  13.748  0.0310  0.2850  0.0616
 3022W        W18491   9.092   4.716  11.202 -0.0238  0.1918  0.0445
 3023W        W18492   1.590   8.938   4.004  0.2585  0.0095 -0.2642
 3024W        W18493  17.448   5.087   0.098 -0.0862 -0.2034 -0.0408
 3025W        W18494   1.265  12.091  11.842  0.1322  0.2627 -0.0363
 3026W        W18495   2.104   8.534   0.988  0.1202  0.1063  0.0337
 3027W        W18496  16.772  14.778   1.294  0.1036  0.1862  0.0268
 3028W        W18497   5.908   6.231   0.782 -0.1383  0.0704  0.2259
 3029W        W18498   9.317  16.597  10.893  0.0765 -0.0369 -0.0345
 3030W        W18499   4.005  14.637   2.770  0.0773 -0.1406 -0.0276
 3031W        W18500  13.524  14.245   2.784  0.0935 -0.1636 -0.1430
 3032W        W18501  16.771  17.997   3.915  0.1097  0.0232  0.0863
 3033W        W18502   4.393  17.370  12.115 -0.0321  0.1239  0.0679
 3034W        W18503  17.366   6.108  14.165 -0.0523  0.0327  0.0252
 3035W        W18504   4.998  10.680   2.302 -0.2419 -0.0547  0.0925
 3036W        W18505  15.368  14.370  12.081 -0.0019  0.0970  0.0105
 3037W        W18506   0.734  14.430   2.850 -0.0378  0.2095  0.1625
 3038W        W18507  12.113   4.836  13.673  0.2380 -0.0630 -0.1212
 3039W        W18508   9.650  10.461   3.636  0.1234 -0.1840  0.0794
 3040W        W18509  12.239  10.811   4.926 -0.0822  0.0494  0.0112
 3041W        W18510   4.394  14.854   9.971  0.3210 -0.2087  0.3037
 3042W        W18511   4.777  11.335   3.403  0.2080  0.2440  0.2162
 3043W        W18512   5.188   4.980  13.692  0.1589  0.3835 -0.0394
 3044W        W18513  11.681  12.834  12.076 -0.1163 -0.2044 -0.0821
 3045W        W18514   5.458  11.111   4.293 -0.0928  0.3442  0.1412
 3046W        W18515  16.180   7.264   4.567 -0.2016 -0.0445  0.1855
 3047W        W18516   3.718   3.560  12.264 -0.0883 -0.4453  0.1044
 3048W        W18517  14.583  10.458   2.948  0.0152  0.0300 -0.2215
 3049W        W18518   8.498  15.464  15.227 -0.0913 -0.0354  0.1536
 3050W        W18519   7.477  13.962   3.167 -0.1380 -0.1091 -0.2810
 3051W        W18520   1.044   5.469  14.281 -0.3012 -0.2330 -0.1683
 3052W        W18521  16.449  13.155   5.361  0.0226 -0.1040  0.0374
 3053W        W18522   3.950   9.534  12.127 -0.1124 -0.1365  0.0648
 3054W        W18523  17.050   0.584   2.310  0.0468  0.0679  0.1645
 3055W        W18524   8.691   1.053  14.008  0.2408 -0.1008 -0.0328
 3056W        W18525   3.872   6.976   2.610  0.1622  0.1496 -0.2376
 3057W        W18526  12.742   3.979  11.828  0.0388 -0.1286 -0.1998
 3058W        W18527   0.076  12.473  13.877 -0.0255 -0.0797 -0.2344
 3059W        W18528   3.622   9.788   5.274 -0.2794 -0.1240 -0.3484
 3060W        W18529  13.379  17.783  15.465 -0.0376  0.1587 -0.0326
 3061W        W18530   6.585  16.160   6.236 -0.0364 -0.0790  0.0251
 3062W        W18531   6.302   7.741   3.893  0.0145 -0.0905  0.1762
 3063W        W18532   1.929  14.247   4.975  0.1169  0.2252 -0.2277
 3064W        W18533   5.997  15.033   3.275 -0.0169 -0.0504 -0.3382
 3065W        W18534   2.408   3.555   1.072  0.1158  0.0942  0.0652
 3066W        W18535   4.016   0.955  12.691  0.0890 -0.3188 -0.0804
 3067W        W18536   5.403  14.079   5.426 -0.4255  0.2512 -0.1925
 3068W        W18537  14.053  13.802  13.354 -0.3292  0.0395 -0.1773
 3069W        W18538   0.008  17.918   3.465 -0.1981 -0.3441 -0.2178
 3070W        W18539   5.890   3.537   4.601 -0.2626 -0.0283 -0.3351
 3071W        W18540   9.724  10.130  13.496 -0.0169  0.1311 -0.2277
 3072W        W18541   7.450   6.878  12.360 -0.1504  0.1002  0.4456
 3073W        W18542   8.133   1.378  11.739  0.1345 -0.1126 -0.2486
 3074W        W18543   8.591  15.496   0.127 -0.2310 -0.1979 -0.1576
 3075W        W18544  18.234   1.332   5.325  0.1641  0.0029 -0.0302
 3076W        W18545   0.013   9.529   4.021  0.0193  0.1781 -0.0026
 3077W        W18546   3.026   9.876  10.571  0.0112 -0.1398  0.0134
 3078W        W18547  17.034  14.106  14.742  0.0180 -0.2043  0.0531
 3079W        W18548  13.791   5.438  12.916 -0.0916 -0.0659  0.1782
 3080W        W18549   7.454   7.075  14.581  0.3706 -0.1762 -0.2983
 3081W        W18550   0.009  13.741  14.865 -0.0089 -0.0697  0.0881
 3082W        W18551   9.837   5.131   1.048 -0.1828 -0.0416 -0.0932
 3083W        W18552   3.222   4.728   2.797  0.3284 -0.1721  0.2121
 3084W        W18553   3.622   5.186  12.372  0.0686  0.3829 -0.0300
 3085W        W18554   7.257   3.973   0.944 -0.0072 -0.1916  0.1437
 3086W        W18555  15.973  11.412   3.211  0.1832 -0.0824  0.0407
 3087W        W18556  18.179  13.342   4.981  0.0870 -0.0569 -0.0520
 3088W        W18557  13.324   3.973   0.397  0.1795  0.0762  0.2203
 3089W        W18558  11.446   8.320   4.387 -0.1639  0.0135 -0.1383
 3090W        W18559   7.332  17.506   2.129 -0.0261 -0.3481 -0.0966
 3091W        W18560  17.652   2.127   3.629  0.0508 -0.2148  0.2344
 3092W        W18561   6.954  16.007  14.001  0.0680  0.0882  0.3056
 3093W        W18562   4.227  11.059   4.893 -0.3540 -0.2840  0.0012
 3094W        W18563  16.180   5.212  15.137 -0.3170  0.1777  0.2670
 3095W        W18564   3.299   8.993   3.394 -0.3200 -0.1578  0.3095
 3096W        W18565  17.867   1.829  15.349 -0.1684  0.0748  0.0624
 3097W        W18566  13.468  10.260   4.768  0.0514  0.0814  0.0053
 3098W        W18567   1.470   7.202  14.971 -0.3105 -0.0018  0.0074
 3099W        W18568  17.052  12.095   4.568 -0.0640  0.0294 -0.0899
 3100W        W18569  14.957   6.318  13.303 -0.4512  0.1839 -0.2434
 3101W        W18570   4.565  15.071   0.427 -0.0683  0.0080 -0.0826
 3102W        W18571  17.243  16.481   3.534 -0.1833  0.1254 -0.1704
 3103W        W18572   3.738   8.946   5.079 -0.1155  0.0793 -0.0129
 3104W        W18573   8.077   6.080   2.856 -0.0268 -0.2331  0.1588
 3105W        W18574   0.402   7.119   3.347 -0.0215 -0.0875 -0.2394
 3106W        W18575  14.357   1.212  12.181  0.1395  0.1649 -0.1200
 3107W        W18576  12.990  17.552  10.202 -0.2721  0.0276  0.0094
 3108W        W18577   1.815  16.158   4.989 -0.2429  0.1439 -0.3127
 3109W        W18578   9.146  16.991  11.210 -0.0994 -0.1447  0.3411
 3110W        W18579   3.469   3.969   1.522 -0.0772 -0.0468  0.1764
 3111W        W18580  13.417   4.516  11.803  0.1498  0.2427 -0.1205
 3112W        W18581   8.246   1.933  15.048 -0.0351 -0.3035 -0.0638
 3113W        W18582   0.767  16.535  14.469 -0.0891  0.0321 -0.0879
 3114W        W18583   7.212   3.074  11.908  0.1248 -0.0737  0.5144
 3115W        W18584   2.059  16.159  15.991 -0.4826  0.2073 -0.2758
 3116W        W18585  11.099   6.314   0.806  0.0371  0.2430  0.1424
 3117W        W18586   2.707   1.758  13.760  0.0869  0.0669  0.1275
 3118W        W18587  10.669   3.850   1.384  0.0552 -0.2230  0.0674
 3119W        W18588   5.606   6.109  12.595 -0.1667 -0.0396  0.0375
 3120W        W18589   6.475  10.333   1.274  0.0283  0.1750  0.1680
 3121W        W18590  13.710  16.653   3.559  0.3605 -0.2297  0.0802
 3122W        W18591  12.145  16.180  13.047  0.0769  0.2619  0.0739
 3123W        W18592   0.834  11.737  12.785 -0.1233  0.0387  0.2883
 3124W        W18593   7.364   9.619  11.022  0.2314 -0.0400  0.3946
 3125W        W18594   7.370   9.434   0.621 -0.1445  0.1198  0.0419
 3126W        W18595  13.508   7.515   4.036  0.0133  0.0246  0.2028
 3127W        W18596  10.260   9.683  12.845 -0.1476  0.0637  0.0491
 3128W        W18597  12.856   0.669   1.720 -0.1448 -0.4142 -0.1762
 3129W        W18598   2.771   3.243   3.882  0.1680  0.1376 -0.1946
 3130W        W18599  10.527  11.469  11.863 -0.2093  0.4949 -0.0203
 3131W        W18600   0.273   4.511   2.672 -0.1707 -0.0918  0.1397
 3132W        W18601   6.576   1.101   2.422  0.0425 -0.0567  0.0476
 3133W        W18602   0.230   9.803   5.642 -0.2493 -0.0464  0.1455
 3134W        W18603  12.278  15.736  10.876  0.2021  0.2070  0.1758
 3135W        W18604  17.751   4.813   1.500 -0.2962 -0.0633  0.0079
 3136W        W18605   1.577  12.007   1.506  0.0735  0.1183  0.2753
 3137W        W18606   7.058  12.484   4.543  0.2459  0.1690  0.1833
 3138W        W18607   3.534   4.360  11.978  0.0132  0.0152  0.3329
 3139W        W18608  17.495  12.353   4.704  0.1600  0.4088 -0.0859
 3140W        W18609   8.799  17.693  13.543 -0.1924  0.0615 -0.0382
 3141W        W18610  18.045  17.530  15.085 -0.1147 -0.0959  0.1345
 3142W        W18611   8.815   5.948   4.604  0.1522  0.1078  0.2831
 3143W        W18612  15.807   5.257   1.935 -0.0144 -0.2743 -0.1811
 3144W        W18613   7.523  15.771   3.060 -0.1484  0.1055 -0.1026
 3145W        W18614  15.774   6.437  13.674  0.1649 -0.0219  0.0817
 3146W        W18615   7.480   6.371   0.475  0.0440 -0.1892 -0.0138
 3147W        W18616   3.650   5.467   2.771  0.4182  0.0909 -0.1234
 3148W        W18617   8.783   0.189   1.867  0.0668  0.0134 -0.1509
 3149W        W18618   2.175  10.034  12.353  0.0814  0.1969 -0.0283
 3150W        W18619   8.462  15.063   3.300 -0.1967 -0.0682 -0.1137
 3151W        W18620   6.442   8.445   4.253  0.0077  0.1785 -0.0981
 3152W        W18621   7.729  17.293   3.265 -0.1665 -0.2080  0.2573
 3153W        W18622  14.236   8.507   2.377 -0.1022  0.1957  0.1320
 3154W        W18623  16.830   5.728  15.154  0.0870  0.5068 -0.1715
 3155W        W18624  10.955   5.080   1.492 -0.2965 -0.0374 -0.1848
 3156W        W18625   2.662  18.287  15.295 -0.1140  0.2006  0.0265
 3157W        W18626   0.406   3.698   4.339  0.1495 -0.1699  0.1131
 3158W        W18627   3.973   6.874   0.071 -0.3394  0.2649 -0.0858
 3159W        W18628   1.302  13.661  14.046 -0.0781 -0.2539 -0.0463
 3160W        W18629  15.479   7.991   2.350  0.0284  0.2244 -0.0822
 3161W        W18630   0.507   3.297   1.672  0.0311  0.0503 -0.0987
 3162W        W18631   6.254  10.393   0.028  0.1567  0.1079  0.0088
 3163W        W18632   2.574   5.437  11.116 -0.0378  0.2582 -0.1288
 3164W        W18633  11.503  14.089   0.585 -0.1965  0.0948 -0.0995
 3165W        W18634   3.513  18.010   1.108 -0.0745 -0.2598 -0.2519
 3166W        W18635   5.717  17.449   3.604  0.0150  0.1463 -0.1010
 3167W        W18636   6.092  11.547   0.929 -0.0576  0.1019  0.1954
 3168W        W18637  12.176   6.289   4.809  0.1008  0.1880  0.2216
 3169W        W18638   8.404   0.660   5.621 -0.0933  0.1193  0.0129
 3170W        W18639   1.984  16.519  12.259  0.2253 -0.1721  0.1961
 3171W        W18640   1.316   8.914   2.152 -0.1782  0.0612  0.0139
 3172W        W18641  11.531   9.985   2.800 -0.2261  0.0765  0.0630
 3173W        W18642   4.909  17.445  16.005 -0.1838  0.0536  0.0929
 3174W        W18643   9.941   2.294   2.709 -0.1940 -0.1399 -0.3352
 3175W        W18644   2.269   2.584   2.023  0.0812 -0.2020  0.0353
 3176W        W18645   9.698   1.199   5.463  0.0108  0.0552  0.1260
 3177W        W18646  14.937   7.537   1.782  0.3182  0.0416  0.1397
 3178W        W18647   1.741  13.453   4.588 -0.1788  0.2657 -0.0114
 3179W        W18648   7.799  15.582   0.776 -0.0943 -0.1481 -0.1255
 3180W        W18649   0.352   1.997   3.114 -0.0421  0.1221  0.0061
 3181W        W18650  14.905  13.288   0.416 -0.1562 -0.0809  0.0018
 3182W        W18651   8.977   9.133  14.271 -0.3912  0.0867 -0.2223
 3183W        W18652   5.655  14.023  14.941  0.0674  0.0705  0.1500
 3184W        W18653   0.205  13.610   2.864 -0.0826 -0.0025  0.0521
 3185W        W18654   9.631  14.129  15.027  0.0013 -0.0547 -0.1316
 3186W        W18655  17.846   6.793   5.998  0.0203 -0.3563  0.3987
 3187W        W18656   2.381   9.771  13.462  0.4719 -0.0039  0.0689
 3188W        W18657  13.034   3.441  11.068 -0.0519  0.3298 -0.0448
 3189W        W18658  17.749   9.021  16.062  0.1143  0.0357  0.3666
 3190W        W18659   8.741   9.259   4.069  0.1416 -0.1088 -0.0651
 3191W        W18660   0.091   5.262  14.385  0.2166  0.0228 -0.2817
 3192W        W18661  14.768  12.928  11.437  0.0455 -0.1020 -0.0156
 3193W        W18662   7.724   5.507  15.861 -0.1683  0.1046  0.0851
 3194W        W18663  14.773   4.125   0.065 -0.2514 -0.0857 -0.0357
 3195W        W18664  16.967  13.214  11.583 -0.0917 -0.0969 -0.1665
 3196W        W18665   4.665  16.982   1.798  0.1417 -0.2125  0.0931
 3197W        W18666   3.952   0.443   3.503 -0.0255 -0.2454 -0.1965
 3198W        W18667  10.279  11.072  12.603  0.2687  0.1532 -0.0580
 3199W        W18668   4.508   7.413  15.296 -0.0169  0.0386 -0.3622
 3200W        W18669  10.696   8.787   1.298  0.0362 -0.1222  0.0453
 3201W        W18670  11.501   6.055   0.513 -0.2549  0.1622 -0.1875
 3202W        W18671  17.946   6.312   3.297  0.2102  0.0294 -0.1287
 3203W        W18672   7.648   1.775   2.098  0.0466 -0.0400 -0.4959
 3204W        W18673   3.653   2.491   5.060  0.1124 -0.1150 -0.0562
 3205W        W18674  10.435  11.011  15.693 -0.2869 -0.0423  0.4836
 3206W        W18675   2.584   0.440   0.859 -0.2768 -0.1124  0.0846
 3207W        W18676   3.899   4.922   1.683  0.1450  0.0077 -0.3405
 3208W        W18677   9.328   7.016  10.819 -0.2397 -0.1307  0.1703
 3209W        W18678   1.237   1.462  15.936 -0.0906  0.2408  0.0714
 3210W        W18679   8.947   5.919  11.734 -0.1604 -0.1040 -0.1199
 3211W        W18680   1.552  15.442   4.565  0.2287 -0.2211 -0.3263
 3212W        W18681  10.426   9.559  15.466 -0.2726  0.2492 -0.1239
 3213W        W18682   3.787  16.422  15.828  0.0224  0.3028 -0.1597
 3214W        W18683   0.127  11.514   5.854 -0.0004 -0.0697 -0.1144
 3215W        W18684   0.201   0.077   1.046  0.0604  0.0762  0.1143
 3216W        W18685   8.026   0.269  12.356  0.0366  0.0964 -0.1094
 3217W        W18686  17.062   4.123  13.590  0.2808 -0.0734 -0.0624
 3218W        W18687  18.175  12.749  11.845  0.3212  0.0849 -0.1605
 3219W        W18688  15.844  17.148   2.560 -0.0723  0.3482 -0.1809
 3220W        W18689   5.401  10.664   1.885 -0.2201 -0.1120  0.4640
 3221W        W18690  11.980  14.858  13.847 -0.0419 -0.0102 -0.4727
 3222W        W18691   6.702   9.192   9.798 -0.1143  0.2494  0.0160
 3223W        W18692  18.135   6.782  15.513 -0.2587  0.0504 -0.0139
 3224W        W18693   8.294   7.792  15.041 -0.1782  0.0728  0.0570
 3225W        W18694   3.210   0.390   1.939  0.2133 -0.1128  0.0057
 3226W        W18695   6.252   6.790  13.619 -0.0132 -0.1066 -0.1243
 3227W        W18696  15.806   0.388   4.907 -0.0028 -0.0161  0.1183
 3228W        W18697  12.475   2.951   3.221 -0.1637 -0.1547 -0.1183
 3229W        W18698  14.566  10.853  13.784 -0.0626 -0.0661 -0.0152
 3230W        W18699  16.243   1.148  11.798  0.0653  0.0859 -0.2791
 3231W        W18700  14.616   0.453   5.203 -0.2362  0.1548 -0.0673
 3232W        W18701   2.366   7.376  11.355  0.0602  0.1654 -0.1170
 3233W        W18702  15.523   7.540   5.340 -0.0621 -0.1852 -0.1553
 3234W        W18703   6.281  18.045   1.152  0.1457  0.0950  0.0424
 3235W        W18704   0.356  11.634  12.666 -0.3300  0.2498 -0.1103
 3236W        W18705  15.468   5.687   1.840  0.3790  0.0252 -0.0919
 3237W        W18706  12.731   3.593   4.573  0.0459 -0.1842 -0.0953
 3238W        W18707   0.354   6.142   4.040  0.1940 -0.1735  0.0990
 3239W        W18708  11.090   2.511   4.658 -0.0371 -0.4374 -0.0388
 3240W        W18709  14.676   8.901   3.499  0.2218 -0.0462  0.1485
 3241W        W18710   4.847   1.852  11.034 -0.1579 -0.1576 -0.2537
 3242W        W18711  11.458  12.806  15.354 -0.2780  0.0098 -0.1431
 3243W        W18712  11.088  11.484  10.811 -0.0140 -0.0817  0.4228
 3244W        W18713   8.833  16.247  11.573  0.1442 -0.2264 -0.0355
 3245W        W18714  12.177   9.432   5.381  0.1853  0.1781 -0.1067
 3246W        W18715  10.993   2.554   3.691  0.2063  0.3245  0.0005
 3247W        W18716  14.796  17.800   4.565 -0.1219 -0.1282  0.2628
 3248W        W18717   3.904   3.176   2.512  0.3024 -0.1381  0.2518
 3249W        W18718  13.322   7.300   1.178  0.0122  0.1197 -0.0239
 3250W        W18719  12.480  13.779   4.920  0.2138  0.1774  0.2680
 3251W        W18720   1.985   5.393   5.142 -0.2087  0.0681 -0.0722
 3252W        W18721  12.656   9.522  13.073  0.3260  0.2207  0.2465
 3253W        W18722   3.100   0.339  14.255 -0.2427  0.1286  0.0038
 3254W        W18723  16.655   6.486  14.617 -0.0977  0.1230  0.0602
 3255W        W18724   2.504   9.312   4.285 -0.1806 -0.1223  0.0974
 3256W        W18725   1.065  16.459   2.058  0.3005 -0.0180  0.0795
 3257W        W18726  12.544  16.700  15.868 -0.0313 -0.3627 -0.1471
 3258W        W18727   3.772  11.814  16.039 -0.1165 -0.2256 -0.4119
 3259W        W18728   8.495   1.520   0.748 -0.0504  0.0508 -0.1257
 3260W        W18729   3.970  16.720  12.422  0.1893 -0.0822  0.0362
 3261W        W18730  14.769  12.557  14.553 -0.2458 -0.3688  0.0731
 3262W        W18731   3.006  11.688  14.502 -0.1528 -0.0154  0.1367
 3263W        W18732   7.485   3.492  12.052  0.1262  0.0775  0.0795
 3264W        W18733   1.180  12.566   0.723  0.0429  0.0685  0.0904
 3265W        W18734   7.756   4.859   1.973 -0.0226  0.1558  0.1087
 3266W        W18735   0.700   3.031   0.952 -0.0027  0.1241 -0.0676
 3267W        W18736  17.961  11.424  14.949 -0.0813  0.0365 -0.0912
 3268W        W18737   9.742   3.886  11.449  0.0422  0.4145 -0.1806
 3269W        W18738   1.513  13.903   0.191  0.0833  0.0277  0.0256
 3270W        W18739   6.782   4.722   1.264  0.2493 -0.3724 -0.1492
 3271W        W18740   7.764   9.549  15.636  0.0942  0.1942  0.1426
 3272W        W18741   3.493   0.248   1.118 -0.1220  0.3047 -0.2703
 3273W        W18742  15.940  15.728   3.358  0.0915  0.0452 -0.1543
 3274W        W18743  13.227  16.537  11.491  0.0661 -0.1544  0.0841
 3275W        W18744   7.581   0.569   1.611 -0.2457  0.0279 -0.1769
 3276W        W18745  17.434   0.742   0.087 -0.1039 -0.0820  0.4121
 3277W        W18746   5.779  13.381  11.871  0.0045 -0.2953 -0.1561
 3278W        W18747  15.563   8.430   5.051 -0.1045  0.1098 -0.2975
 3279W        W18748   0.041  16.250  14.172 -0.2881  0.0490 -0.0565
 3280W        W18749   8.703  15.744  12.983 -0.1808 -0.3422 -0.1133
 3281W        W18750   3.576   3.796  13.192  0.0346 -0.2836 -0.0663
 3282W        W18751  11.539   6.111   4.651  0.1908 -0.1494  0.1470
 3283W        W18752  16.022  16.646  14.408  0.1104  0.1054 -0.0679
 3284W        W18753  14.445  18.104   4.803  0.3919  0.0433  0.0160
 3285W        W18754   4.648   7.598  11.662  0.4269 -0.2653 -0.2161
 3286W        W18755   5.399   5.127   3.751 -0.1733  0.0810  0.1575
 3287W        W18756   1.730  14.889  14.552  0.2396 -0.3583  0.0547
 3288W        W18757  18.268   9.830   1.735  0.0451 -0.4400  0.1621
 3289W        W18758  18.117  16.729   4.450 -0.0103  0.0222 -0.3685
 3290W        W18759  16.166  16.829   1.116  0.1064  0.2042  0.0886
 3291W        W18760   6.653   2.375  12.085 -0.1531 -0.0581  0.1908
 3292W        W18761  10.428  15.223  13.513  0.1917  0.0732  0.1687
 3293W        W18762  11.543   8.130  12.802  0.0905 -0.1892 -0.0222
 3294W        W18763  17.478  17.824  12.387 -0.2414 -0.1723  0.1085
 3295W        W18764   0.961   1.841   5.436 -0.1760 -0.0845 -0.2898
 3296W        W18765  15.852  13.807   3.888  0.1015  0.1844 -0.0120
 3297W        W18766   5.543  16.742   5.056  0.0739  0.0819 -0.0279
 3298W        W18767  10.785   1.719   3.091 -0.1288  0.2310 -0.0942
 3299W        W18768  14.252  17.444   5.295 -0.1979  0.1424  0.4260
 3300W        W18769  13.650  12.331   5.561 -0.2715  0.0373 -0.0123
 3301W        W18770  16.700  17.617   6.223 -0.4314 -0.1554 -0.0141
 3302W        W18771  16.938  16.866   5.791 -0.1409 -0.0491  0.0009
 3303W        W18772  12.741  17.409   4.609  0.0216 -0.1816 -0.1869
 3304W        W18773   3.501  11.822  14.690  0.0772 -0.0645 -0.0303
 3305W        W18774  15.673   8.955   4.637  0.1537  0.2792 -0.1569
 3306W        W18775  14.836  10.871  15.759  0.1462  0.1644  0.2180
 3307W        W18776   4.079  12.269   3.643  0.0893 -0.0739 -0.1598
 3308W        W18777   2.915   8.312   2.031  0.2444  0.3418 -0.0165
 3309W        W18778   4.197  15.952   1.438  0.1574 -0.0296  0.0578
 3310W        W18779   6.269   2.256  15.756  0.1434  0.1493  0.3999
 3311W        W18780  17.425  11.180   1.142  0.1996 -0.0143  0.0779
 3312W        W18781   5.995   6.499   4.061 -0.0123  0.1013 -0.1246
 3313W        W18782  14.718   5.429  13.969 -0.0171  0.0687  0.2133
 3314W        W18783  10.891  11.691   1.720 -0.0518 -0.0818  0.0595
 3315W        W18784   3.745  16.665   1.796  0.2429 -0.1163 -0.1349
 3316W        W18785   6.113  16.749  14.066  0.3271  0.2198  0.0546
 3317W        W18786   8.448   1.629   4.208 -0.1681  0.1258  0.1239
 3318W        W18787  15.210   0.507  15.356  0.0121  0.2221 -0.3091
 3319W        W18788   0.270  17.777   1.020 -0.2897  0.0075 -0.0668
 3320W        W18789  13.748  15.734   2.680 -0.0615  0.2620 -0.3806
 3321W        W18790  10.576   8.114  12.913  0.0930  0.0777  0.3127
 3322W        W18791  14.105  11.266  11.531  0.0239 -0.2247  0.0850
 3323W        W18792   9.537  10.488   2.628 -0.4523 -0.0090  0.0397
 3324W        W18793   5.231   2.306   5.535  0.3459  0.2213  0.0904
 3325W        W18794   2.479  15.732  15.178 -0.2165  0.0950 -0.2065
 3326W        W18795  12.800   4.420  12.192  0.1333  0.1233 -0.0201
 3327W        W18796   3.086   8.018  11.453 -0.0729  0.3357  0.2442
 3328W        W18797  14.022   4.344  11.707  0.1083 -0.1129  0.0318
 3329W        W18798   8.340  15.328   2.853 -0.1285 -0.0196 -0.1844
 3330W        W18799   1.049   5.328  12.515  0.3289  0.0596  0.4292
 3331W        W18800  11.548  10.850   0.923  0.0785 -0.2518 -0.4796
 3332W        W18801   7.627   8.043  14.540  0.1099  0.0025 -0.0593
 3333W        W18802  11.360  17.011   5.055 -0.0365 -0.2158  0.0809
 3334W        W18803  12.354  15.239  15.045 -0.2689  0.0737  0.0846
 3335W        W18804  16.915   1.273  11.350 -0.0683  0.1193 -0.0828
 3336W        W18805   0.219   5.413  11.237 -0.1543 -0.1533  0.0701
 3337W        W18806   7.947  13.566   2.466 -0.1259  0.2018 -0.2140
 3338W        W18807   0.918   9.474   1.418 -0.1222 -0.1622 -0.3017
 3339W        W18808   7.938   2.975  12.717  0.0039 -0.0756 -0.3761
 3340W        W18809  15.984   7.940  12.949 -0.2408  0.1109 -0.1870
 3341W        W18810   5.555  16.253   0.626  0.4231  0.0197  0.2654
 3342W        W18811  15.832   9.343   1.632 -0.0418 -0.1267  0.1192
 3343W        W18812   9.011  17.703   2.533 -0.0765 -0.1015 -0.0396
 3344W        W18813   0.637   3.603  12.389  0.0484 -0.2442 -0.2092
 3345W        W18814  10.491  12.095  13.730 -0.0309  0.1518 -0.1866
 3346W        W18815   7.051   8.607  12.033  0.1327  0.1999  0.1889
 3347W        W18816   9.167   2.170  12.723 -0.3955 -0.1579 -0.2668
 3348W        W18817  14.998   1.768  15.670 -0.2507  0.0153  0.0256
 3349W        W18818  14.528   6.481  14.147  0.0767  0.2095  0.2533
 3350W        W18819   2.795  11.014   4.006 -0.1056 -0.1759 -0.0173
 3351W        W18820  14.027   8.924   2.617 -0.0366 -0.0230 -0.1527
 3352W        W18821   7.978   8.757  11.115 -0.0274  0.0287  0.1682
 3353W        W18822  16.978  16.798   2.703  0.0979  0.0233 -0.0657
 3354W        W18823   6.243   8.124  11.965 -0.1762  0.3942 -0.0252
 3355W        W18824   0.365  10.588  11.379 -0.2048 -0.0541 -0.3155
 3356W        W18825   8.201   2.775   3.811 -0.2691  0.3107 -0.0202
 3357W        W18826  14.351  17.657   1.540  0.0387  0.1858 -0.3827
 3358W        W18827   9.639   5.962   6.350  0.1748  0.0885  0.0212
 3359W        W18828  12.096  10.094  14.215  0.0388  0.0075 -0.0617
 3360W        W18829  16.966  13.283  15.551  0.0799 -0.0407  0.0149
 3361W        W18830   0.062  10.576   4.551  0.2089  0.1564  0.2036
 3362W        W18831  12.028   5.283  16.020 -0.0136  0.0229  0.2509
 3363W        W18832   4.436  15.154  14.610  0.0535 -0.1229  0.2185
 3364W        W18833   6.633   5.196   3.327  0.2065 -0.0144 -0.3868
 3365W        W18834  13.744  12.919  13.612 -0.1106  0.2830 -0.1183
 3366W        W18835  14.415  15.959  12.938 -0.0441 -0.6273  0.1804
 3367W        W18836  11.308   4.701  12.949 -0.2323 -0.1996  0.0025
 3368W        W18837   0.881  13.631   5.992 -0.1108  0.0215 -0.1626
 3369W        W18838   2.411   0.901   3.435  0.0619  0.4139 -0.1867
 3370W        W18839  16.338  14.629  15.996  0.0631 -0.1721 -0.0200
 3371W        W18840  11.254  11.072  12.242 -0.1449 -0.1433 -0.0728
 3372W        W18841  12.648  12.674  12.276  0.1490 -0.1120  0.2402
 3373W        W18842  10.812  14.586   2.289 -0.1962  0.1743 -0.1625
 3374W        W18843   0.791   2.143   4.398 -0.1625  0.1807  0.3955
 3375W        W18844  10.863   6.090  14.728  0.1634 -0.1116 -0.2053
 3376W        W18845  12.903  16.522  11.874 -0.0019  0.3769  0.0873
 3377W        W18846   6.780  10.068  12.295 -0.0321 -0.0727  0.0021
 3378W        W18847  12.792  14.714   0.617  0.0583  0.0935 -0.1194
 3379W        W18848   6.781  14.242  12.734 -0.0404  0.2648 -0.0210
 3380W        W18849   4.701  16.041   0.854  0.2011  0.3301  0.2550
 3381W        W18850  15.714   7.316   1.281  0.1354  0.0677 -0.0406
 3382W        W18851   6.429  11.392  12.139  0.4120 -0.0241  0.0534
 3383W        W18852  12.370   6.802  13.395 -0.3662 -0.0557  0.1016
 3384W        W18853   2.695   0.786   1.190  0.1972 -0.0092 -0.0761
 3385W        W18854   0.292  15.913   5.829  0.0049 -0.1247 -0.0771
 3386W        W18855   8.850  10.851   0.512  0.2006 -0.0018  0.2603
 3387W        W18856   8.947   6.494  11.741  0.1756  0.1540 -0.2369
 3388W        W18857  13.701   7.755   0.434 -0.0362  0.1383  0.2115
 3389W        W18858   2.287  12.674   1.590  0.0259 -0.1861 -0.0335
 3390W        W18859  16.454   1.313   1.700  0.1389 -0.1508  0.2345
 3391W        W18860   6.000   3.312   1.059 -0.2140 -0.1673  0.2621
 3392W        W18861   7.789   5.979  15.525  0.1112  0.0654  0.0886
 3393W        W18862   8.867  10.955  11.337  0.0280 -0.3110  0.1562
 3394W        W18863   4.765  15.715   4.174 -0.3515 -0.0044 -0.1895
 3395W        W18864   5.436   4.480  15.567 -0.2669  0.1160 -0.1857
 3396W        W18865  11.320  16.080   1.459 -0.1413  0.1833 -0.3498
 3397W        W18866   4.745   0.258  14.897 -0.1499 -0.2793  0.3284
 3398W        W18867   7.035   4.020   3.359 -0.1517  0.0007 -0.0937
 3399W        W18868   2.877  15.788   2.501  0.1388  0.0590 -0.3155
 3400W        W18869   5.833   1.288  11.719  0.1795  0.1935 -0.0625
 3401W        W18870   9.044   2.280  11.657  0.0522 -0.0442  0.3302
 3402W        W18871  15.113   8.251  11.600  0.1872  0.1746  0.1581
 3403W        W18872   9.481  16.631   4.185  0.2181  0.0838 -0.1038
 3404W        W18873   4.458   4.139  15.899  0.0908  0.1425 -0.2056
 3405W        W18874   1.525   0.014   0.663 -0.2304 -0.4495 -0.0888
 3406W        W18875  15.174  18.155   0.905  0.0219 -0.3289 -0.3153
 3407W        W18876   2.012  15.336  11.541 -0.1544 -0.1901  0.2896
 3408W        W18877   3.545   6.007  11.678 -0.0008 -0.1999 -0.2167
 3409W        W18878   9.979   3.729  11.850  0.1501 -0.3497  0.0715
 3410W        W18879   9.759   7.548  12.370 -0.0780 -0.3119 -0.0579
 3411W        W18880   4.041   2.652  13.680  0.2062  0.4233 -0.2135
 3412W        W18881   2.714   0.370   4.150 -0.3926  0.2112  0.0147
 3413W        W18882  15.081   5.048   1.029 -0.0224 -0.1244 -0.1381
 3414W        W18883   6.221   4.635   2.246  0.2427  0.1778 -0.4522
 3415W        W18884  17.804   8.743  11.338  0.3767  0.2260  0.1129
 3416W        W18885   9.620   4.785  14.508 -0.0415  0.1830 -0.0356
 3417W        W18886  10.513  14.983   6.174  0.1070  0.1905  0.0538
 3418W        W18887  11.703   1.073   1.911 -0.0346 -0.1411 -0.1897
 3419W        W18888  10.855   3.728   0.897 -0.0163  0.0020 -0.0690
 3420W        W18889   1.476  10.807   4.264  0.1381  0.5062 -0.0878
 3421W        W18890   2.755  13.838   0.414  0.1885  0.0925 -0.2898
 3422W        W18891   1.751  14.795  11.356  0.4068  0.0710  0.1712
 3423W        W18892   0.631  17.031  14.255  0.3331 -0.1646  0.1144
 3424W        W18893  13.703   0.201  14.318  0.1197  0.0642 -0.1587
 3425W        W18894   4.803   9.330  12.618 -0.2039  0.3471 -0.1535
 3426W        W18895  16.183  11.184   2.058 -0.3875  0.0270  0.0051
 3427W        W18896  17.173  17.013   4.118  0.1114  0.1592 -0.1047
 3428W        W18897  11.867   6.991  12.553  0.4012 -0.2231 -0.0645
 3429W        W18898  14.126  14.726  11.187  0.1790  0.1808  0.1897
 3430W        W18899  15.579  12.009  15.956  0.1111  0.1070  0.2334
 3431W        W18900   4.710   6.263   4.114  0.2245 -0.1896  0.0253
 3432W        W18901   1.072  15.537  13.951 -0.1410  0.0427  0.1224
 3433W        W18902   1.700  16.321   0.724  0.0469  0.1725  0.1183
 3434W        W18903  16.764   5.706  12.961 -0.0377 -0.2448 -0.0490
 3435W        W18904  14.362  11.465  13.070  0.2394  0.0007  0.0963
 3436W        W18905   8.990  14.529   0.404  0.0616 -0.0470 -0.4912
 3437W        W18906   5.266  15.992  10.952  0.1449  0.3914  0.1243
 3438W        W18907   3.151  12.087   2.098 -0.1586  0.1150 -0.1341
 3439W        W18908   2.465   7.832   0.333  0.2627 -0.1943  0.2693
 3440W        W18909  14.077   6.937   4.485 -0.2169  0.0807 -0.0221
 3441W        W18910  13.397   9.993  12.801  0.3812  0.2927  0.2589
 3442W        W18911   2.430   7.749   2.979  0.0695  0.1874  0.0749
 3443W        W18912  18.029   7.219   0.100  0.1581  0.0457  0.0289
 3444W        W18913   4.046   1.549  10.832 -0.1859 -0.1379 -0.0122
 3445W        W18914  11.728   4.256  16.088 -0.0674  0.0088  0.1883
 3446W        W18915   9.228   9.175  15.685  0.1135 -0.1939 -0.4302
 3447W        W18916   7.384   4.474   2.706 -0.0734 -0.0471 -0.0043
 3448W        W18917   0.707   6.242  15.451  0.3206  0.1178 -0.4342
 3449W        W18918   8.232   4.513   0.272 -0.0999 -0.2931 -0.4837
 3450W        W18919  11.490   1.191   3.942 -0.1774  0.2195 -0.1878
 3451W        W18920  11.180   8.533   2.001 -0.1543  0.0212 -0.0243
 3452W        W18921  14.246  18.206   6.202 -0.1369 -0.1021 -0.0974
 3453W        W18922  11.598  14.869   4.889 -0.2202 -0.0142 -0.0676
 3454W        W18923  13.275   2.731  15.089  0.0709  0.3720 -0.2732
 3455W        W18924   0.753   2.835  15.634 -0.0258  0.2940 -0.1806
 3456W        W18925   9.704   1.134  11.946 -0.4743 -0.1833 -0.1717
 3457W        W18926  17.729   9.278   2.252 -0.0792 -0.2341 -0.0241
 3458W        W18927   1.616  17.546   6.208  0.1073  0.1174  0.0493
 3459W        W18928  15.499   7.464  14.417  0.0449 -0.1766 -0.2024
 3460W        W18929  17.552   0.652   1.163 -0.1277 -0.0546  0.2295
 3461W        W18930  12.272   3.601  15.049  0.2877  0.0151  0.0769
 3462W        W18931  16.470  11.716  12.765 -0.0821 -0.1684  0.2709
 3463W        W18932   3.620   1.950  11.756  0.0262 -0.2311  0.1642
 3464W        W18933  13.664   6.746   5.244  0.2638 -0.0357  0.0932
 3465W        W18934   9.425  15.842   4.309 -0.0396  0.1705 -0.0889
 3466W        W18935   9.261   0.343   5.622 -0.0494  0.1310 -0.1584
 3467W        W18936   1.596  13.655  10.796  0.4763 -0.0674  0.0692
 3468W        W18937  11.046  15.001   4.850 -0.1359  0.0579 -0.0915
 3469W        W18938   5.678  11.517  15.185  0.1635  0.1527  0.1316
 3470W        W18939   0.042  11.250   1.252 -0.1112 -0.2200  0.0500
 3471W        W18940  11.502  10.904   1.802 -0.0750  0.0994 -0.0211
 3472W        W18941  11.828  16.617   3.648  0.0104 -0.0536  0.1023
 3473W        W18942  15.356  16.801  13.191 -0.0834 -0.0895 -0.0956
 3474W        W18943  16.202  15.224  13.969  0.2283 -0.0446  0.1434
 3475W        W18944   0.732   3.666  10.882  0.1144  0.0207  0.0775
 3476W        W18945  13.225   2.840   0.328 -0.3275  0.0563 -0.2436
 3477W        W18946   8.490  17.423   5.471 -0.0221  0.4314 -0.1853
 3478W        W18947   7.325  10.194   3.750  0.0043  0.0759 -0.1205
 3479W        W18948  14.342   9.547   6.270  0.0154  0.3498  0.2220
 3480W        W18949   6.051   5.574  16.080 -0.0297  0.1262  0.2356
 3481W        W18950  11.511   0.983  12.179 -0.1079  0.1320 -0.2818
 3482W        W18951   5.532  12.242  13.430 -0.1080 -0.0630  0.1977
 3483W        W18952   8.217  12.138   9.907 -0.0060  0.5670 -0.2008
 3484W        W18953  17.773  12.965  15.349 -0.0671 -0.0419 -0.0763
 3485W        W18954   2.167  17.799  16.024  0.0239 -0.1303  0.3437
 3486W        W18955  15.247  13.897  11.538 -0.0835  0.0675  0.0097
 3487W        W18956   7.636   4.723   4.918 -0.0414 -0.0020 -0.1619
 3488W        W18957   1.896  17.035  10.170  0.2723 -0.0639  0.3801
 3489W        W18958  17.660   6.980  11.452 -0.0245 -0.0207 -0.1340
 3490W        W18959  12.207   6.595  12.346 -0.4142 -0.0088 -0.0098
 3491W        W18960   4.732   6.473  12.732  0.0523 -0.0744 -0.2965
 3492W        W18961  15.357  15.578  15.724 -0.0854  0.1933  0.0128
 3493W        W18962  14.012   0.109  13.898 -0.2021 -0.0482  0.0643
 3494W        W18963   9.686  16.033  13.918  0.1977  0.2742  0.2295
 3495W        W18964   9.274  13.536  12.891  0.1367  0.1808 -0.0854
 3496W        W18965   8.803  15.270   3.629 -0.2783 -0.3251 -0.2649
 3497W        W18966  18.241  13.995   1.718  0.1935 -0.0155 -0.4278
 3498W        W18967   5.883  14.142   3.777  0.2421 -0.0646 -0.2430
 3499W        W18968   9.548  16.500  13.073 -0.0859 -0.0324  0.0116
 3500W        W18969  11.837   9.961   0.919 -0.0706 -0.3499 -0.2853
 3501W        W18970   9.003  13.441   5.034  0.1020  0.3149 -0.0953
 3502W        W18971   0.202   6.911   4.306  0.0378  0.0017  0.0538
 3503W        W18972   6.327   8.645  12.781 -0.2341 -0.0176  0.2300
 3504W        W18973   8.697  10.970  12.449 -0.2136 -0.0823  0.3645
 3505W        W18974  10.339  14.984   0.640  0.0554  0.1083  0.3800
 3506W        W18975   3.050  13.245   3.766  0.1226  0.4208 -0.0190
 3507W        W18976   7.265   1.601   3.498  0.1921  0.3250  0.0742
 3508W        W18977   5.785  15.736  11.615 -0.0939  0.1372 -0.2995
 3509W        W18978   9.734   4.078  15.206  0.4140  0.0552 -0.1101
 3510W        W18979  10.940   3.884  11.545 -0.0981  0.3073  0.1968
 3511W        W18980  13.493  16.935  11.293  0.0687 -0.0717 -0.1018
 3512W        W18981  12.739  14.415   4.260 -0.2872 -0.1187  0.0998
 3513W        W18982  17.771  13.356   1.598  0.0633 -0.0417 -0.2853
 3514W        W18983  11.649  11.565   3.899 -0.0817  0.3760  0.0450
 3515W        W18984  15.311   1.184  11.747  0.4190 -0.1969 -0.2403
 3516W        W18985  15.533  17.265  11.555  0.0683  0.0108 -0.2465
 3517W        W18986   2.598   6.681  12.741  0.1259 -0.0547  0.0963
 3518W        W18987  17.228   9.017   3.341 -0.3543 -0.2134  0.0498
 3519W        W18988  14.956   8.313   3.664 -0.0663 -0.0959  0.2144
 3520W        W18989   9.791   0.902   4.597  0.3080  0.0570 -0.6694
 3521W        W18990  14.363   6.987   4.918  0.0308 -0.2492 -0.0717
 3522W        W18991   0.910  10.680   2.844 -0.2141 -0.0990 -0.4135
 3523W        W18992   6.571  16.853   3.575  0.0560 -0.2529 -0.0119
 3524W        W18993   8.761   8.268   2.678  0.1009  0.2485  0.0292
 3525W        W18994  16.611   7.009   5.622 -0.3275  0.0365  0.0247
 3526W        W18995   4.491   0.416  12.309 -0.0834  0.0959  0.4313
 3527W        W18996  14.331   6.256   1.620  0.1670 -0.0989 -0.2902
 3528W        W18997  12.792  15.810   5.178  0.0054  0.2845  0.0301
 3529W        W18998  11.206  17.078  11.183  0.3068 -0.0909  0.2078
 3530W        W18999   5.443  10.239  13.108 -0.1812 -0.3551  0.0248
 3531W        W19000   6.753   2.427   1.540 -0.2933  0.1325 -0.3405
 3532W        W19001  17.041  18.240   2.211 -0.2068 -0.1441 -0.0342
 3533W        W19002   3.972  13.292   3.870 -0.0491  0.1514 -0.0151
 3534W        W19003   8.615  10.084  11.033  0.0630 -0.0984  0.0990
 3535W        W19004  13.117   8.199   3.435 -0.0616 -0.0441  0.0309
 3536W        W19005  11.652  15.975   0.490 -0.0369  0.2192 -0.1257
 3537W        W19006  13.497  10.903   0.599 -0.3988  0.0923 -0.1686
 3538W        W19007   4.363  17.454  14.422 -0.0828  0.3472  0.0028
 3539W        W19008  13.814   3.533   5.886  0.1611 -0.0286  0.1316
 3540W        W19009  12.357  17.646  12.729  0.0177 -0.0461 -0.2009
 3541W        W19010  10.095  17.893  14.469  0.0011 -0.1307  0.1247
 3542W        W19011   8.335  12.884   2.994  0.0196  0.2717 -0.2432
 3543W        W19012   0.591   1.864   0.280  0.0847  0.1462  0.2528
 3544W        W19013   0.014   5.819   3.917  0.0897  0.0031 -0.0101
 3545W        W19014  12.015   7.943   0.002 -0.2351  0.3032 -0.0531
 3546W        W19015  13.276   7.248   3.595 -0.0532 -0.1768  0.0430
 3547W        W19016   0.706   5.156   3.917  0.3906  0.1824 -0.3968
 3548W        W19017  16.785   1.721   1.799 -0.1064  0.1093 -0.0780
 3549W        W19018   2.118   9.492  12.411 -0.2752 -0.2423 -0.0363
 3550W        W19019  15.444   9.570  11.136  0.1940  0.2640  0.1237
 3551W        W19020   4.974  13.190  13.758  0.1476 -0.1098 -0.0348
 3552W        W19021   9.153  15.625   3.355 -0.1454  0.0417  0.1153
 3553W        W19022  17.028  16.308   2.035  0.1402 -0.1470  0.0339
 3554W        W19023  14.105  13.301  15.483 -0.0025  0.2398  0.0754
 3555W        W19024   4.169   7.207   3.482  0.3026  0.1607 -0.2364
 3556W        W19025   9.418   1.194   3.135  0.0299  0.1307 -0.0725
 3557W        W19026   1.498   9.567  10.691 -0.0515  0.0458 -0.0502
 3558W        W19027   9.496   6.770   2.848  0.3359  0.1921 -0.0915
 3559W        W19028  12.850   3.764  14.227 -0.1967  0.1388 -0.3511
 3560W        W19029  12.552   6.497   0.848  0.1815 -0.1740 -0.3548
 3561W        W19030   5.261  11.970   2.343  0.3108 -0.1347 -0.0061
 3562W        W19031   3.820  17.040   4.227 -0.1368 -0.0574 -0.1870
 3563W        W19032   4.795  10.525   0.012 -0.1079  0.0303 -0.0287
 3564W        W19033   2.967   8.852  14.870  0.1295  0.2305 -0.1749
 3565W        W19034   4.889  14.190   5.547 -0.0383  0.1372 -0.0069
 3566W        W19035  13.412   9.728  15.438 -0.0326  0.2864  0.3018
 3567W        W19036  12.923   3.648  15.774 -0.2099  0.0358  0.0152
 3568W        W19037   7.009  10.868   0.524  0.0697  0.3693 -0.0834
 3569W        W19038   8.066   0.790  14.169 -0.0828 -0.3088  0.3263
 3570W        W19039   7.002  17.738  10.309  0.0710 -0.3332 -0.0586
 3571W        W19040   8.142   4.268  14.543 -0.2271  0.0611  0.2618
 3572W        W19041  15.328   3.145   2.666 -0.1266 -0.0505  0.1685
 3573W        W19042   7.651  10.540   3.920  0.1274  0.1628 -0.1555
 3574W        W19043  17.438   6.417   0.516 -0.0792  0.2223 -0.0230
 3575W        W19044  14.857  13.051   5.491  0.2441 -0.2913  0.1097
 3576W        W19045  17.434   1.365  11.414 -0.2629 -0.1636  0.1313
 3577W        W19046   7.409   5.694   5.498  0.0327 -0.0708 -0.0201
 3578W        W19047   2.560   0.388  14.132  0.0690 -0.1442  0.1902
 3579W        W19048   3.496   6.499  12.366  0.0378  0.4448 -0.0091
 3580W        W19049  17.882  14.445  15.037 -0.2326  0.0666 -0.1165
 3581W        W19050   9.591   0.214  12.778 -0.2504  0.1406  0.1894
 3582W        W19051  13.994  11.046  12.913 -0.1952 -0.1805 -0.3823
 3583W        W19052   7.521   4.459  13.751  0.0531  0.0035  0.2566
 3584W        W19053  13.950   5.677   3.626 -0.1474 -0.0234  0.1216
 3585W        W19054   9.887   1.665   2.109  0.3191 -0.0143  0.0857
 3586W        W19055  16.643   8.952   3.577  0.0202  0.0058 -0.1327
 3587W        W19056   0.800   1.172   1.820 -0.0277  0.0768 -0.0963
 3588W        W19057   5.475   2.010   0.694  0.1274  0.0600 -0.1081
 3589W        W19058   2.574   9.674   4.952 -0.0825  0.3137  0.0168
 3590W        W19059   8.412   4.361  11.442  0.2142  0.2071 -0.1732
 3591W        W19060   8.186   3.297  13.552 -0.0253  0.2259  0.1348
 3592W        W19061  12.616  14.014   5.353  0.1775  0.0657  0.1135
 3593W        W19062  17.038   8.617  14.603 -0.0079  0.0196 -0.1994
 3594W        W19063  14.560  15.579  14.444 -0.3222  0.1835 -0.2002
 3595W        W19064  11.020  14.612  15.074  0.3151  0.2626  0.2522
 3596W        W19065   2.384   8.018   3.742  0.1852  0.1018 -0.0193
 3597W        W19066   3.715  13.101   0.507  0.0970  0.0452 -0.1517
 3598W        W19067  11.072   1.050   2.187 -0.1779  0.2309 -0.2825
 3599W        W19068  18.250   0.355   1.931  0.4259 -0.1292  0.2424
 3600W        W19069   4.244   3.077   3.894 -0.0957 -0.1063  0.1316
 3601W        W19070  10.669   4.519   5.600  0.0394  0.2450 -0.1033
 3602W        W19071   2.072   3.936   5.707 -0.0923 -0.1574 -0.0167
 3603W        W19072   1.091   0.642   5.250 -0.0131  0.1367  0.1080
 3604W        W19073  15.966   9.888  14.408 -0.0369 -0.0953  0.2521
 3605W        W19074  17.947   2.790   1.122  0.4049  0.1137 -0.0766
 3606W        W19075  15.541   7.566  12.065  0.0656 -0.1081 -0.1501
 3607W        W19076  16.923  17.554  12.499 -0.1149  0.2027 -0.1919
 3608W        W19077  17.062  17.720   2.116  0.3389  0.0173  0.0671
 3609W        W19078  14.818   9.540  13.716  0.1519  0.0924  0.3580
 3610W        W19079   0.739   5.637   5.003 -0.3711  0.1359  0.1563
 3611W        W19080   1.670   4.414   3.135 -0.1123 -0.0712 -0.0032
 3612W        W19081  17.360   4.444  13.935  0.0732  0.0655 -0.0964
 3613W        W19082   9.507  10.166  10.573  0.2030 -0.0288  0.0362
 3614W        W19083   7.455   5.749  13.751  0.0360 -0.4353  0.2952
 3615W        W19084  13.180   9.481   2.682 -0.4154 -0.1271  0.2108
 3616W        W19085   0.013  14.424  11.473  0.4802  0.0946  0.0115
 3617W        W19086   8.587  14.472  11.070  0.0926  0.1603 -0.0505
 3618W        W19087   7.302   2.817  13.715  0.3453  0.4747 -0.0216
 3619W        W19088  17.000  16.873  15.614 -0.0105 -0.0190  0.0539
 3620W        W19089  17.901  12.214  14.160  0.3395 -0.1102 -0.2993
 3621W        W19090  10.064   0.176   4.987 -0.1584  0.1382 -0.0217
 3622W        W19091  16.661  14.118  15.789 -0.0310  0.2183  0.0066
 3623W        W19092   4.060   4.642   2.025 -0.2014  0.1826 -0.1266
 3624W        W19093   8.353   4.892  12.503  0.1723  0.1865 -0.0235
 3625W        W19094   1.762  12.298  12.996  0.0188  0.0456 -0.0472
 3626W        W19095  18.213   6.191  14.189 -0.0112  0.1082  0.0180
 3627W        W19096  13.827  11.476  14.259  0.0761  0.1314 -0.2984
 3628W        W19097   9.273  16.319  14.673 -0.1801  0.4653 -0.2329
 3629W        W19098   9.670   9.297  10.555  0.0230 -0.1813  0.2089
 3630W        W19099  10.881   5.912  15.291 -0.0602 -0.1491 -0.0481
 3631W        W19100   3.313  16.992   0.057  0.0005  0.2214 -0.1936
 3632W        W19101   7.313   0.621  14.020  0.0585  0.3102  0.0515
 3633W        W19102   5.900   2.897  11.390  0.1868 -0.2524 -0.0146
 3634W        W19103   6.888  10.158   4.001  0.2179 -0.1482 -0.2238
 3635W        W19104  12.153   2.538  14.115 -0.0246 -0.1470  0.1011
 3636W        W19105  13.549  15.672   4.294 -0.0173  0.0122  0.1133
 3637W        W19106  14.482   4.405  15.246 -0.0056  0.0174 -0.0065
 3638W        W19107   5.847   2.298  14.590 -0.0832 -0.1760 -0.2039
 3639W        W19108  16.054  10.830   0.428  0.0142  0.1899 -0.1309
 3640W        W19109   8.947  15.470   4.668 -0.0950  0.0635  0.0806
 3641W        W19110   3.638  15.110  13.876  0.0956  0.0982  0.2806
 3642W        W19111   4.663  11.663   3.752  0.0233 -0.1223 -0.0623
 3643W        W19112  10.405   5.699  14.078  0.1585 -0.0917 -0.0313
 3644W        W19113   3.698  17.457   0.416 -0.1456  0.1086 -0.1003
 3645W        W19114  10.424   7.727   1.381  0.3926  0.0273 -0.1536
 3646W        W19115  12.346   5.762   2.599 -0.0492 -0.3450  0.1413
 3647W        W19116  10.342   1.524  13.914 -0.2476 -0.1499 -0.1589
 3648W        W19117   9.453   1.650   2.935  0.0115  0.2666  0.0640
 3649W        W19118   6.161   5.837  13.191  0.0610  0.0297 -0.1434
 3650W        W19119   2.711  17.038  12.589  0.0711  0.0159 -0.0383
 3651W        W19120  11.293   9.268  12.441  0.2885 -0.2159 -0.1406
 3652W        W19121  17.624   1.430   5.859 -0.3304 -0.0680  0.0970
 3653W        W19122   5.580   5.854  14.319  0.0951  0.1488 -0.1051
 3654W        W19123   7.170   8.070  11.820 -0.1346 -0.0894 -0.1463
 3655W        W19124  15.803  14.311   5.333 -0.3798  0.0174 -0.2860
 3656W        W19125   5.978  13.285   2.042 -0.0279  0.2101 -0.0247
 3657W        W19126  12.186   7.979   3.058  0.3102 -0.3443  0.1983
 3658W        W19127  13.825   9.625  12.804  0.0651  0.0405  0.3292
 3659W        W19128   3.941  16.094   1.885  0.0134 -0.1735 -0.1421
 3660W        W19129  12.104  15.973   4.835 -0.0508 -0.1251 -0.1833
 3661W        W19130  15.275  11.602  11.993  0.2987 -0.0897 -0.0616
 3662W        W19131  16.243   5.816   1.595 -0.0548 -0.0650 -0.0925
 3663W        W19132   1.515  14.393  11.132  0.3524 -0.3848 -0.1025
 3664W        W19133  17.389   4.552  12.080  0.0510  0.0186  0.2295
 3665W        W19134   7.434  13.417   3.954 -0.0715  0.4311  0.1439
 3666W        W19135  17.348  11.490   0.696 -0.0643  0.1186 -0.0625
 3667W        W19136   5.297   3.240   9.657 -0.1084 -0.0390 -0.0938
 3668W        W19137   8.334   0.911  13.092 -0.1246  0.1305 -0.0247
 3669W        W19138   4.385   8.303   2.585  0.2442  0.1594 -0.0298
 3670W        W19139  16.123  15.004   0.603 -0.2191  0.0217 -0.0283
 3671W        W19140   3.849  14.662  11.615  0.0096  0.2113 -0.0652
 3672W        W19141   6.485   0.398   3.288  0.0480 -0.1177  0.3607
 3673W        W19142  13.734   5.600  12.180  0.0291 -0.0123  0.3878
 3674W        W19143   3.302  11.384  13.603 -0.1215 -0.0352 -0.0301
 3675W        W19144   2.865  17.474   4.613 -0.0169 -0.0068 -0.2763
 3676W        W19145   9.311  17.422  13.899 -0.0348 -0.0660  0.0683
 3677W        W19146   4.219   3.087   1.128 -0.0092 -0.2078 -0.2957
 3678W        W19147   8.045  13.860   5.513  0.2282 -0.0169  0.3535
 3679W        W19148  17.305  12.539  11.514  0.0005  0.0204 -0.0840
 3680W        W19149   2.226  14.118   2.963  0.0408 -0.0723 -0.0349
 3681W        W19150  10.688   2.423  13.587  0.1287 -0.1384 -0.1952
 3682W        W19151   5.663   1.991  10.834  0.0787  0.2072  0.2136
 3683W        W19152  11.164  14.939  14.688  0.5089 -0.0713  0.0329
 3684W        W19153  15.770  17.409   3.588 -0.1684  0.2058 -0.2480
 3685W        W19154   9.804   6.151  16.098 -0.0437 -0.0730  0.3829
 3686W        W19155   0.677   1.897  11.602 -0.1281 -0.0496  0.2157
 3687W        W19156  15.699   1.185   1.117 -0.1878  0.2084 -0.1597
 3688W        W19157  11.404   7.866  11.416 -0.0783 -0.0159 -0.0705
 3689W        W19158   1.734  13.963  14.891  0.0781 -0.0422 -0.1754
 3690W        W19159  10.329  12.353   4.093  0.2137  0.0975 -0.0050
 3691W        W19160  17.945  10.870   4.062  0.0062  0.0110  0.2112
 3692W        W19161  15.539  17.449   1.731 -0.0768 -0.0247 -0.0892
 3693W        W19162   4.171   6.918  15.232 -0.3422 -0.1352 -0.1791
 3694W        W19163   7.629   5.316   3.348  0.0073 -0.0674  0.0369
 3695W        W19164   1.025   5.387  16.030 -0.4106 -0.0313 -0.0466
 3696W        W19165   1.455  11.181   4.714 -0.0104  0.2661  0.1666
 3697W        W19166   7.442  16.006  10.960 -0.1843  0.1714  0.0441
 3698W        W19167  15.843  10.020  15.818 -0.0610 -0.3234 -0.0084
 3699W        W19168  14.939  18.040   4.097 -0.2032  0.1743  0.2506
 3700W        W19169  14.439  14.504   1.270 -0.1123  0.2312  0.1781
 3701W        W19170  15.417   7.905   4.579 -0.2417 -0.1723 -0.2143
 3702W        W19171  14.580   7.203   1.934 -0.4668 -0.2373  0.0966
 3703W        W19172   8.759  14.489   2.540  0.2462  0.3509  0.0188
 3704W        W19173  15.835   2.760   5.100 -0.1931 -0.1553 -0.0033
 3705W        W19174   2.670   2.488   1.760  0.1336  0.1361 -0.0648
 3706W        W19175  11.393   8.505   3.389 -0.0891 -0.1510  0.2525
 3707W        W19176  16.802   8.036   2.018 -0.2253  0.3113  0.0190
 3708W        W19177  16.075   6.171  11.707 -0.1913 -0.2550  0.0136
 3709W        W19178  13.000  15.207   1.816  0.3698 -0.0204  0.0957
 3710W        W19179   6.231   4.396  10.546  0.0181  0.1398 -0.2208
 3711W        W19180  12.031  10.514   3.282  0.0311 -0.1474  0.1355
 3712W        W19181   2.391  13.718  14.288 -0.1714 -0.0556  0.1456
 3713W        W19182   8.257  10.460   1.816  0.0053 -0.0574 -0.1462
 3714W        W19183  11.427   6.769   1.773  0.0547 -0.0890 -0.3161
 3715W        W19184   9.433   4.351   6.082  0.0436  0.1733  0.1522
 3716W        W19185  15.185   2.217   3.875  0.0309  0.1170  0.0692
 3717W        W19186   3.445   2.848  14.466 -0.0116 -0.3052  0.0297
 3718W        W19187   6.458   4.167  11.346  0.0288  0.1811  0.0064
 3719W        W19188  13.966  10.747   0.331  0.1639 -0.2883  0.1821
 3720W        W19189  12.969   5.281   4.367 -0.4089 -0.3070 -0.1842
 3721W        W19190  13.634  11.860   0.835  0.1330 -0.2248  0.1072
 3722W        W19191  16.596   9.357  15.031  0.0108  0.0045 -0.3531
 3723W        W19192   2.840   2.082   4.651  0.0472  0.2473  0.1790
 3724W        W19193  18.057   4.846  13.463 -0.0057  0.0483  0.0995
 3725W        W19194  11.777  11.978  15.644 -0.0150 -0.2699  0.2038
 3726W        W19195  16.827  17.283   3.361 -0.0053  0.0689  0.1358
 3727W        W19196   3.775   9.728   2.359 -0.0846  0.0546 -0.2682
 3728W        W19197   7.455  13.613  11.408  0.0361 -0.2179  0.0231
 3729W        W19198   7.382  12.601   3.649  0.1850  0.2086 -0.0899
 3730W        W19199   8.501   7.434   0.545 -0.0438 -0.1801  0.0617
 3731W        W19200   3.899   2.814  11.695 -0.2174 -0.0057 -0.0281
 3732W        W19201   9.881   7.798   0.401 -0.1299  0.0589 -0.0959
 3733W        W19202  16.890  16.657   5.202  0.0584 -0.3065 -0.1769
 3734W        W19203   1.102  17.952  16.087  0.2521  0.0082  0.2160
 3735W        W19204   8.355   0.801  10.580  0.0147  0.1524  0.1486
 3736W        W19205  11.299  16.468   2.692  0.0022 -0.4312  0.0787
 3737W        W19206  13.567   9.230  12.101 -0.3094  0.3279  0.2902
 3738W        W19207  10.480   8.670  13.795  0.1216 -0.3729  0.1046
 3739W        W19208   3.140  15.318   4.195  0.0090 -0.0855 -0.1376
 3740W        W19209   7.398  17.513  13.918 -0.0504 -0.0109  0.0028
 3741W        W19210   8.369   9.285   0.240  0.0195  0.2865  0.0004
 3742W        W19211   3.025  14.152   3.435  0.1477 -0.1334  0.0075
 3743W        W19212  16.602  12.360   4.864  0.3277 -0.0476  0.3814
 3744W        W19213  16.158   8.624  14.490  0.0937  0.1507 -0.0908
 3745W        W19214   7.431  16.868   1.108  0.1036  0.2767  0.1246
 3746W        W19215  13.503   5.834  12.955 -0.0645 -0.0108 -0.0353
 3747W        W19216   6.018  18.183   5.721 -0.0860 -0.2049 -0.2830
 3748W        W19217   7.359   5.774  12.812  0.1964 -0.0679  0.0259
 3749W        W19218   3.717   6.433   3.065  0.0093  0.0669  0.0251
 3750W        W19219   2.228  12.813   5.339 -0.3297 -0.1967  0.3986
 3751W        W19220  17.413   8.011   4.923  0.2747 -0.0355 -0.0306
 3752W        W19221   8.165   9.575  11.719  0.0574  0.0264  0.2787
 3753W        W19222   6.718   4.248  11.836  0.1301 -0.0016  0.0419
 3754W        W19223   5.109   0.768  14.297 -0.2900 -0.1088 -0.0164
 3755W        W19224  14.747  10.975  12.309  0.3619 -0.0806 -0.1029
 3756W        W19225  16.623  17.814  10.488 -0.0890  0.0345  0.1869
 3757W        W19226  14.067  13.101  12.014  0.0912  0.1468  0.2936
 3758W        W19227  17.795  15.827  11.580 -0.2635  0.1545  0.0920
 3759W        W19228   8.880  17.264  13.708  0.1229  0.2714  0.1334
 3760W        W19229   3.515  11.540   5.090 -0.2646  0.0690 -0.1404
 3761W        W19230   5.693   6.316   1.237  0.2566 -0.0085 -0.1433
 3762W        W19231  11.412  15.772   2.417 -0.0305  0.0362 -0.1381
 3763W        W19232  17.311   1.223  14.078  0.0099 -0.1503 -0.3390
 3764W        W19233  15.813   0.127  12.417  0.1749 -0.3248 -0.0627
 3765W        W19234  14.520   6.747   5.743 -0.0606 -0.1056 -0.1275
 3766W        W19235   2.180   1.196  14.253  0.1297  0.3594  0.0286
 3767W        W19236  17.448  17.875  11.667 -0.1214  0.1158  0.0246
 3768W        W19237  14.952  17.065  13.620  0.0200  0.3735  0.2018
 3769W        W19238   4.947  17.893  12.656 -0.0385  0.4204 -0.0369
 3770W        W19239  10.880   0.542  11.494 -0.1167 -0.1565  0.3089
 3771W        W19240   1.737  14.013   3.723 -0.0384  0.0708 -0.4327
 3772W        W19241  15.609   0.924   1.948 -0.0640 -0.1884 -0.0090
 3773W        W19242   4.322   1.656   3.820  0.1654 -0.0846 -0.1170
 3774W        W19243  10.980   0.167  11.154  0.0255  0.0373  0.4861
 3775W        W19244   6.725   1.104  10.503  0.2339 -0.1449 -0.1166
 3776W        W19245   7.702   6.281  14.948 -0.1231 -0.1025 -0.1678
 3777W        W19246   6.364  11.447  10.722 -0.3485  0.1593  0.3285
 3778W        W19247  12.770   5.964   2.309 -0.1592 -0.1443  0.3984
 3779W        W19248  15.934   9.139  15.726  0.0717  0.0675  0.0362
 3780W        W19249   9.115   3.435   0.615  0.1665  0.1694 -0.0154
 3781W        W19250   7.634   3.917   0.615 -0.0744 -0.0710 -0.1180
 3782W        W19251  15.563  10.648   2.790  0.1906 -0.3146  0.0427
 3783W        W19252  15.851  11.391   3.730  0.1544  0.1617 -0.0552
 3784W        W19253  15.929   5.612  12.769  0.4495 -0.0500  0.1012
 3785W        W19254  17.982  14.122  16.038 -0.2856  0.0760  0.1518
 3786W        W19255   8.118   9.363  14.004  0.2416  0.0554  0.4459
 3787W        W19256  13.109   3.354  13.016 -0.1177 -0.0038  0.2725
 3788W        W19257   1.824   0.225   1.120 -0.1648  0.0881  0.1260
 3789W        W19258   8.024  18.272  15.096 -0.1700 -0.1896 -0.0967
 3790W        W19259  10.814  15.406  13.270 -0.1723 -0.0997  0.3877
 3791W        W19260   6.261  13.846   3.553 -0.0762  0.1704 -0.3608
 3792W        W19261   6.642  12.270   2.449 -0.1759  0.1130 -0.1114
 3793W        W19262  12.418  13.523   1.468 -0.2294 -0.1626 -0.1848
 3794W        W19263   6.636  11.516   0.792  0.3486 -0.0171 -0.0640
 3795W        W19264   3.583   8.697  11.004  0.0235 -0.2648  0.0841
 3796W        W19265   6.167   7.632  11.930 -0.0619 -0.0333  0.1532
 3797W        W19266  12.499   2.055   2.786 -0.2934 -0.4214 -0.1476
 3798W        W19267  13.238  10.042   5.208  0.1534  0.2010  0.2110
 3799W        W19268  13.095   8.973  11.666 -0.1183  0.4462 -0.2129
 3800W        W19269  13.667  12.055   4.757 -0.2084  0.2331 -0.3155
 3801W        W19270   3.510   9.804  15.307  0.0260 -0.5271  0.0060
 3802W        W19271   8.677  12.790   1.561  0.1731 -0.0138 -0.2992
 3803W        W19272  18.045  12.173  13.158 -0.0561  0.0592  0.2175
 3804W        W19273  16.581   1.298   0.913  0.0461 -0.0052 -0.2316
 3805W        W19274  12.918   5.713   0.974 -0.0228 -0.0536  0.0338
 3806W        W19275   3.459   1.078  12.628 -0.1050  0.0987  0.1355
 3807W        W19276  11.234  17.312   5.969  0.1277 -0.2287  0.1432
 3808W        W19277  11.906   4.019  11.437  0.2594 -0.0537  0.1603
 3809W        W19278   7.907   7.797   2.241  0.0131  0.0415 -0.1429
 3810W        W19279   9.934  13.197  15.129 -0.0075  0.0854 -0.3450
 3811W        W19280   8.890   3.763  14.228  0.1741 -0.0617 -0.0026
 3812W        W19281  12.044  13.154  11.106  0.0651  0.3683  0.1144
 3813W        W19282  10.463   3.784  13.579 -0.0161 -0.0359  0.4870
 3814W        W19283  15.387   9.397  14.237 -0.3029  0.1393  0.2685
 3815W        W19284  14.844   8.730  14.163  0.1538 -0.2603  0.0437
 3816W        W19285   9.475   4.590  12.852 -0.1856 -0.2267  0.0765
 3817W        W19286  16.835   8.723  15.083 -0.0472  0.0034 -0.0235
 3818W        W19287  11.503   2.203   0.446  0.0113 -0.0628 -0.1428
 3819W        W19288   5.164  15.249  11.531 -0.0238  0.1942 -0.1017
 3820W        W19289   7.707  12.373   9.812  0.1019  0.2188 -0.0367
 3821W        W19290  16.849   7.515  16.060  0.1950  0.0388 -0.0928
 3822W        W19291   3.349  10.480  13.329 -0.1962 -0.3712  0.3101
 3823W        W19292   3.658  18.108   4.420 -0.0731 -0.2055 -0.1949
 3824W        W19293   3.464   9.473  12.679  0.3537 -0.2064  0.0438
 3825W        W19294  14.520   7.671  13.302  0.0959  0.0489  0.2518
 3826W        W19295  12.597  15.667   4.669  0.2740  0.1972 -0.0830
 3827W        W19296   1.240  15.555   6.034  0.0588  0.0683  0.1862
 3828W        W19297   2.271   0.672   4.385 -0.0794 -0.2036  0.0466
 3829W        W19298   7.333   0.311   1.244 -0.0965  0.0878 -0.0180
 3830W        W19299  15.108   6.482   2.454  0.2479 -0.2577  0.1707
 3831W        W19300   3.092   7.407  11.722 -0.2804  0.2307  0.0806
 3832W        W19301   8.698   7.143   1.781 -0.1959 -0.0773 -0.1271
 3833W        W19302   8.432   2.540   5.355  0.0064 -0.0516 -0.2216
 3834W        W19303   1.598  11.964   2.546  0.1492  0.2466  0.1558
 3835W        W19304   6.159   9.452   4.270 -0.0892  0.1151 -0.1231
 3836W        W19305  14.295  11.328  14.597 -0.0604  0.0315  0.0394
 3837W        W19306  13.700   9.013   5.642  0.1668 -0.0196  0.2941
 3838W        W19307   7.107  15.888   1.533  0.1130 -0.0273 -0.1511
 3839W        W19308   3.918   7.697  14.700  0.0980 -0.0650 -0.0610
 3840W        W19309   0.377   3.897  13.151  0.2457  0.4243  0.1650
 3841W        W19310  10.503  11.795   0.901  0.0940 -0.1238 -0.1279
 3842W        W19311  13.155   4.439  15.649  0.1272 -0.2334 -0.2930
 3843W        W19312  12.999  16.801   0.846 -0.4239  0.3562 -0.0303
 3844W        W19313   7.548  14.890   3.036 -0.1563 -0.1817 -0.2076
 3845W        W19314   7.154   4.850   1.649  0.4610  0.1950 -0.0158
 3846W        W19315   8.763   3.574  14.872  0.0726  0.0771 -0.1920
 3847W        W19316  15.786   4.865  14.865  0.0902 -0.3387  0.0945
 3848W        W19317  15.830  13.060  14.090  0.0129 -0.2027 -0.1938
 3849W        W19318  15.807  10.239   2.946  0.0964 -0.3513 -0.1033
 3850W        W19319   4.496   5.119  13.518 -0.0384 -0.0067  0.0253
 3851W        W19320  10.739   1.827   4.148  0.0568 -0.0112  0.2914
 3852W        W19321  18.192  11.332  11.779 -0.1114 -0.2389 -0.1217
 3853W        W19322   7.790   0.494  11.939  0.1640 -0.0414  0.0949
 3854W        W19323   4.034   0.137  10.804  0.0567  0.0260 -0.0535
 3855W        W19324   8.699   0.145   1.056 -0.1323 -0.2651  0.0317
 3856W        W19325  14.965   9.134  14.447 -0.3391  0.1547  0.3258
 3857W        W19326   8.945  11.201   4.005 -0.0096 -0.1600  0.0339
 3858W        W19327  14.136   0.979  11.656 -0.0059 -0.1601 -0.2012
 3859W        W19328  14.280  15.069   0.285 -0.2563 -0.1219 -0.2542
 3860W        W19329  14.000  11.551  11.050 -0.1896  0.0623  0.2450
 3861W        W19330   9.607   7.335   0.363 -0.0188  0.1937 -0.0001
 3862W        W19331   2.925   2.301  12.913 -0.0450  0.1905 -0.1533
 3863W        W19332  14.583  11.918   3.224 -0.0520 -0.0344  0.1598
 3864W        W19333  12.862   0.350   3.256  0.0802 -0.0054  0.1805
 3865W        W19334   8.179   9.155  10.726 -0.0023  0.0730 -0.2080
 3866W        W19335  10.520   3.519  11.795 -0.1029  0.0048  0.0611
 3867W        W19336   7.528   0.001   3.520  0.0875  0.1297  0.0286
 3868W        W19337   9.299   1.076  15.444 -0.0977 -0.1023 -0.1647
 3869W        W19338  13.817   6.967  14.473  0.0624 -0.1590 -0.0079
 3870W        W19339   0.788  15.460  11.993  0.1232 -0.0397 -0.1488
 3871W        W19340   5.518  13.670   0.904  0.4121  0.1623  0.1691
 3872W        W19341  17.260  13.072  13.979 -0.0138 -0.0100  0.2083
 3873W        W19342  17.920   8.381  11.626  0.1717 -0.0638 -0.2537
 3874W        W19343   5.459   3.262   1.188 -0.5388 -0.1955 -0.1256
 3875W        W19344  10.742  17.355   3.540 -0.2469  0.3386  0.3138
 3876W        W19345  17.903  11.057  16.005 -0.0925  0.1162  0.0358
 3877W        W19346  14.590   6.588   1.278 -0.0379 -0.2411 -0.0877
 3878W        W19347  17.923  15.845   5.521  0.2338  0.1009  0.0526
 3879W        W19348  17.950   6.012   4.167 -0.0655  0.0845  0.0797
 3880W        W19349  13.175  16.990   3.045 -0.0811  0.3249  0.0823
 3881W        W19350   6.484   8.219  10.852  0.0340  0.1886 -0.0307
 3882W        W19351  10.766   2.634   5.102 -0.1475  0.1659 -0.1185
 3883W        W19352  12.504  16.260   3.979  0.2357  0.1657  0.0493
 3884W        W19353   4.739   5.235   0.376 -0.1339  0.1578 -0.0238
 3885W        W19354  12.002   6.644  13.786  0.1542  0.0956  0.0492
 3886W        W19355  11.090  15.358   5.615  0.0694 -0.0535 -0.0049
 3887W        W19356   7.274   5.195   0.013  0.1334 -0.1420  0.1424
 3888W        W19357  17.200  13.696   5.407 -0.0831 -0.1662  0.0310
 3889W        W19358  17.340   8.503  12.624 -0.2268 -0.1725  0.2630
 3890W        W19359   7.617  17.104   2.213  0.1857 -0.0296 -0.2467
 3891W        W19360   3.272  18.098   0.500 -0.2542  0.0746 -0.0115
 3892W        W19361  17.548  14.229   4.721 -0.0779 -0.1299  0.0196
 3893W        W19362   2.644   2.141  15.043 -0.4182  0.0434 -0.0398
 3894W        W19363   9.209  10.489  12.129 -0.0726  0.2686 -0.2195
 3895W        W19364   6.701   7.547   1.688  0.4891  0.3586  0.2797
 3896W        W19365   2.728  18.189  11.896 -0.2382 -0.1672  0.1987
 3897W        W19366   9.977   8.462  13.719  0.3450  0.2467  0.1192
 3898W        W19367  17.751   8.557  13.790 -0.1032 -0.2122 -0.3060
 3899W        W19368  15.269  13.540  13.787 -0.1883  0.0987 -0.0047
 3900W        W19369   0.637  14.575  12.411 -0.0717  0.2048 -0.2096
 3901W        W19370  15.680  15.380   4.633 -0.1807  0.0966 -0.0009
 3902W        W19371   6.520   1.199  14.694  0.2073 -0.0850 -0.0568
 3903W        W19372  12.853  10.855   2.970 -0.1013 -0.0097  0.3059
 3904W        W19373  14.403   0.165  15.835 -0.2714  0.0794 -0.1510
 3905W        W19374   6.352  17.131  15.643 -0.2335 -0.0494  0.0553
 3906W        W19375  17.913  10.318   4.582 -0.0971 -0.1046 -0.1349
 3907W        W19376  13.072   4.579  14.765  0.1144  0.3371 -0.1197
 3908W        W19377  13.577   5.882  15.483  0.0383  0.3663  0.2062
 3909W        W19378  18.052   0.100  12.175  0.0731  0.1639 -0.2837
 3910W        W19379  15.010  12.197   3.706 -0.1254 -0.0255 -0.0075
 3911W        W19380   9.929   2.800   2.805  0.0819  0.1302  0.0371
 3912W        W19381   0.837   5.759  12.153 -0.3987  0.0683 -0.0850
 3913W        W19382  11.202  15.475   3.659 -0.0463 -0.0266  0.0947
 3914W        W19383   4.726  14.626  15.699 -0.2537  0.2065  0.1898
 3915W        W19384   0.608   4.192  15.713  0.1453 -0.3781  0.1265
 3916W        W19385   6.928   5.487   9.890 -0.0040  0.3064 -0.0993
 3917W        W19386  14.221   1.384   2.981 -0.1628 -0.3838  0.1841
 3918W        W19387  15.011   8.331  12.853 -0.1650 -0.2854  0.0893
 3919W        W19388   0.178   1.003  15.227 -0.0646 -0.0639  0.2472
 3920W        W19389   3.369   9.511  15.820  0.0006  0.0491 -0.2699
 3921W        W19390   7.752   9.499   1.943 -0.0073 -0.0444 -0.5160
 3922W        W19391  17.654   8.150   2.268  0.1708 -0.2512 -0.0173
 3923W        W19392   6.084   9.600  14.592  0.0821  0.0380 -0.1573
 3924W        W19393  12.441   5.648   0.015  0.2291 -0.0763 -0.2048
 3925W        W19394  17.887   4.586   2.526  0.0571  0.2439  0.1772
 3926W        W19395  16.358   9.972  10.551 -0.2900 -0.1367 -0.2161
 3927W        W19396   7.142   4.030   0.465  0.2410 -0.0451 -0.2919
 3928W        W19397  16.298  18.265  11.416  0.1016 -0.0015 -0.1297
 3929W        W19398   8.355   7.624   0.973 -0.3770  0.0339  0.3630
 3930W        W19399   1.130  14.153   1.087  0.0715  0.0959  0.2476
 3931W        W19400   0.010  16.912   0.281 -0.0923 -0.0842 -0.1708
 3932W        W19401   0.133   6.261  11.889 -0.3327 -0.0074 -0.1092
 3933W        W19402   8.445   7.061   0.176 -0.0804 -0.1831 -0.2953
 3934W        W19403   7.321   9.295  14.155  0.0035  0.0851 -0.2395
 3935W        W19404   9.034   8.616  12.128  0.2883  0.1133 -0.0908
 3936W        W19405  14.795  17.723  14.607  0.0256 -0.0854 -0.0288
 3937W        W19406  16.868   7.307  11.584 -0.2062  0.0303  0.1078
 3938W        W19407  17.037   1.218  10.881  0.0395  0.3281 -0.0402
 3939W        W19408  14.683   4.210   3.742  0.0752 -0.0927 -0.4408
 3940W        W19409  15.665  14.267  15.025  0.1564 -0.3132 -0.1705
 3941W        W19410  10.334   0.375   2.986 -0.3844  0.0100 -0.2329
 3942W        W19411   4.037  10.945   0.679 -0.0395 -0.0779 -0.3125
 3943W        W19412   8.459   1.186   0.299  0.0274  0.0114 -0.0827
 3944W        W19413   4.213   6.305   3.212  0.1661 -0.1994  0.1668
 3945W        W19414   6.003  11.556   2.694 -0.0033  0.1903  0.0574
 3946W        W19415   9.999  14.071  12.406  0.0959  0.1739  0.1075
 3947W        W19416   6.547   5.518  15.870 -0.1071  0.0552 -0.1898
 3948W        W19417  18.256  14.653   2.308 -0.0111 -0.1914  0.1160
 3949W        W19418   3.465   6.966  11.014 -0.0480  0.2144 -0.1483
 3950W        W19419   5.461   2.405   3.716  0.2874  0.2303  0.0586
 3951W        W19420   5.587   8.232  11.024 -0.2059 -0.0375  0.1970
 3952W        W19421  10.659  15.756   4.401 -0.0789 -0.0865  0.2218
 3953W        W19422   0.311   6.595  15.504 -0.0577  0.0906  0.1494
 3954W        W19423  17.999  17.621   1.687 -0.0092  0.0043 -0.0209
 3955W        W19424   8.969   7.829   0.401 -0.1970 -0.0302  0.0725
 3956W        W19425  15.482   2.242   1.924 -0.0918  0.0217  0.1031
 3957W        W19426  11.051  16.736  10.814  0.1044 -0.2900 -0.1451
 3958W        W19427   6.892  12.387   5.204  0.1830  0.0584  0.2713
 3959W        W19428   9.482   8.618  12.374  0.0067  0.2402  0.2187
 3960W        W19429   3.482  14.598  11.077 -0.1505 -0.1689  0.1346
 3961W        W19430   3.209  11.922  13.628 -0.0636 -0.0811 -0.2847
 3962W        W19431   9.237  15.597   5.463  0.0372 -0.1456 -0.0111
 3963W        W19432   4.311  15.407   0.125  0.2476 -0.0470 -0.4442
 3964W        W19433  10.894  12.949   2.427 -0.1797 -0.4060 -0.1397
 3965W        W19434  17.091   6.465  15.268  0.0209 -0.0636 -0.1028
 3966W        W19435  15.532  15.733  11.039  0.0799  0.0378 -0.2914
 3967W        W19436  16.630   5.045  11.820  0.0424 -0.0760 -0.0161
 3968W        W19437  10.855   4.956  12.963 -0.3088  0.0086  0.0905
 3969W        W19438  10.849   5.315  11.659  0.0156 -0.2593 -0.1101
 3970W        W19439   9.570  14.088   2.798  0.1431 -0.2278 -0.0876
 3971W        W19440   7.703  17.039  15.992  0.1316  0.3275 -0.0445
 3972W        W19441   3.383   2.423   2.720 -0.2927  0.2204 -0.0271
 3973W        W19442   7.659   3.680  10.526 -0.1667 -0.0931  0.0210
 3974W        W19443   5.217   5.101  14.485  0.0429  0.3030 -0.0538
 3975W        W19444   0.053   6.613  14.545  0.4456  0.0217 -0.1165
 3976W        W19445   5.223   7.388   2.739  0.0691  0.0302  0.2158
 3977W        W19446   3.270  15.885   5.971 -0.0448 -0.1053  0.1155
 3978W        W19447   0.192  17.190   4.547 -0.1273  0.1468  0.2083
 3979W        W19448  15.113   7.173  13.740 -0.0648 -0.0645  0.2882
 3980W        W19449  16.635   5.214   3.997 -0.1518  0.1496  0.1304
 3981W        W19450   9.146   0.254   1.247 -0.1501 -0.1480  0.1238
 3982W        W19451  10.883  12.654  11.483 -0.2025 -0.1148 -0.2606
 3983W        W19452  16.334   8.441  12.110 -0.1166 -0.2874  0.0003
 3984W        W19453  18.236   2.104   1.209  0.2662 -0.0614  0.0401
 3985W        W19454   2.931  10.535   0.450 -0.0043 -0.0546 -0.2026
 3986W        W19455   4.860  14.169  14.673 -0.0537  0.0170  0.2903
 3987W        W19456   7.481   1.437   4.545  0.0500  0.2862 -0.2022
 3988W        W19457  10.003  15.607   2.306 -0.1262  0.0269 -0.0645
 3989W        W19458   5.684  14.298  11.276  0.1617  0.3170  0.1875
 3990W        W19459  15.445  10.165   0.387  0.1951  0.2039  0.3244
 3991W        W19460  16.640   9.118  12.790  0.0928 -0.1793 -0.2376
 3992W        W19461   5.008   8.345  15.318  0.2043  0.0193  0.3379
 3993W        W19462  16.683  16.144   6.449 -0.0460  0.1446 -0.4596
 3994W        W19463  13.229  17.222  15.617  0.1799  0.3972  0.3945
 3995W        W19464  11.618  11.711  15.250  0.1177 -0.1908  0.0382
 3996W        W19465  13.674  17.825  14.525  0.0020 -0.1937 -0.0518
 3997W        W19466   2.035   0.036  15.875  0.2497  0.0920  0.1930
 3998W        W19467  13.630   6.117  11.746 -0.0270 -0.1263  0.0648
 3999W        W19468  10.263   7.731  15.387  0.0203 -0.1943 -0.2648
 4000W        W19469   0.253  11.423   2.544  0.1478 -0.1351  0.0754
 4001W        W19470  17.613   1.443  15.155 -0.2591 -0.0062  0.2345
 4002W        W19471   0.599   9.527   4.663  0.2428 -0.0871 -0.1298
 4003W        W19472   3.882   5.976   1.863 -0.0372  0.2763 -0.0455
 4004W        W19473  12.065   5.225  11.147  0.1326 -0.1492 -0.0364
 4005W        W19474  12.281  12.382   0.905 -0.0301  0.1120  0.0678
 4006W        W19475   6.233  15.253   2.873  0.1833  0.1491 -0.0496
 4007W        W19476   0.472   5.955  10.506 -0.0587 -0.1841  0.1559
 4008W        W19477  16.215  14.824  11.144 -0.1067  0.1202  0.0749
 4009W        W19478  14.386   2.425   3.278  0.0304 -0.2262  0.1422
 4010W        W19479   0.890   2.521  13.061  0.0426  0.1923  0.2560
 4011W        W19480  13.271  13.373   4.936  0.0942 -0.1212 -0.0855
 4012W        W19481   2.012  13.445  11.255 -0.0955 -0.2114 -0.0251
 4013W        W19482  12.506   0.594  14.088  0.0084  0.2847 -0.0559
 4014W        W19483   1.168  13.133  11.741 -0.0106 -0.1926  0.2398
 4015W        W19484   6.684  11.899  11.374 -0.1997 -0.0573  0.0390
 4016W        W19485   0.196   5.795  12.841  0.5102  0.3049 -0.1693
 4017W        W19486  16.093   4.718   0.949 -0.1938  0.1835  0.1954
 4018W        W19487  12.333  11.839   0.962 -0.1814 -0.1081  0.2395
 4019W        W19488   4.804   9.383   0.990 -0.3023  0.0071  0.1581
 4020W        W19489  17.461   5.423  11.994 -0.0839  0.2764  0.1567
 4021W        W19490  13.292  11.857   2.959 -0.0522 -0.0838 -0.1651
 4022W        W19491   7.765   4.725  14.631 -0.0842 -0.1179 -0.1111
 4023W        W19492   5.875  12.993  13.686 -0.2222 -0.1389 -0.3825
 4024W        W19493  13.121  13.468  12.086 -0.1202 -0.0532 -0.0710
 4025W        W19494  15.880   2.289  13.761 -0.3383 -0.0334 -0.0537
 4026W        W19495  10.689  10.334  14.494 -0.2139  0.2063  0.2635
 4027W        W19496   7.780  12.347   0.369  0.0764 -0.2519  0.0325
 4028W        W19497   0.601   9.495   3.025  0.1231  0.3668 -0.1615
 4029W        W19498  12.090   7.815   2.228 -0.1532  0.1333  0.1175
 4030W        W19499  10.380   8.213  13.898  0.1116  0.1509  0.1373
 4031W        W19500   5.702  14.529   4.223 -0.0427  0.0066  0.3205
 4032W        W19501  15.527   8.018  14.225  0.0343 -0.1242  0.0458
 4033W        W19502   7.876   8.325  11.424  0.2281 -0.0842  0.0557
 4034W        W19503   6.610   2.082   4.987  0.0586  0.0802  0.3498
 4035W        W19504   4.534   6.982  12.873  0.2144  0.2575 -0.0378
 4036W        W19505   0.947  14.214   0.585 -0.1139 -0.2660 -0.1407
 4037W        W19506   5.730  17.189   3.150 -0.0361  0.0841  0.0581
 4038W        W19507   6.274  15.454   5.936  0.0302 -0.0763 -0.3110
 4039W        W19508   5.038  16.203   2.401  0.1333 -0.0609 -0.0761
 4040W        W19509   5.135  10.806   4.189 -0.1862 -0.1224  0.0922
 4041W        W19510  16.243   9.811  11.437  0.1396  0.0002  0.0485
 4042W        W19511  16.022   3.957   3.711  0.1279  0.1449 -0.1336
 4043W        W19512   7.871   3.615   0.265 -0.1316 -0.0337  0.1404
 4044W        W19513   4.951  14.044  13.330  0.4222  0.1643 -0.2855
 4045W        W19514   7.641   6.987   3.317 -0.0368  0.2380  0.0656
 4046W        W19515   4.575   9.124   2.823 -0.1911  0.2409  0.0850
 4047W        W19516  10.476  14.914   2.071 -0.0680  0.3722  0.0623
 4048W        W19517   5.254   2.508  13.926  0.1481  0.0457 -0.3985
 4049W        W19518  11.268   1.406  12.184  0.0381 -0.2567  0.1132
 4050W        W19519  12.653   5.750  11.782 -0.2993 -0.0050 -0.2137
 4051W        W19520   7.898  10.413   2.212  0.2456  0.1825 -0.0869
 4052W        W19521   7.433  13.832   0.188 -0.1912  0.2951  0.1864
 4053W        W19522  13.889  10.698  15.661 -0.4025 -0.0271  0.1172
 4054W        W19523  17.051   4.881  15.364 -0.1961 -0.2207  0.1327
 4055W        W19524  12.582  11.431  11.828 -0.1285  0.1288  0.1648
 4056W        W19525   4.293   0.481   1.750  0.0074 -0.1245 -0.0948
 4057W        W19526  17.306   5.097   0.940  0.0865  0.3175 -0.0205
 4058W        W19527   8.568   5.668  14.031 -0.0473  0.0649 -0.0794
 4059W        W19528  14.345  12.105  15.206 -0.3678 -0.1089  0.0967
 4060W        W19529   2.066  16.726   2.147  0.0571 -0.1362  0.0095
 4061W        W19530   6.172  14.748   4.410  0.1652  0.0290 -0.1126
 4062W        W19531   5.208  16.008  12.213  0.0113  0.0213  0.0639
 4063W        W19532   9.382  11.054   4.386 -0.1678 -0.1320 -0.1148
 4064W        W19533  16.844  12.065   5.250  0.2953 -0.0268  0.0376
 4065W        W19534  10.158   8.701   3.642 -0.1199  0.1844  0.0227
 4066W        W19535   1.112  17.415   2.817 -0.1730 -0.0691 -0.1775
 4067W        W19536   3.042   8.888   4.315  0.0627  0.0500  0.0005
 4068W        W19537   2.070   6.059  15.171 -0.1677 -0.2269 -0.1276
 4069W        W19538  11.007   8.577  10.993 -0.2815 -0.2264 -0.0334
 4070W        W19539   9.799   6.496   3.100  0.0575 -0.0187  0.0831
 4071W        W19540  12.668   8.830   2.259 -0.0458 -0.2047  0.0689
 4072W        W19541   3.129   2.786   3.499  0.2728  0.0943  0.0669
 4073W        W19542  11.248   2.584  11.348 -0.1384  0.3217  0.2863
 4074W        W19543   6.668   7.960   5.358  0.0639 -0.3627  0.1841
 4075W        W19544  10.795   7.531  14.493 -0.1329 -0.2073  0.2617
 4076W        W19545   3.584   5.744  15.665  0.0536  0.1629  0.2319
 4077W        W19546   2.280  16.161   3.243 -0.0336  0.2796  0.1681
 4078W        W19547  15.525  13.377  11.593 -0.1954  0.1551  0.0277
 4079W        W19548  13.721  10.876   2.598 -0.3064 -0.0297  0.0957
 4080W        W19549  11.082   3.087   2.902 -0.2417  0.1910  0.0831
 4081W        W19550   2.915  12.995   3.198  0.1758  0.0044 -0.0779
 4082W        W19551  12.596   7.947   5.859  0.0598 -0.3337 -0.3053
 4083W        W19552   5.356   2.428   2.755  0.0147  0.1805  0.1608
 4084W        W19553   9.412  12.851  13.199  0.0098 -0.0701  0.1092
 4085W        W19554  12.134   0.770  10.384 -0.0216 -0.1799 -0.1642
 4086W        W19555  10.653  16.344   5.168  0.0038 -0.0556 -0.0024
 4087W        W19556   2.971   7.003   5.784  0.1414 -0.3595  0.0472
 4088W        W19557  14.516  18.271  14.708 -0.4502  0.3017  0.0403
 4089W        W19558  10.911   6.179  11.301  0.3718 -0.0778 -0.0063
 4090W        W19559   6.359  11.688   3.025  0.0520  0.1331  0.2253
 4091W        W19560   2.451   7.630  12.233 -0.3160  0.1162  0.0716
 4092W        W19561  17.813   5.161   1.128  0.1548  0.0599  0.0886
 4093W        W19562   6.849  15.014  13.885  0.3525 -0.4144  0.1088
 4094W        W19563   0.434   6.170  11.465  0.0992 -0.0280 -0.1800
 4095W        W19564  14.595  12.093   1.013  0.0591  0.1542 -0.0747
 4096W        W19565   4.483  14.351  13.746  0.1326  0.1861 -0.0339
 4097W        W19566   8.766  14.140  14.987  0.2386 -0.3370 -0.0842
 4098W        W19567  13.385   1.079   5.778  0.2106  0.2638 -0.1730
 4099W        W19568   4.843  13.707   0.053 -0.0228  0.0851  0.0786
 4100W        W19569  15.545  15.287   3.129  0.2944 -0.1584 -0.2637
 4101W        W19570  12.183  15.660   1.104  0.3588  0.0473  0.0269
 4102W        W19571   7.460   4.271   1.308 -0.2091  0.0063 -0.3397
 4103W        W19572   5.125   8.475   3.991 -0.0890  0.1042  0.1784
 4104W        W19573   6.850   5.618  12.915  0.2617  0.0441  0.1759
 4105W        W19574   3.711  12.082   3.922  0.3037 -0.0740  0.1313
 4106W        W19575   7.077   5.679   2.138  0.0674 -0.0792  0.0528
 4107W        W19576  14.954   9.933  15.745 -0.0800 -0.0464  0.3870
 4108W        W19577   1.674   3.696   0.056 -0.1873  0.0417  0.2022
 4109W        W19578  16.912   9.061  12.335 -0.1161  0.0495  0.1746
 4110W        W19579  14.695   1.848   5.846 -0.0332  0.1119 -0.0226
 4111W        W19580  17.570   1.402  12.599 -0.1185 -0.0219 -0.0297
 4112W        W19581  12.203  14.047   3.274  0.2652  0.0456  0.2313
 4113W        W19582  11.800  16.956  10.358 -0.0069  0.0448 -0.2848
 4114W        W19583  15.131  18.282   3.188 -0.0641 -0.2307 -0.1270
 4115W        W19584   5.341  16.738  15.296 -0.2922  0.1399  0.0868
 4116W        W19585  10.971   7.507   1.469  0.3591  0.0346  0.1999
 4117W        W19586   1.752  11.961  14.130 -0.0130 -0.0589 -0.1718
 4118W        W19587  16.566   0.668   4.135 -0.1022  0.0578  0.1634
 4119W        W19588   3.715  17.083  10.765  0.3242  0.2430  0.0107
 4120W        W19589   0.609   9.186   0.758  0.0466 -0.4188 -0.2326
 4121W        W19590  12.695   9.619   0.197  0.0117 -0.1731 -0.2302
 4122W        W19591   6.696   2.851   6.154 -0.1779 -0.2998  0.1727
 4123W        W19592  13.695   1.455  15.444 -0.0668  0.1471  0.0798
 4124W        W19593   9.615   0.837   1.152  0.2679  0.0236 -0.2406
 4125W        W19594   8.505   7.169  11.548 -0.1338 -0.0190  0.0539
 4126W        W19595   0.709   2.512   5.282 -0.0442 -0.0129  0.1318
 4127W        W19596   4.387  14.524   4.351 -0.1142 -0.2510  0.0296
 4128W        W19597   7.404   5.316  13.010  0.3456 -0.0837  0.2214
 4129W        W19598   5.798   0.699   2.692  0.1330  0.0200 -0.1203
 4130W        W19599  13.463  14.870   3.700 -0.3463  0.0462 -0.1621
 4131W        W19600   7.599   0.941   5.378 -0.1371  0.0687  0.0596
 4132W        W19601   0.267   6.078  15.199 -0.2761  0.0462  0.3617
 4133W        W19602   8.378   2.850  11.258 -0.2240  0.3051  0.0552
 4134W        W19603  15.603  14.478  12.732 -0.1719 -0.0322  0.1667
 4135W        W19604   5.420  15.697  14.461 -0.2665 -0.0821  0.2340
 4136W        W19605   2.556   7.114  12.491 -0.3259 -0.3379 -0.0146
 4137W        W19606   4.642  15.704  14.210  0.0784  0.1461 -0.3472
 4138W        W19607  13.729  17.188   2.320  0.2593 -0.0719 -0.0228
 4139W        W19608  18.151  11.152   3.367 -0.2349  0.2378 -0.0941
 4140W        W19609   2.846   4.099   3.574  0.2661  0.1736 -0.0137
 4141W        W19610   1.425  16.885   5.811  0.3376 -0.1553  0.0102
 4142W        W19611   9.932  15.041  11.073 -0.3077 -0.2772 -0.0218
 4143W        W19612   2.351   5.796  13.640  0.0960 -0.0819 -0.1950
 4144W        W19613  12.187   0.784   3.036  0.1000 -0.1185 -0.0769
 4145W        W19614  17.726  12.633   2.287  0.0030 -0.0647 -0.0156
 4146W        W19615  10.812   3.077  13.699  0.0064  0.1823  0.2569
 4147W        W19616   7.817   1.238  15.104  0.2683 -0.0293  0.0105
 4148W        W19617   6.738   7.403  11.398  0.0014 -0.2590  0.2591
 4149W        W19618   6.827   9.759   2.757 -0.0911 -0.4150  0.0607
 4150W        W19619  18.147  10.550  15.931 -0.3890  0.0936 -0.4773
 4151W        W19620   4.179   5.006  13.877 -0.2916 -0.0320  0.1057
 4152W        W19621  13.554   5.116   2.971 -0.2305  0.0118 -0.2710
 4153W        W19622  17.567   2.825   4.084  0.1533 -0.0128  0.1902
 4154W        W19623   1.781   3.248  13.209  0.0786 -0.1040 -0.0428
 4155W        W19624  10.144   5.863  13.681  0.1548 -0.1146  0.1122
 4156W        W19625   7.105  10.890   2.060 -0.0901  0.1602 -0.0710
 4157W        W19626   2.853   0.625  15.060 -0.2849  0.0733 -0.0597
 4158W        W19627  16.121   9.484   0.291 -0.0423 -0.2898 -0.0841
 4159W        W19628   0.177  16.402  15.126  0.1178  0.0642  0.1054
 4160W        W19629  11.783  10.980  13.116  0.0340  0.1491  0.2637
 4161W        W19630   6.977  18.246  10.330  0.0005 -0.2693  0.1550
 4162W        W19631   2.644   7.054  11.017 -0.1470 -0.0587  0.0049
 4163W        W19632   0.692  10.893   0.224 -0.1870 -0.0641 -0.0136
 4164W        W19633   0.870   2.370   2.096  0.1743 -0.2214  0.1998
 4165W        W19634  11.138   7.545  14.063 -0.0273  0.0898  0.1631
 4166W        W19635   0.548   5.323  14.071 -0.1712  0.0334 -0.0066
 4167W        W19636   0.786  10.363  13.761  0.1205  0.2073  0.2389
 4168W        W19637   0.490   0.015  14.774 -0.0706  0.2523  0.1369
 4169W        W19638  17.955   3.770   1.126 -0.3278  0.1262 -0.1999
 4170W        W19639  12.055  15.247   3.071  0.1200 -0.0139 -0.0379
 4171W        W19640   3.598   4.616   4.675  0.0048 -0.4398  0.0473
 4172W        W19641   6.361   9.871  15.865  0.2053  0.2933  0.1313
 4173W        W19642   5.704   7.184  14.134 -0.1683  0.2408 -0.1013
 4174W        W19643  11.555   8.604  13.120  0.0170  0.0547 -0.0839
 4175W        W19644   0.651   7.809   4.913  0.1368 -0.3117  0.0820
 4176W        W19645   6.886  18.049  12.882  0.1287  0.0700 -0.0311
 4177W        W19646   4.572   8.837   1.761 -0.0719 -0.0945 -0.1184
 4178W        W19647  16.665   7.400  11.068  0.1344  0.3591  0.0463
 4179W        W19648   0.430  15.510  11.113  0.0885 -0.0236  0.0109
 4180W        W19649  12.666  12.091   0.204 -0.2755 -0.0475  0.3769
 4181W        W19650  13.164   5.564   1.803  0.4994 -0.1660 -0.1272
 4182W        W19651  13.114  16.222  14.536  0.1144 -0.1639  0.1318
 4183W        W19652   9.317  10.134  11.485  0.0986 -0.0940  0.1321
 4184W        W19653   9.353  13.066   4.114  0.1686  0.1292  0.1227
 4185W        W19654   3.025   2.328   0.864 -0.0380  0.2365  0.0107
 4186W        W19655   7.296  11.823  12.327  0.0276 -0.0610  0.0869
 4187W        W19656   6.133   8.236   3.878  0.1774 -0.1858 -0.3149
 4188W        W19657   3.610  17.909  14.490 -0.1824  0.1095  0.1951
 4189W        W19658  15.429  10.704   0.184 -0.0526 -0.0082 -0.0605
 4190W        W19659  10.071   7.794  15.948  0.1345 -0.3088 -0.2314
 4191W        W19660   0.291   8.506  16.051  0.0304  0.3686  0.0375
 4192W        W19661  17.515   0.038  11.457 -0.0180 -0.0572  0.0160
 4193W        W19662  14.179   3.101  11.828  0.1879  0.5148  0.1722
 4194W        W19663   9.571  16.591  13.589  0.2430  0.1813  0.1222
 4195W        W19664  10.995  10.824  13.861  0.0509  0.0031 -0.0388
 4196W        W19665  14.547   7.911   0.716  0.0728  0.0352  0.1882
 4197W        W19666   9.332   0.723  15.063  0.1450 -0.1582 -0.0853
 4198W        W19667  17.361  10.148  12.561 -0.0772 -0.0708  0.3539
 4199W        W19668   8.802  14.397   4.580  0.3258 -0.1838 -0.1458
 4200W        W19669   7.250  12.799   1.910 -0.0107  0.0672  0.1135
 4201W        W19670  17.383  17.423   3.918  0.1876 -0.0263 -0.0112
 4202W        W19671   8.836   5.574  10.233 -0.3052 -0.0250  0.2046
 4203W        W19672   0.330   5.748   2.310  0.0984  0.0124 -0.4557
 4204W        W19673   5.985   9.586  10.928 -0.0198 -0.0423  0.1123
 4205W        W19674   0.197  10.597   2.185  0.0020 -0.3443 -0.1247
 4206W        W19675  16.081   1.713  12.947 -0.0904  0.1868 -0.1809
 4207W        W19676   5.351  13.531  14.315 -0.2012  0.0465 -0.1929
 4208W        W19677  10.695  14.486  14.339  0.2901  0.0887  0.0746
 4209W        W19678  10.151   7.947   4.706 -0.3990  0.0379 -0.0431
 4210W        W19679  13.867  17.724  15.095 -0.1158 -0.1496  0.3418
 4211W        W19680  17.292   5.019   4.653 -0.0822 -0.0032 -0.1510
 4212W        W19681  11.158   5.402  13.092  0.4432  0.2073  0.0400
 4213W        W19682  11.839  16.990  14.832  0.0673  0.2870  0.0493
 4214W        W19683  16.299  10.256  14.046  0.0275 -0.0593  0.0593
 4215W        W19684   7.355  10.671   3.471  0.2334  0.1229  0.0114
 4216W        W19685   6.261  11.861  10.985 -0.2675 -0.2007 -0.0774
 4217W        W19686  13.348  17.244  12.191  0.2291 -0.1465  0.0542
 4218W        W19687  11.737  15.870  13.363 -0.0170  0.1199  0.1641
 4219W        W19688   2.089  13.176   4.948  0.2637  0.0024  0.0926
 4220W        W19689  14.099   4.871  12.010  0.3329  0.2378 -0.0642
 4221W        W19690  14.075  16.561   1.566 -0.4216 -0.1160 -0.1725
 4222W        W19691   1.753   0.003   5.038  0.1872 -0.0838 -0.4561
 4223W        W19692   4.586  12.123   1.943 -0.1587  0.3403  0.0181
 4224W        W19693  10.994  11.155   5.218  0.2589 -0.2339  0.2305
 4225W        W19694   3.065   7.364  15.749 -0.2465  0.1460 -0.0277
 4226W        W19695  11.942   1.841  12.432  0.0943  0.1913 -0.1411
 4227W        W19696  13.922   8.258  14.371 -0.1960  0.2348 -0.0909
 4228W        W19697  14.925   1.213   0.181  0.0904 -0.1675 -0.3314
 4229W        W19698  15.982  10.154  12.329  0.3348 -0.2479  0.0454
 4230W        W19699   8.365  16.646   3.824 -0.1701  0.1475 -0.1201
 4231W        W19700  13.102  13.851   5.382  0.0799  0.0438 -0.3495
 4232W        W19701   5.418  16.945   4.481 -0.2843 -0.0690  0.1356
 4233W        W19702   6.422  17.673  13.676  0.1301  0.1034 -0.3297
 4234W        W19703   5.707  17.812   2.443 -0.0469 -0.1534 -0.2032
 4235W        W19704  18.282   2.242  13.670 -0.1750  0.0954 -0.3066
 4236W        W19705   8.178  14.620  12.850 -0.1264 -0.4001 -0.0500
 4237W        W19706  13.814  12.699   5.880  0.0291 -0.0951  0.2491
 4238W        W19707   3.448   5.555  12.651  0.1517 -0.1795 -0.1631
 4239W        W19708  15.769  11.585  11.922 -0.0545 -0.1598  0.3557
 4240W        W19709  17.519  15.345  11.828 -0.4039 -0.1931  0.2187
 4241W        W19710   5.634  12.830   1.807 -0.3345  0.0530 -0.0699
 4242W        W19711   0.009   0.626  15.576  0.0442  0.0661 -0.3053
 4243W        W19712   0.568   0.473  13.854 -0.1314 -0.0323  0.1731
 4244W        W19713   5.273   6.542  13.930 -0.0717 -0.3139 -0.0798
 4245W        W19714  17.546  11.657   4.096  0.0748  0.0328  0.0655
 4246W        W19715   5.380   7.321   0.134  0.1570  0.0882  0.2380
 4247W        W19716  17.317  12.656   0.619 -0.1553 -0.0505 -0.3255
 4248W        W19717   0.791  13.569  11.840 -0.2835  0.1237  0.0496
 4249W        W19718   8.813  12.335   2.368 -0.1295  0.2144 -0.3376
 4250W        W19719  10.736   8.633   5.462  0.1011 -0.3100 -0.1151
 4251W        W19720   3.658   1.871  12.653 -0.0071 -0.1424 -0.1713
 4252W        W19721  15.824  13.788   1.282 -0.0797  0.0529 -0.1580
 4253W        W19722  13.847  10.611   3.056 -0.2307 -0.2118 -0.0622
 4254W        W19723  10.391   9.063  12.883  0.2130 -0.0730 -0.0085
 4255W        W19724  15.094  17.584   4.938  0.1313 -0.1505 -0.3026
 4256W        W19725   7.315   7.957  14.924 -0.0831  0.2297 -0.2664
 4257W        W19726   6.697  16.352  11.079 -0.0963 -0.2508 -0.1671
 4258W        W19727  12.001   8.868  11.985  0.0929 -0.2417 -0.1076
 4259W        W19728   3.676   3.562   4.278  0.1622 -0.0895 -0.1445
 4260W        W19729  16.446  12.523   3.790 -0.1229 -0.0547 -0.0377
 4261W        W19730   7.174   3.133   3.904  0.0129 -0.2781  0.0791
 4262W        W19731  11.873  14.470  14.630  0.1052 -0.1413 -0.0944
 4263W        W19732   8.947   7.143  14.379  0.2913  0.0918 -0.2339
 4264W        W19733   9.638   5.071  10.591 -0.0551 -0.0735  0.2410
 4265W        W19734  15.060   3.819  13.916 -0.1349  0.1639 -0.0571
 4266W        W19735   6.128  17.553   0.967  0.0137 -0.1577  0.1216
 4267W        W19736  14.042   6.566   2.057  0.1826  0.2416 -0.1927
 4268W        W19737  13.838   9.364   1.316  0.1442  0.0360  0.1916
 4269W        W19738  12.865   2.374  14.941 -0.0501  0.1769 -0.2747
 4270W        W19739   5.723  15.348  14.850  0.1698  0.1773 -0.0420
 4271W        W19740   5.315   7.345  12.359  0.0449 -0.1990 -0.0104
 4272W        W19741   5.630  14.438  14.409  0.0197 -0.1069 -0.0043
 4273W        W19742  12.641   9.460  11.035  0.2746 -0.4581 -0.1470
 4274W        W19743  11.962  16.734  13.666  0.1472 -0.0508 -0.4327
 4275W        W19744   9.542   3.283  13.533  0.1028  0.0886 -0.0308
 4276W        W19745   8.189  10.559  15.198  0.1374  0.1745  0.0622
 4277W        W19746   7.246   5.705   3.632  0.3174  0.0695 -0.2561
 4278W        W19747   2.420  14.302  11.833 -0.0098  0.1497  0.1725
 4279W        W19748   7.855   0.985   1.849  0.0111  0.1303 -0.4680
 4280W        W19749   0.312  17.208  13.878  0.0521  0.1718  0.1791
 4281W        W19750  11.032  16.794  12.386  0.2511  0.0566 -0.0663
 4282W        W19751  17.020   5.513  15.541  0.1977 -0.1354  0.2179
 4283W        W19752   5.115   1.171  15.263 -0.1376 -0.1057 -0.0527
 4284W        W19753  13.366  17.120  12.929 -0.3534  0.1619 -0.2006
 4285W        W19754  16.465   3.508  15.182 -0.0213 -0.0122  0.3027
 4286W        W19755  14.162  16.152  15.173  0.2056 -0.1783 -0.0061
 4287W        W19756   2.321  16.923  12.372  0.2458 -0.3899 -0.0264
 4288W        W19757   2.482   5.082   2.480 -0.0081 -0.0036  0.0808
 4289W        W19758   1.844  15.047  13.632 -0.0492 -0.3391 -0.0621
 4290W        W19759   7.369   8.943   2.497  0.1586  0.0097 -0.2759
 4291W        W19760   2.159  13.809  11.984 -0.0993 -0.0783  0.0229
 4292W        W19761   9.313   4.228   1.133  0.0304  0.0959  0.1910
 4293W        W19762  17.366   0.545  13.576 -0.3269  0.0006  0.3724
 4294W        W19763   0.437   9.680  12.624 -0.0033 -0.3300  0.1924
 4295W        W19764   1.167   1.174   3.487 -0.1626 -0.0162  0.1158
 4296W        W19765   5.755   3.357  16.098 -0.0925  0.2954 -0.0761
 4297W        W19766   4.894   2.314  15.500  0.0634  0.0704 -0.0549
 4298W        W19767  15.651   4.097  12.631 -0.0056 -0.0167  0.0672
 4299W        W19768   6.753   1.507  15.068 -0.1987  0.3207  0.0885
 4300W        W19769   7.756  17.508   3.726  0.1745 -0.1514  0.3576
 4301W        W19770   9.747   6.588  12.172 -0.1022  0.1645 -0.2179
 4302W        W19771  15.079   7.805  13.515 -0.1300  0.1949  0.1462
 4303W        W19772   1.310   2.805  11.133  0.2698 -0.1318  0.1672
 4304W        W19773  15.995   7.974  15.118 -0.2429 -0.2728 -0.2431
 4305W        W19774   9.579  15.846  11.262  0.1629  0.0536 -0.0745
 4306W        W19775   1.797   9.963   1.676 -0.2410  0.0571 -0.0740
 4307W        W19776  11.527   7.343  11.560  0.2832 -0.0648  0.0241
 4308W        W19777  12.959   0.859  14.257 -0.0041 -0.0177  0.4681
 4309W        W19778  10.576   5.095   1.157  0.1719  0.0233  0.0570
 4310W        W19779   8.033   2.816  13.190 -0.1489  0.2259  0.2203
 4311W        W19780  10.336  17.753  13.502  0.2147 -0.2137 -0.2399
 4312W        W19781   4.297  17.908   0.652  0.0443 -0.1526  0.0623
 4313W        W19782   7.481   3.476   3.703 -0.0781  0.0742  0.0579
 4314W        W19783  15.805  11.995  10.938  0.1278  0.1915 -0.1023
 4315W        W19784   4.816   8.019  14.648 -0.0744 -0.0306  0.2160
 4316W        W19785   1.878  13.348  13.160  0.0801  0.0302  0.0418
 4317W        W19786  13.074   3.546  11.601  0.0952 -0.0303  0.0167
 4318W        W19787  15.098   7.250  14.777 -0.0546  0.0488 -0.1142
 4319W        W19788  14.006   5.215   1.792 -0.0664 -0.4283  0.0878
 4320W        W19789  13.696   9.728   2.885  0.0216  0.0924  0.1712
 4321W        W19790   0.736  15.655  12.488  0.0307 -0.1775 -0.2148
 4322W        W19791   6.187  16.098  11.549 -0.0156 -0.1875  0.2394
 4323W        W19792   7.485   7.025  11.364 -0.2310  0.1864  0.0071
 4324W        W19793   3.929   8.536  11.304 -0.3852  0.3682 -0.0306
 4325W        W19794   3.442   9.140   0.607 -0.3651  0.0791  0.0413
 4326W        W19795   2.435   6.597  10.207  0.0997 -0.2739  0.4075
 4327W        W19796   1.922   7.824   4.720  0.0009  0.1880  0.2538
 4328W        W19797  10.789  13.613  15.166 -0.0547  0.1595 -0.0112
 4329W        W19798  17.168   4.210  12.323  0.0107  0.1253  0.1341
 4330W        W19799  12.127   2.350   2.607 -0.0753 -0.3868  0.1019
 4331W        W19800  17.752  16.418  14.530 -0.3510  0.1330 -0.0480
 4332W        W19801   2.750  17.926   5.785 -0.0248 -0.2369 -0.2113
 4333W        W19802   2.625  16.852  15.775  0.0151  0.1466 -0.1356
 4334W        W19803  16.018   4.384   1.661 -0.2058  0.0983  0.0680
 4335W        W19804  14.274  11.262  12.192  0.1948  0.1344  0.3690
 4336W        W19805   6.406   7.411   3.346  0.1273  0.0178 -0.2488
 4337W        W19806   3.179   0.783  12.258 -0.2300  0.1129 -0.1375
 4338W        W19807   7.069  10.014   1.829 -0.1391  0.1256  0.0307
 4339W        W19808  15.308   7.923   3.706  0.5778  0.0344  0.2365
 4340W        W19809  13.903   8.171   3.420 -0.0595 -0.0117 -0.1389
 4341W        W19810   3.850  16.819  11.553 -0.4621 -0.2995  0.0725
 4342W        W19811   3.179  13.630   3.338 -0.1325 -0.2813  0.0716
 4343W        W19812   9.556   1.912  10.495  0.1533 -0.0061 -0.0196
 4344W        W19813   8.677  11.240  12.043 -0.1244  0.0748  0.3551
 4345W        W19814   7.793   0.381  14.790 -0.0812  0.1110 -0.0528
 4346W        W19815  11.224  12.057   1.869  0.2387 -0.0209 -0.1224
 4347W        W19816   8.003   7.236  13.686 -0.2344 -0.3097  0.0100
 4348W        W19817   0.437   1.096   3.685 -0.0899  0.0013 -0.1323
 4349W        W19818   9.304  16.054   5.671  0.3074 -0.0785 -0.1182
 4350W        W19819  15.255  16.121   1.877 -0.1200 -0.2531  0.2780
 4351W        W19820   9.752  17.276  15.635  0.5244 -0.1071  0.0377
 4352W        W19821   1.232  13.327   4.588  0.2912 -0.0874  0.3857
 4353W        W19822  13.629  12.094   0.081  0.1084 -0.0135  0.4964
 4354W        W19823   2.895  15.390   0.180  0.1558  0.1070  0.0019
 4355W        W19824   8.397   0.972  14.942 -0.2795 -0.1493  0.0271
 4356W        W19825   4.777   4.928   1.452  0.2352  0.0786 -0.1686
 4357W        W19826   1.694   0.941  12.789 -0.0853 -0.1184 -0.2083
 4358W        W19827  10.886   8.382  13.698  0.0691  0.1411  0.0481
 4359W        W19828  13.518  12.307  11.015 -0.1726 -0.3158 -0.0956
 4360W        W19829   0.368   6.529  14.186  0.1734  0.1117  0.1028
 4361W        W19830  16.184  14.414  13.644 -0.4273  0.0125 -0.1048
 4362W        W19831   6.078   5.543  15.589 -0.0534  0.2659 -0.1012
 4363W        W19832   7.300  17.280  13.416 -0.0184  0.1923 -0.1452
 4364W        W19833  11.700  12.683  14.140  0.0688 -0.2102  0.0366
 4365W        W19834   2.673   0.538  12.886  0.0585 -0.0756 -0.0812
 4366W        W19835   5.279   9.444  12.579 -0.1893 -0.2912  0.0063
 4367W        W19836   4.342  15.590   0.583  0.1207  0.1478  0.2953
 4368W        W19837   0.763  14.711   5.098 -0.0946 -0.1634 -0.0537
 4369W        W19838  10.011  12.143  15.075 -0.1709  0.0647 -0.0824
 4370W        W19839  15.443  14.676   2.927  0.0812  0.0194  0.0192
 4371W        W19840   7.925   4.022   5.598 -0.1960 -0.0215 -0.2372
 4372W        W19841  12.614   0.310   2.790  0.0116 -0.2794  0.2302
 4373W        W19842   2.461   9.763   4.431  0.2520 -0.0345  0.2444
 4374W        W19843  16.548   1.666   1.287  0.0496 -0.0570  0.1761
 4375W        W19844   5.644   9.757  13.039  0.0286 -0.1472  0.0107
 4376W        W19845  17.896  17.666   6.844 -0.0019 -0.3295  0.4433
 4377W        W19846  16.585   3.971  11.602  0.1381  0.1269  0.1940
 4378W        W19847  12.109   7.098   2.450  0.0730 -0.0316 -0.0782
 4379W        W19848   6.667   0.098   1.334 -0.3708  0.2591  0.1195
 4380W        W19849   7.751   4.591   0.390  0.2562  0.2681  0.2784
 4381W        W19850   9.757  11.475   2.643  0.0712  0.0954  0.0866
 4382W        W19851   9.135   4.157  16.110  0.0862 -0.0332 -0.0408
 4383W        W19852  11.416   7.196   1.389  0.0742 -0.0018  0.2145
 4384W        W19853  11.005   2.980   5.383  0.1229  0.2336 -0.1232
 4385W        W19854   5.456  13.285   0.550  0.1727  0.1357 -0.4775
 4386W        W19855  12.871   7.093  10.527  0.0434  0.0980 -0.1223
 4387W        W19856  11.112   5.213   4.130  0.0028  0.0480 -0.2024
 4388W        W19857  16.199   6.965  13.724  0.5641 -0.2088  0.1374
 4389W        W19858   8.504   4.020   1.618  0.0611  0.4152 -0.0679
 4390W        W19859  13.628  16.188  14.564 -0.2787 -0.1252  0.4589
 4391W        W19860   6.585  17.632   0.687 -0.0595 -0.1234 -0.1997
 4392W        W19861   5.863   8.133   0.814  0.1574 -0.1421  0.2458
 4393W        W19862   9.959  13.831   1.804 -0.1712 -0.3476  0.0521
 4394W        W19863  13.777  11.938  12.568 -0.3378  0.1235 -0.0422
 4395W        W19864   6.960   1.291  11.107  0.1143  0.0700  0.3547
 4396W        W19865  11.706   7.959   4.167 -0.1058 -0.2009 -0.0302
 4397W        W19866  13.212  15.566  15.870  0.1794 -0.1509  0.1122
 4398W        W19867   7.876   8.293   5.099  0.0806  0.1194  0.2415
 4399W        W19868   1.054  14.729   0.453 -0.1101 -0.2066 -0.1276
 4400W        W19869   0.970   7.888  11.637 -0.1616 -0.0408  0.3409
 4401W        W19870   5.450  13.567  14.856  0.0594 -0.1082 -0.3262
 4402W        W19871   0.376   8.791  12.025 -0.1624  0.1028  0.0669
 4403W        W19872   7.304  16.986  12.896  0.3088 -0.2080  0.0954
 4404W        W19873   0.778   1.370  14.948 -0.0557 -0.0625  0.2347
 4405W        W19874   5.325   8.093  14.502 -0.1096 -0.0463  0.0378
 4406W        W19875   1.356  10.634   5.816  0.0541  0.2728  0.0677
 4407W        W19876   0.006  11.417  10.713 -0.1354  0.1500  0.0978
 4408W        W19877  13.699  13.976   1.441  0.1486 -0.0342  0.0006
 4409W        W19878  14.411  11.284   2.500  0.1742 -0.3803 -0.2748
 4410W        W19879  10.075   5.350   0.289 -0.0128 -0.1109  0.0294
 4411W        W19880  10.959   3.056   6.289  0.2155  0.2321 -0.4230
 4412W        W19881   6.863   5.616   1.179 -0.1542 -0.1978  0.1507
 4413W        W19882   0.188   5.260   3.956 -0.1051  0.1346  0.1327
 4414W        W19883   3.243  17.217   3.523 -0.1102  0.0047  0.2580
 4415W        W19884  12.180  13.470   5.213  0.1274 -0.0109  0.2468
 4416W        W19885  12.087   4.887  11.971 -0.0372 -0.1007 -0.4202
 4417W        W19886  15.430   6.656   4.771  0.0287  0.0155 -0.2873
 4418W        W19887   5.365   7.431  10.953 -0.1388 -0.1779 -0.0366
 4419W        W19888  12.509  13.750  15.619  0.0698  0.3822 -0.0665
 4420W        W19889   1.879  16.124  14.396  0.0924 -0.0326 -0.0923
 4421W        W19890  13.136   8.469  10.189  0.1665  0.1508 -0.1230
 4422W        W19891   7.760  16.212  12.645 -0.1805  0.1481  0.1009
 4423W        W19892  17.826  11.963  14.624 -0.0577  0.1797 -0.3744
 4424W        W19893   3.857   9.652   3.941 -0.0507  0.3332  0.2328
 4425W        W19894   2.419  10.052   1.188  0.0112  0.1118  0.1663
 4426W        W19895  12.117   4.049  15.737 -0.1705  0.5917 -0.4711
 4427W        W19896   9.098   1.232  12.046  0.2400 -0.0683 -0.1940
 4428W        W19897   7.552  18.068  11.620 -0.1024  0.0443 -0.1309
 4429W        W19898  10.094   3.449   5.349  0.0290 -0.0616 -0.1891
 4430W        W19899   9.019   5.752  15.180 -0.1133 -0.0280  0.0532
 4431W        W19900   9.171   8.076  13.210 -0.0922 -0.0827  0.0460
 4432W        W19901   9.955   0.965   5.153 -0.1627 -0.2251  0.2276
 4433W        W19902   1.098   0.230  15.308 -0.0571  0.0020  0.0565
 4434W        W19903  16.080  11.216   0.728  0.1037  0.0589 -0.1080
 4435W        W19904  15.266   8.902   4.306  0.2080  0.0728 -0.4201
 4436W        W19905   6.284   2.886  13.867  0.0527 -0.1010  0.0766
 4437W        W19906   4.323  10.182   1.400  0.1059  0.2103  0.2839
 4438W        W19907   9.463   1.963   3.823  0.0546  0.1038 -0.0508
 4439W        W19908   1.938  11.356   4.807 -0.0313 -0.1201 -0.1884
 4440W        W19909   6.195   0.772   2.241  0.2014  0.2282 -0.0183
 4441W        W19910   3.169   1.831   0.604 -0.0161 -0.1730  0.2267
 4442W        W19911  13.655   3.439  11.714 -0.1006  0.1047 -0.3997
 4443W        W19912   6.965   6.092  12.498 -0.1062  0.2091 -0.1986
 4444W        W19913  16.413  14.910  13.293  0.1909 -0.1929 -0.2251
 4445W        W19914   2.018   8.340   2.343  0.0193 -0.2967  0.0284
 4446W        W19915  10.770   9.305  12.182  0.1698  0.0897 -0.1655
 4447W        W19916   1.631  14.997  15.094 -0.0413 -0.1373  0.0894
 4448W        W19917  13.040   2.228  15.386  0.1928 -0.3067 -0.0344
 4449W        W19918  14.745  11.528   2.817 -0.1282  0.1664 -0.0811
 4450W        W19919   9.653  16.213   2.603  0.1867  0.0153  0.1495
 4451W        W19920   3.356  13.513   1.577 -0.0626 -0.3021 -0.2782
 4452W        W19921  12.820   1.075   3.461 -0.1216  0.1844 -0.1078
 4453W        W19922   8.862   7.509  12.316 -0.4078 -0.1549 -0.3254
 4454W        W19923  17.976  10.558   2.093 -0.0210 -0.2802 -0.0958
 4455W        W19924   3.655   6.633  14.606  0.0415  0.1720 -0.0441
 4456W        W19925  16.010  16.262  15.199 -0.0715  0.0190 -0.2336
 4457W        W19926   6.558   2.192   3.948 -0.0701 -0.2601 -0.2503
 4458W        W19927   2.766   6.356   4.191  0.0668 -0.2672 -0.0223
 4459W        W19928   2.170  10.217  13.073  0.1960  0.0819  0.0932
 4460W        W19929   9.754  13.612  13.837  0.4631  0.1774  0.2150
 4461W        W19930   1.342   5.847  10.518 -0.3982  0.0250  0.1656
 4462W        W19931  12.794  15.834  12.629  0.1915 -0.0323  0.2932
 4463W        W19932  10.783   5.976  15.991 -0.0832  0.0509 -0.1129
 4464W        W19933  15.470  13.982   3.614 -0.1988  0.1823  0.1614
 4465W        W19934  16.255   8.627   0.137  0.1735 -0.2528  0.2042
 4466W        W19935  11.741  14.466  10.419  0.1619 -0.0833  0.1483
 4467W        W19936   6.823   7.011   2.296  0.0988 -0.0303  0.1727
 4468W        W19937  12.532   0.658   3.461  0.0078  0.0658 -0.1930
 4469W        W19938  16.085   8.296  15.495 -0.3813 -0.1075 -0.2149
 4470W        W19939   9.261   5.515   5.539 -0.2187 -0.1189 -0.0920
 4471W        W19940   7.351  15.773  11.986  0.2548  0.2005  0.2821
 4472W        W19941  17.573   4.110  12.640  0.0720 -0.2251  0.0396
 4473W        W19942  12.454  14.148   4.568  0.0992  0.0601 -0.3055
 4474W        W19943   1.798   5.777   1.109 -0.2599 -0.4414  0.1535
 4475W        W19944  10.565   1.127   4.912 -0.0476 -0.1626  0.1292
 4476W        W19945   9.655   1.043   2.759  0.0274  0.1036  0.0267
 4477W        W19946   2.161  13.689  15.704 -0.3444 -0.0166 -0.2329
 4478W        W19947   0.582  16.761   1.157  0.1199  0.0555  0.0163
 4479W        W19948  10.774  16.667  14.946  0.1076 -0.1132 -0.1583
 4480W        W19949   6.147   0.319   1.992  0.3450 -0.0097 -0.0585
 4481W        W19950   1.651   6.212   5.894  0.0733 -0.3086  0.2708
 4482W        W19951  10.857   5.723  14.363 -0.1861 -0.1163  0.0331
 4483W        W19952   1.049   7.555  14.684  0.0919 -0.1805 -0.0386
 4484W        W19953   5.209  11.429  12.563  0.1557  0.1479  0.0324
 4485W        W19954   4.985  16.760   4.826 -0.3046 -0.1666  0.0659
 4486W        W19955   6.344   7.969  10.427 -0.2250  0.1694 -0.0248
 4487W        W19956   7.078   4.157  13.793  0.2379  0.1306  0.3600
 4488W        W19957  10.946  10.725  14.805  0.1013  0.3471 -0.0502
 4489W        W19958  14.911   8.635  13.270  0.2459 -0.1477 -0.0080
 4490W        W19959  11.580   2.446  14.020 -0.1829  0.2633  0.0183
 4491W        W19960   0.675  14.357  13.907  0.1869  0.1336  0.3083
 4492W        W19961   5.065   2.247   5.001 -0.2587  0.0005  0.1935
 4493W        W19962  15.874   4.933  11.484  0.3088 -0.0954  0.0467
 4494W        W19963  15.429   7.084   3.389  0.3137  0.1258  0.0771
 4495W        W19964  10.761  17.636   2.411 -0.1923  0.3601 -0.0523
 4496W        W19965  13.452  10.021  14.072 -0.0494 -0.0162 -0.2650
 4497W        W19966   4.627  16.663   0.877 -0.0521 -0.1997  0.0340
 4498W        W19967   2.501   6.951   3.163 -0.2301  0.0837 -0.1862
 4499W        W19968   7.311   8.962  12.306 -0.0205  0.3014 -0.0111
 4500W        W19969   8.642   4.342  11.880  0.2363  0.0272 -0.3986
 4501W        W19970  12.384  11.528  14.231 -0.1062 -0.1447 -0.0081
 4502W        W19971  12.983   7.896   5.095  0.2254 -0.0258  0.1592
 4503W        W19972   0.733  11.769   1.126 -0.2941  0.2026 -0.0708
 4504W        W19973  10.857  12.296  11.901 -0.0798 -0.1205  0.1614
 4505W        W19974  16.686   9.307   2.226  0.0364  0.1244  0.1899
 4506W        W19975   8.934   5.320  13.323  0.0440  0.2810 -0.0878
 4507W        W19976  17.567   2.313  12.986 -0.2653 -0.0716 -0.0383
 4508W        W19977   2.947   7.740   2.122 -0.0225  0.2756 -0.0053
 4509W        W19978  14.163   8.713  14.454  0.0464 -0.3545  0.3279
 4510W        W19979   3.693  13.240  14.718 -0.1605  0.1201  0.2070
 4511W        W19980   4.138   2.539   0.869 -0.2411 -0.2546  0.1841
 4512W        W19981   3.397  11.222  13.044 -0.1413 -0.1288  0.0333
 4513W        W19982   9.309  15.894   2.901  0.0873 -0.2081 -0.2289
 4514W        W19983  14.875   3.998   1.092 -0.1969  0.2349  0.0543
 4515W        W19984  13.431  16.579  10.448 -0.1398  0.1049 -0.0552
 4516W        W19985   9.210  16.716  12.384  0.3923 -0.0654 -0.1243
 4517W        W19986   4.310  16.583   3.079  0.0770 -0.0086  0.0871
 4518W        W19987  11.126  12.805  15.730  0.2382 -0.0329 -0.0007
 4519W        W19988  13.523   6.342  12.395 -0.0571  0.1768 -0.0418
 4520W        W19989   4.246  13.009   2.699 -0.0166 -0.0246  0.0306
 4521W        W19990  14.341  11.691  14.914  0.1081 -0.1815 -0.0435
 4522W        W19991   8.231   1.557  10.764 -0.0812 -0.0194  0.0308
 4523W        W19992  13.230  15.611  11.409  0.1620  0.0416 -0.0707
 4524W        W19993  10.080   2.290   0.198  0.0810 -0.0527 -0.1040
 4525W        W19994   9.123   3.431  13.893  0.1770 -0.0296  0.2442
 4526W        W19995   2.110  13.051   0.373  0.0553  0.2576  0.3736
 4527W        W19996   6.624   8.936  11.071  0.1803 -0.2095  0.0466
 4528W        W19997  11.331  13.323   0.315  0.1105 -0.0920 -0.0462
 4529W        W19998   9.277   9.281  14.913 -0.0985  0.2040 -0.0788
 4530W        W19999   1.186  17.262   0.079 -0.0020 -0.1466 -0.3559
 4531W        W20000  15.279   2.528   1.584 -0.0677  0.1427 -0.0363
 4532W        W20001   9.085  13.232  12.371 -0.0451  0.0421  0.1159
 4533W        W20002   0.819  17.268   1.415 -0.2002  0.0216  0.4046
 4534W        W20003   2.692  14.152   4.566  0.0852  0.0525  0.3296
 4535W        W20004  12.793  15.175  14.683  0.1519  0.0806 -0.2004
 4536W        W20005  10.006  14.407  12.774 -0.2010  0.1225 -0.2435
 4537W        W20006  17.946  11.394   6.099  0.0291  0.1974  0.1111
 4538W        W20007   8.011  16.587  12.956 -0.2104 -0.4257 -0.0207
 4539W        W20008  14.998   1.787   3.871 -0.1568  0.0698  0.1245
 4540W        W20009  12.707  15.227  11.447  0.2552 -0.1263 -0.0880
 4541W        W20010   7.004   8.609   2.228  0.0962  0.1378  0.2527
 4542W        W20011  14.254   6.701  13.743  0.0146  0.0541 -0.0811
 4543W        W20012   8.814  10.464  13.347 -0.0429  0.1105  0.0316
 4544W        W20013  11.821   7.598   4.752  0.0376  0.3585  0.1865
 4545W        W20014   1.756  16.585   5.955 -0.1571  0.3808 -0.0568
 4546W        W20015   1.542   5.089   1.120  0.0354  0.0284  0.1523
 4547W        W20016  12.431  14.897   3.276  0.2151  0.3236  0.3143
 4548W        W20017  17.458  12.482  14.045 -0.1173  0.1203 -0.1087
 4549W        W20018  13.747   9.846  15.016 -0.0424  0.0917  0.3164
 4550W        W20019   6.674  13.570  13.492  0.0936  0.0992  0.1407
 4551W        W20020   2.037  14.060   1.869  0.2061  0.0080  0.0121
 4552W        W20021  15.226  12.555  13.582  0.0890  0.2603  0.1343
 4553W        W20022  17.808  12.842   3.235 -0.2896 -0.1647 -0.3355
 4554W        W20023  12.252   2.828  15.695 -0.1185 -0.0933  0.3377
 4555W        W20024   7.360   0.501  14.543 -0.1830 -0.1216  0.2162
 4556W        W20025   2.250   5.588   4.740 -0.1729  0.3381  0.0999
 4557W        W20026  16.173  17.211  10.812 -0.3704  0.0812 -0.0566
 4558W        W20027   5.098  16.129   3.968  0.1201  0.2070 -0.0308
 4559W        W20028  17.389   1.201   1.024 -0.1448 -0.0019 -0.1924
 4560W        W20029  15.726   2.341  14.412  0.0424  0.3442 -0.0936
 4561W        W20030   5.738   7.397   2.792  0.0289  0.0518  0.2599
 4562W        W20031   4.698  15.703  11.658 -0.0149  0.1603 -0.3013
 4563W        W20032   9.177  11.023  15.313 -0.0319 -0.2879  0.0035
 4564W        W20033  18.284   8.603  14.070  0.1743  0.3431  0.2243
 4565W        W20034   7.437  17.256   1.632 -0.0309  0.0494  0.1569
 4566W        W20035  13.592   2.672  11.306  0.1687  0.0129 -0.3539
 4567W        W20036  16.316  12.768  14.708 -0.1872 -0.0607  0.0110
 4568W        W20037   0.887  10.335   1.559 -0.0656 -0.1359  0.1862
 4569W        W20038   8.417  17.443  15.507 -0.3648  0.0303  0.0630
 4570W        W20039  10.471  16.919  16.093 -0.2480 -0.0663  0.0081
 4571W        W20040  17.840   5.531   5.425  0.0011  0.2982 -0.0218
 4572W        W20041  16.298   6.396  12.451  0.0333 -0.1442 -0.0612
 4573W        W20042   0.325  15.546   4.981  0.1409 -0.0923 -0.2542
 4574W        W20043  15.356   0.351  12.688  0.1440  0.0879  0.2688
 4575W        W20044   4.595   0.627  11.871 -0.1139 -0.2352  0.0575
 4576W        W20045  16.089  12.693   0.213 -0.3487 -0.0239 -0.2230
 4577W        W20046   6.916  14.446  15.736 -0.1952  0.1341 -0.0753
 4578W        W20047  10.693   1.681   5.049 -0.0242 -0.2047  0.0108
 4579W        W20048  15.030  13.182   1.053  0.3636 -0.0586  0.1849
 4580W        W20049  17.909   6.453   0.429 -0.0990  0.0419 -0.3033
 4581W        W20050  10.505   3.805   0.011  0.4828 -0.1690 -0.2757
 4582W        W20051   4.926   8.825  11.396 -0.0083 -0.0886  0.0275
 4583W        W20052  15.267   2.352  13.066 -0.0271  0.0191 -0.0831
 4584W        W20053   1.799  12.915  15.713 -0.3603  0.3494 -0.0524
 4585W        W20054   2.974   7.403  13.278 -0.1597  0.0927  0.2120
 4586W        W20055   4.720  12.664   0.701  0.2049 -0.1085 -0.0713
 4587W        W20056  14.151   8.171   5.965  0.1172  0.0548  0.1771
 4588W        W20057  13.627  14.335   3.801  0.0362 -0.0517  0.1769
 4589W        W20058  16.829  12.408  13.555  0.0393 -0.2840 -0.4259
 4590W        W20059  17.321  14.843  12.412 -0.0244  0.2394  0.0748
 4591W        W20060  16.322   8.982   1.614  0.0448 -0.1326  0.0377
 4592W        W20061   1.233   2.460  12.078  0.3162 -0.2831 -0.0738
 4593W        W20062   8.205  11.926  13.883 -0.0464  0.1468  0.1341
 4594W        W20063   3.211   5.445   2.326 -0.2696 -0.1538  0.0815
 4595W        W20064   0.432   2.714  12.413  0.3204 -0.0747 -0.2606
 4596W        W20065   7.476   2.573  15.531  0.1230 -0.3632  0.0037
 4597W        W20066  11.454   0.619  11.354 -0.0679 -0.1255  0.2267
 4598W        W20067   3.722   3.995   3.172  0.2782  0.2835  0.3695
 4599W        W20068  14.980  13.749   0.698  0.0016  0.1077  0.1987
 4600W        W20069   8.778   4.357   1.257  0.1173 -0.0710 -0.0701
 4601W        W20070  13.866  15.846  14.885  0.3458 -0.1524 -0.0661
 4602W        W20071  11.306   9.056  12.989 -0.0177  0.0211  0.0811
 4603W        W20072  14.899   4.375  11.354  0.1308 -0.0025 -0.0526
 4604W        W20073  17.750  12.806  12.757  0.6232  0.0545 -0.1039
 4605W        W20074  15.738   8.694   4.221 -0.0509  0.1301 -0.3373
 4606W        W20075   7.898   0.312  14.247  0.1336 -0.2115 -0.3868
 4607W        W20076  18.252   4.032   4.596 -0.2936  0.0862  0.2641
 4608W        W20077  11.067  17.476  12.945  0.1198  0.2729 -0.4797
 4609W        W20078   9.925   0.590   2.779  0.1290  0.0867 -0.1402
 4610W        W20079   0.479   0.813  13.501  0.3347 -0.0187  0.0249
 4611W        W20080   8.466   9.081   0.725  0.2211  0.0908  0.1972
 4612W        W20081   9.153   1.136   2.737  0.1023  0.4565 -0.0782
 4613W        W20082   9.804   2.164  13.389  0.2338 -0.3243  0.0618
 4614W        W20083  12.029  17.434  12.404 -0.1647  0.0185 -0.0839
 4615W        W20084   5.898   2.658   3.037  0.1470  0.0033 -0.1796
 4616W        W20085  18.148  12.620  16.018 -0.1328 -0.1779  0.0063
 4617W        W20086  17.667  13.303   6.024  0.0717 -0.1116  0.2645
 4618W        W20087   0.992  17.829   3.140  0.0243  0.0958  0.2844
 4619W        W20088   3.660  15.973  16.046 -0.2621  0.0001 -0.1431
 4620W        W20089  12.265  13.323   2.286  0.3251  0.1162 -0.0807
 4621W        W20090   5.347   9.611  11.413 -0.0045 -0.0199 -0.4430
 4622W        W20091  12.570   9.753   1.720 -0.1754  0.0251 -0.0854
 4623W        W20092  17.487  13.579   3.595 -0.1013 -0.1304  0.1032
 4624W        W20093  12.162  13.152   3.517 -0.2384  0.1113 -0.2427
 4625W        W20094  12.845   8.522   5.974  0.0306 -0.1279  0.1392
 4626W        W20095   9.792  12.640   3.467 -0.2164 -0.1985  0.2611
 4627W        W20096   7.315  10.172   4.332  0.2868 -0.1351  0.1340
 4628W        W20097   4.970   4.093   1.750 -0.2847 -0.1664  0.0551
 4629W        W20098   6.699  13.789   5.319  0.0361 -0.0693  0.0905
 4630W        W20099   3.229  16.943  14.233  0.2362  0.3788  0.1306
 4631W        W20100  18.134  15.319  10.036 -0.0183  0.0616 -0.4469
 4632W        W20101  10.599  16.533   3.543  0.0851 -0.3381  0.1541
 4633W        W20102  13.311   4.823  14.012  0.1907 -0.1368  0.0077
 4634W        W20103   5.846  17.578   9.999  0.0989  0.0268 -0.1561
 4635W        W20104   1.224   0.273  14.251 -0.2446  0.0997 -0.0504
 4636W        W20105  12.232   7.037  12.967 -0.0657  0.1307 -0.0325
 4637W        W20106   7.739  12.806  10.096  0.3879 -0.0883 -0.0705
 4638W        W20107   2.254   5.254  14.494  0.0364  0.1589  0.0094
 4639W        W20108   0.824  14.602   3.821  0.0180  0.0389 -0.2411
 4640W        W20109  12.949   3.120   2.945 -0.0537 -0.2304 -0.1290
 4641W        W20110   6.367  10.413  11.497 -0.0047 -0.0144 -0.1076
 4642W        W20111   5.049   0.333   2.129  0.0387 -0.0343 -0.1862
 4643W        W20112  12.077  13.664   1.141  0.1682 -0.0426 -0.1547
 4644W        W20113  10.389  11.048   5.140 -0.0688 -0.0979  0.0697
 4645W        W20114  13.939   6.227  15.443  0.2040 -0.0551 -0.3883
 4646W        W20115   0.249   3.433  15.977  0.0442 -0.0540 -0.2004
 4647W        W20116  10.979   6.175  11.782 -0.0283 -0.1783  0.1140
 4648W        W20117   9.712   8.484   0.439 -0.0221 -0.1219 -0.0209
 4649W        W20118  11.502   2.519   5.875  0.2034 -0.2402 -0.1959
 4650W        W20119  15.394   5.374  14.551 -0.1077 -0.1626  0.0601
 4651W        W20120  12.104  13.024   0.218  0.1094  0.1292  0.0210
 4652W        W20121  17.393  17.295   2.511 -0.0505 -0.2732  0.0161
 4653W        W20122   1.172   5.951  14.229 -0.0919  0.2884  0.1555
 4654W        W20123  13.993   3.957  11.258 -0.1104  0.1347 -0.1816
 4655W        W20124   9.171  16.105   9.770 -0.1609 -0.2710 -0.2567
 4656W        W20125  10.672   5.659   4.043 -0.3807 -0.0284 -0.0586
 4657W        W20126   0.374  15.907   1.275  0.2853 -0.1539  0.2557
 4658W        W20127   8.918  15.724  15.441 -0.1289 -0.1730  0.0056
 4659W        W20128   6.004   5.382   4.056  0.0412  0.2771  0.0656
 4660W        W20129  11.470  12.961   0.957 -0.0114  0.0245 -0.1198
 4661W        W20130   1.635  15.358  12.097  0.6244 -0.0801 -0.0444
 4662W        W20131  15.862   6.885   5.944  0.1840  0.1760 -0.0539
 4663W        W20132  11.282  11.649  11.299 -0.1511 -0.0887  0.1505
 4664W        W20133  16.492   9.412   0.825 -0.2151  0.0777  0.0258
 4665W        W20134   1.325   7.454  12.191 -0.3002 -0.1462  0.2633
 4666W        W20135  16.653  17.895   2.604 -0.5015 -0.2001 -0.0881
 4667W        W20136   8.397  11.326  13.830  0.3541 -0.0526 -0.0594
 4668W        W20137  14.489   1.472   0.407  0.1991  0.0645 -0.0100
 4669W        W20138   6.726   2.313   2.492  0.1612  0.0086  0.0008
 4670W        W20139   4.325   8.688  14.078  0.0738  0.0454 -0.1155
 4671W        W20140   7.379  11.115   0.217 -0.1752 -0.0797  0.0943
 4672W        W20141  12.692   3.589   6.204 -0.1779 -0.0388 -0.1067
 4673W        W20142   3.953   8.309   4.276  0.1820 -0.2090 -0.2491
 4674W        W20143   3.206   7.218   1.068 -0.1773  0.0286 -0.0202
 4675W        W20144  13.964   6.069  12.155  0.1789  0.0011  0.1604
 4676W        W20145  12.556  12.791   3.038 -0.2287 -0.1402 -0.1215
 4677W        W20146   5.695  12.455   4.615 -0.4161  0.1057 -0.3574
 4678W        W20147  15.936   2.244   5.042 -0.0024  0.0582  0.0294
 4679W        W20148   3.248   5.694  13.573 -0.1065 -0.0224  0.0608
 4680W        W20149   4.648   5.723   0.255  0.0864 -0.2616  0.1075
 4681W        W20150   9.314   5.854   3.360 -0.0062 -0.0735  0.3500
 4682W        W20151   3.849  16.766   1.310 -0.1599 -0.3017 -0.1180
 4683W        W20152   1.579   8.855   5.863 -0.2535  0.1282 -0.0124
 4684W        W20153   7.625  14.658  14.013 -0.2892 -0.0670 -0.0524
 4685W        W20154   7.308   3.779  15.552  0.1100  0.2638 -0.1766
 4686W        W20155   1.358   0.244  12.054  0.0319 -0.2013 -0.1565
 4687W        W20156  14.643   4.533   5.628 -0.0368 -0.0439  0.0807
 4688W        W20157  10.337   5.958  12.855  0.2590 -0.4797 -0.0627
 4689W        W20158   9.916   8.732  12.118 -0.3302  0.1008 -0.0591
 4690W        W20159   8.447  17.333   4.140  0.0490 -0.0197  0.2443
 4691W        W20160   8.322  15.090  11.292 -0.1016  0.1943 -0.1170
 4692W        W20161  16.067   7.564  12.528  0.0584  0.0415 -0.4108
 4693W        W20162  17.452  16.477   1.263  0.5133  0.1626 -0.2109
 4694W        W20163  13.003  12.161   4.176 -0.2221  0.0596  0.1496
 4695W        W20164  16.750   3.875  12.244  0.1039  0.0050 -0.0031
 4696W        W20165  15.944  17.869   3.357 -0.1239  0.0027 -0.0289
 4697W        W20166   0.833   9.010   3.150  0.1843  0.5758  0.0265
 4698W        W20167  10.823   8.279   4.143 -0.1045  0.0935 -0.0853
 4699W        W20168   7.383   4.895   3.587  0.0485  0.1414 -0.2128
 4700W        W20169  14.041  10.172   0.361  0.0375 -0.1108 -0.0427
 4701W        W20170   9.195   1.648  11.051 -0.1147 -0.3429 -0.1515
 4702W        W20171   4.025  14.462   1.494  0.1931 -0.2430 -0.1172
 4703W        W20172  12.961   9.707  11.898 -0.1181 -0.1876 -0.0553
 4704W        W20173  17.768   4.162  13.127  0.3079  0.0691  0.1509
 4705W        W20174  14.048   0.204   0.586  0.2652 -0.0683 -0.0399
 4706W        W20175  11.454   2.764   3.666  0.0092 -0.0679 -0.0065
 4707W        W20176  18.103  15.437  11.732 -0.5855  0.1418  0.0059
 4708W        W20177   0.064  17.614   5.868  0.3498  0.2138 -0.1256
 4709W        W20178  16.456   7.410  13.554  0.0681  0.2453 -0.1044
 4710W        W20179  12.094   8.560  15.322 -0.0969  0.1140 -0.1587
 4711W        W20180   9.965   0.263  11.564 -0.2747 -0.3064 -0.3529
 4712W        W20181   3.899   6.122  12.130  0.0215 -0.1894 -0.0121
 4713W        W20182  12.590  15.358  13.710  0.0534 -0.1911  0.0602
 4714W        W20183   6.993  12.709  14.609  0.1900 -0.1127  0.2403
 4715W        W20184   9.842   1.869   5.169 -0.1439  0.2225 -0.1200
 4716W        W20185   3.785   8.902  13.927  0.1364 -0.0157 -0.0906
 4717W        W20186   0.959   1.654   4.149 -0.0662  0.0584 -0.2147
 4718W        W20187  15.461  13.926  14.128  0.0887  0.0142  0.0388
 4719W        W20188   2.221  12.909  12.493  0.0700  0.1936  0.1041
 4720W        W20189   9.090   0.104  10.904 -0.1175 -0.0666 -0.1187
 4721W        W20190   8.220   9.829   4.051  0.2531  0.0282 -0.0571
 4722W        W20191  16.562   2.158  15.856  0.0968  0.1234 -0.1227
 4723W        W20192   4.086   7.008   4.074  0.2663  0.2365  0.1751
 4724W        W20193   3.924   5.246  12.752  0.1750  0.1645  0.0197
 4725W        W20194   1.126  16.029   0.759  0.1160  0.1886  0.0292
 4726W        W20195  13.197   0.759   5.337  0.2920 -0.0516  0.1730
 4727W        W20196   4.168  16.975  11.924  0.0909  0.1325 -0.0331
 4728W        W20197  11.341   5.275   3.464  0.2781  0.0029  0.1333
 4729W        W20198  14.932  10.566   4.441  0.2274  0.0627  0.0333
 4730W        W20199  14.215  17.512  15.437  0.3795  0.0441  0.1047
 4731W        W20200  16.550  17.471   4.699  0.0933 -0.3917 -0.1395
 4732W        W20201   8.333   3.690   0.301 -0.0592 -0.2567  0.0791
 4733W        W20202   1.102  13.466  11.078 -0.2514  0.2393  0.0063
 4734W        W20203   2.089  12.178   1.582 -0.0759  0.1700 -0.1845
 4735W        W20204   9.236   3.131  13.206  0.1158 -0.2374 -0.1995
 4736W        W20205  15.926  10.481   2.518 -0.0682 -0.2483  0.0164
 4737W        W20206  16.290  16.303  12.321  0.1788  0.0887 -0.1081
 4738W        W20207   2.147  13.590   2.716  0.1234  0.1489  0.2319
 4739W        W20208  11.923   3.257  15.829 -0.6532  0.0950  0.0878
 4740W        W20209  11.184   2.212  12.552  0.1980  0.0186 -0.1261
 4741W        W20210  14.063   1.953  14.274 -0.1230  0.2579  0.0276
 4742W        W20211  16.590  12.909   1.319 -0.1201 -0.1375 -0.1563
 4743W        W20212   1.468  12.994   2.031 -0.1140  0.0467 -0.2838
 4744W        W20213  14.644  15.921   3.115 -0.1940  0.0053  0.1576
 4745W        W20214   0.429   2.673   1.845  0.0725  0.0861  0.1046
 4746W        W20215  17.435   8.093   3.619 -0.2760 -0.2323  0.0038
 4747W        W20216   6.044  17.125  10.941 -0.1256  0.0757 -0.1667
 4748W        W20217   7.415  10.918  14.796 -0.0007 -0.0603  0.1401
 4749W        W20218  16.941   8.137   1.548  0.2156  0.0565  0.5045
 4750W        W20219  17.567   6.564   4.409  0.1659 -0.0870 -0.3223
 4751W        W20220   8.389  12.055   3.376  0.1804 -0.2298 -0.0916
 4752W        W20221   1.900  14.104  12.646 -0.3288 -0.1212 -0.5004
 4753W        W20222   2.271   4.416   4.367 -0.0800 -0.2419  0.3226
 4754W        W20223  14.369   4.916  15.423  0.0719  0.0107 -0.1378
 4755W        W20224   6.153   6.902   2.054 -0.1495  0.1240 -0.2074
 4756W        W20225   0.349  18.076   5.960  0.3334  0.0674 -0.2364
 4757W        W20226   6.420   3.620   3.834  0.3104  0.1390 -0.0083
 4758W        W20227  12.065  16.286   0.311  0.0777 -0.4226  0.0636
 4759W        W20228   2.133  12.661   4.401  0.2822  0.2387 -0.1617
 4760W        W20229   4.391  16.343   0.550 -0.2357 -0.0668 -0.0436
 4761W        W20230  16.074  12.360  10.174  0.1155  0.1579  0.1442
 4762W        W20231  15.851  13.078  16.029  0.1182 -0.1218  0.0084
 4763W        W20232  13.281   2.741  12.687  0.0564  0.2449  0.2638
 4764W        W20233  15.373   4.906  14.162 -0.2418  0.1264  0.0268
 4765W        W20234  18.177   8.449   1.029 -0.1011 -0.1266 -0.0576
 4766W        W20235  10.368   5.104  13.066  0.0880 -0.0387  0.0068
 4767W        W20236  13.093   7.963   4.608 -0.5264 -0.1236 -0.1006
 4768W        W20237  16.495  15.212   2.024 -0.1388  0.0116 -0.1010
 4769W        W20238   8.359  14.139  15.342  0.0636 -0.0229 -0.1666
 4770W        W20239   2.433  10.827   0.547 -0.2435  0.1398  0.1096
 4771W        W20240   4.448   3.098  15.931  0.2160 -0.0114 -0.0307
 4772W        W20241  11.915   4.740  14.687  0.1725 -0.1703  0.1013
 4773W        W20242   4.938  13.692   1.752 -0.0077 -0.1016  0.0598
 4774W        W20243  18.021  17.072   5.297  0.0742  0.2293 -0.1003
 4775W        W20244   5.483   9.210  15.238 -0.2000  0.0809  0.1236
 4776W        W20245   6.422   6.483   2.512  0.3523 -0.0125  0.0909
 4777W        W20246   5.831   4.662   3.164 -0.2200 -0.2204  0.1528
 4778W        W20247   1.984  14.347  11.435  0.1009 -0.0149  0.4426
 4779W        W20248  15.048  15.334  15.317 -0.0306  0.0725  0.2082
 4780W        W20249   3.384   1.487  13.059 -0.0475  0.0736 -0.1258
 4781W        W20250  13.356   1.197   3.524 -0.0069  0.0457 -0.1465
 4782W        W20251  12.319   5.668  12.724  0.0525  0.1816  0.0098
 4783W        W20252  16.646   2.814   4.046 -0.0858  0.1051  0.2969
 4784W        W20253   7.129   6.630  15.170 -0.3480  0.3363 -0.1743
 4785W        W20254   3.722   6.285  13.195 -0.3168  0.1253 -0.1028
 4786W        W20255  15.587   5.432  11.259  0.0354  0.1248  0.3117
 4787W        W20256  17.135   4.064   3.750 -0.1672  0.5695  0.1325
 4788W        W20257   8.558   6.521  10.232 -0.0678 -0.1344  0.0608
 4789W        W20258  14.214   9.886  14.782 -0.2326 -0.0871  0.1916
 4790W        W20259   1.891   1.992  14.042  0.0467 -0.2148  0.1773
 4791W        W20260  17.298  14.640   4.323 -0.0512 -0.1234  0.1275
 4792W        W20261  12.821   7.343   0.355 -0.0935 -0.4769 -0.3133
 4793W        W20262  10.098   4.161  11.364  0.0131  0.2033  0.1912
 4794W        W20263   0.206   5.937  12.320  0.0535 -0.1607 -0.0627
 4795W        W20264  13.261   3.467   4.772  0.1703  0.4425 -0.1500
 4796W        W20265   8.071   4.025   6.231 -0.1561  0.1419 -0.1668
 4797W        W20266   4.163  10.848   5.688 -0.0652  0.0701  0.0959
 4798W        W20267  12.752  17.327   3.213  0.2048  0.1072 -0.0767
 4799W        W20268   1.240   0.103  15.830  0.0911 -0.0498 -0.5669
 4800W        W20269  11.483  13.935  11.382  0.0548  0.1455 -0.1935
 4801W        W20270  12.034  15.504  13.025  0.2879 -0.0049 -0.0285
 4802W        W20271   7.151  13.540   0.694 -0.2394  0.1460 -0.1051
 4803W        W20272   2.512   9.184   3.669 -0.0785  0.3254 -0.2310
 4804W        W20273  13.372   5.249   2.088  0.2100 -0.0030  0.0410
 4805W        W20274   0.911   1.958   2.421 -0.4069  0.1352 -0.1096
 4806W        W20275  16.107  17.897  11.116 -0.1911  0.0862  0.1645
 4807W        W20276   3.580   2.470   0.869  0.0011 -0.0609 -0.0554
 4808W        W20277  17.084  11.672  15.957 -0.0816  0.0251 -0.1675
 4809W        W20278  13.904  12.775   0.943  0.1247  0.4516 -0.2135
 4810W        W20279   7.638  16.953   5.043 -0.1664  0.0891  0.3354
 4811W        W20280  12.991   0.055   2.870  0.0587 -0.1885  0.0785
 4812W        W20281   0.043   9.754  13.404 -0.0266  0.1863 -0.0959
 4813W        W20282   5.181   9.696  15.450 -0.0869  0.1755  0.2149
 4814W        W20283   0.201   3.636   1.859  0.2494 -0.5382 -0.4619
 4815W        W20284   3.275   4.747  15.927 -0.0425 -0.3165 -0.1332
 4816W        W20285  10.958  10.434   1.112 -0.0568  0.0663  0.2527
 4817W        W20286   7.605  14.770  12.779 -0.0653  0.0889 -0.2164
 4818W        W20287   9.737   9.510   2.029 -0.2209 -0.0775 -0.0016
 4819W        W20288  13.358   4.971   5.342 -0.1404 -0.0909 -0.0045
 4820W        W20289  12.762   9.192  12.550 -0.1287  0.0610 -0.1476
 4821W        W20290  13.426  10.541  15.731  0.3731 -0.1716  0.0577
 4822W        W20291   2.707  15.425   3.362  0.2798  0.2881  0.0898
 4823W        W20292   9.205   4.717   1.270  0.1421 -0.0492 -0.0897
 4824W        W20293   9.828   2.786  11.967 -0.0797 -0.0370  0.0404
 4825W        W20294  11.210  15.073  13.324 -0.0539  0.0417 -0.0754
 4826W        W20295   2.472   8.645  11.766 -0.2811  0.0597 -0.0685
 4827W        W20296   4.545   7.608  12.175 -0.0634  0.0882  0.0084
 4828W        W20297  13.996   6.041   5.665 -0.2130 -0.2281 -0.1532
 4829W        W20298   4.141  17.152  12.470 -0.0861  0.4760  0.3362
 4830W        W20299   3.816   7.680  15.981 -0.1077  0.0747  0.2079
 4831W        W20300   8.295   4.031  15.001 -0.1264  0.1782 -0.1482
 4832W        W20301   9.018  10.113  15.365  0.1359  0.1438  0.1444
 4833W        W20302   8.122   3.125  11.721  0.1318  0.1530  0.1552
 4834W        W20303  13.516   2.349  15.320  0.0131 -0.2639 -0.2478
 4835W        W20304   8.522  14.503   5.613  0.7135 -0.1959  0.0511
 4836W        W20305  11.287   9.863  11.188 -0.2382  0.0005  0.0668
 4837W        W20306  10.107   1.440   3.729 -0.0757 -0.0257 -0.3153
 4838W        W20307  17.603   0.383  12.164  0.0910  0.1866  0.0656
 4839W        W20308  17.691   2.782  11.857  0.1024 -0.1592 -0.1053
 4840W        W20309   9.119   4.799  14.222  0.1755 -0.0817 -0.2273
 4841W        W20310  10.380  16.480  15.188 -0.0527  0.1425  0.1128
 4842W        W20311   8.797   7.832   2.951 -0.1140 -0.1175 -0.1367
 4843W        W20312  17.436  14.239  15.098 -0.2752  0.1499 -0.2945
 4844W        W20313  11.489   6.711   1.247 -0.1604  0.1703  0.1167
 4845W        W20314   4.053  12.145  13.945 -0.0403 -0.2576 -0.3205
 4846W        W20315  14.210  10.452  14.464  0.0515  0.1118  0.2381
 4847W        W20316  10.711  12.171  12.852 -0.0028 -0.1350  0.1062
 4848W        W20317   0.353  12.200  10.970 -0.0215  0.2185 -0.0385
 4849W        W20318  17.920  16.676  15.221 -0.2517 -0.2063 -0.0083
 4850W        W20319  13.262  11.537   0.807  0.2064  0.2884  0.1692
 4851W        W20320  18.188  14.774   4.437  0.0105  0.0584  0.0385
 4852W        W20321   6.555   2.761   5.666 -0.2395  0.1740 -0.0545
 4853W        W20322   8.637   9.612   5.790 -0.0356 -0.0058  0.0600
 4854W        W20323  15.363  13.623   2.456  0.2565 -0.0586  0.1758
 4855W        W20324   1.581   7.452   4.928 -0.2440  0.2433  0.2187
 4856W        W20325  16.689  17.068   2.409  0.0091  0.0726 -0.0384
 4857W        W20326  15.595  10.187   1.934 -0.2410  0.0587  0.1767
 4858W        W20327   8.006  13.494  10.586 -0.2215  0.4011  0.0877
 4859W        W20328  11.218   0.774   0.840 -0.1025  0.1258 -0.1676
 4860W        W20329   5.219   6.877   3.738  0.1024  0.1970  0.0116
 4861W        W20330   7.003  17.438  12.688  0.2332 -0.2460 -0.1105
 4862W        W20331   5.915   8.527   4.268 -0.3106 -0.0753  0.1812
 4863W        W20332   6.911   0.442   4.043  0.1534 -0.1482 -0.1822
 4864W        W20333   9.796  18.022   4.928 -0.0841  0.1809 -0.4455
 4865W        W20334   7.080   9.733  12.756  0.3211 -0.1915  0.0058
 4866W        W20335   0.636   9.103  13.403 -0.0815 -0.0075  0.2358
 4867W        W20336   3.295  11.087  15.487  0.0149 -0.1229 -0.0879
 4868W        W20337   4.317   7.174   0.444  0.0314 -0.0693 -0.2889
 4869W        W20338   0.543   2.912   1.402 -0.4430 -0.1617 -0.1421
 4870W        W20339   0.963  12.750   1.110  0.0028  0.1130  0.1295
 4871W        W20340   6.830   7.382  13.315 -0.0383 -0.4066  0.1395
 4872W        W20341   7.877  10.275  11.573 -0.4066 -0.0734  0.1605
 4873W        W20342   6.952   8.802  14.822 -0.1439  0.1260  0.1555
 4874W        W20343  14.218  14.232   0.791  0.2746 -0.0695 -0.0955
 4875W        W20344  12.639   9.310  11.641 -0.0010 -0.1127 -0.0240
 4876W        W20345   4.634   4.321  15.488 -0.0882 -0.0432 -0.0243
 4877W        W20346   1.699   2.920   9.963 -0.0805  0.1320  0.4747
 4878W        W20347   2.796  12.466  14.386  0.4936 -0.1250  0.0443
 4879W        W20348   4.289   7.173  12.410 -0.1414  0.0412 -0.0706
 4880W        W20349   5.055   3.914   2.421 -0.1364  0.0643  0.0680
 4881W        W20350   5.276   6.328   3.382 -0.1442 -0.0697 -0.0425
 4882W        W20351  16.433   3.848   4.582 -0.0848 -0.0128  0.0831
 4883W        W20352   9.418  13.959  13.096  0.1357  0.0392  0.0563
 4884W        W20353  12.624  11.172   0.037  0.2825 -0.1871  0.0554
 4885W        W20354   1.279  15.205   1.993  0.0514 -0.1126  0.1998
 4886W        W20355   3.140  13.367   5.801 -0.0932  0.3319  0.1587
 4887W        W20356   0.910   7.001   5.495 -0.1306 -0.1604  0.0433
 4888W        W20357   0.983  17.305   4.843  0.0283 -0.1581 -0.0095
 4889W        W20358  13.274   3.024   2.480  0.0082 -0.0667  0.1260
 4890W        W20359   6.705  13.278   3.529  0.0998 -0.0002 -0.2290
 4891W        W20360   5.121   1.086  11.875  0.1531 -0.1602 -0.0712
 4892W        W20361  10.074  14.806  12.373  0.1009  0.0300 -0.2999
 4893W        W20362   3.513   9.034   1.644 -0.3229 -0.0190  0.0235
 4894W        W20363   2.375  15.355   1.337 -0.4730 -0.0067 -0.0363
 4895W        W20364   2.954  15.367  15.760 -0.1094 -0.0265 -0.0236
 4896W        W20365   7.930  16.106   1.921 -0.1957 -0.1081 -0.3007
 4897W        W20366  14.057  12.940   4.919 -0.1652  0.1923  0.2241
 4898W        W20367   1.444  17.418   3.226  0.1213 -0.0933  0.1092
 4899W        W20368  16.300   3.192  12.659  0.1287 -0.0168  0.1786
 4900W        W20369  13.793  17.252  12.553  0.1610  0.0385  0.0644
 4901W        W20370  11.965   1.844  11.021  0.0873 -0.2394 -0.0884
 4902W        W20371   0.178   4.815  14.026 -0.2137 -0.1186 -0.0138
 4903W        W20372   7.280  16.235   1.877  0.2081 -0.0491  0.1257
 4904W        W20373  14.638   5.604   0.947 -0.0625  0.1308 -0.0049
 4905W        W20374  14.183  10.615  15.260 -0.0559 -0.4481  0.1875
 4906W        W20375   6.578  10.888   0.323 -0.1346 -0.1207 -0.0224
 4907W        W20376   7.933  18.079   3.743 -0.2019 -0.0172  0.0173
 4908W        W20377  12.535   5.609  10.202 -0.2067 -0.1602  0.2424
 4909W        W20378  15.132   5.521   0.898  0.2694 -0.0958 -0.2721
 4910W        W20379   7.758   1.228  15.708  0.0514  0.1269  0.1521
 4911W        W20380   6.917   2.955  12.626  0.3512 -0.3478 -0.0381
 4912W        W20381  12.026  13.906  14.513 -0.1892  0.0385 -0.1478
 4913W        W20382   9.527   7.573  14.665  0.0410 -0.1965 -0.2959
 4914W        W20383  13.829  13.425   2.009  0.0624  0.2819 -0.2203
 4915W        W20384   2.758   2.553   5.309 -0.1454  0.1094 -0.0499
 4916W        W20385   7.061  14.026   2.870 -0.2683  0.1788  0.0405
 4917W        W20386   6.851  14.269   1.025  0.0048 -0.0847  0.0717
 4918W        W20387   3.092   2.321   3.788 -0.3307 -0.4558 -0.0028
 4919W        W20388   0.110   3.243   6.076  0.0992 -0.0903 -0.0784
 4920W        W20389  17.710  17.186  13.025  0.0660 -0.0444 -0.0339
 4921W        W20390   0.036  16.364   4.121 -0.0765  0.0340 -0.2836
 4922W        W20391   6.691  12.999   3.080  0.0794 -0.0003  0.1848
 4923W        W20392   3.535   9.062   2.975  0.0935  0.1502 -0.3257
 4924W        W20393  16.326   6.424  13.628 -0.3177 -0.3813  0.0986
 4925W        W20394  10.168   9.547   1.773 -0.1715  0.2685  0.1194
 4926W        W20395  11.201  14.120   5.112  0.1637  0.1695  0.0473
 4927W        W20396   7.804   6.472   1.304 -0.1451  0.0315  0.1679
 4928W        W20397  15.511  16.392  15.219 -0.0871  0.0165 -0.0982
 4929W        W20398   9.247   3.638  12.333 -0.2195  0.2003 -0.0609
 4930W        W20399  14.767   7.264   4.997  0.3048 -0.5279  0.0017
 4931W        W20400   6.607   7.006   3.048 -0.1214 -0.0192 -0.0780
 4932W        W20401   4.390   6.012  11.904 -0.6041 -0.0461 -0.1324
 4933W        W20402  18.083   6.411  13.148  0.1073 -0.1432 -0.0972
 4934W        W20403   5.643   1.073  15.373 -0.2836 -0.3685 -0.0060
 4935W        W20404   7.569  13.213  13.893  0.2456 -0.0323 -0.0145
 4936W        W20405   3.785   6.689  11.934 -0.0061 -0.0288  0.0065
 4937W        W20406   3.605   2.139  15.967 -0.3703  0.1681 -0.1685
 4938W        W20407   4.594  13.808   3.509 -0.1737  0.0940 -0.1026
 4939W        W20408  15.058   2.215  15.290 -0.0048 -0.2037 -0.0123
 4940W        W20409  12.749   5.372   1.588 -0.1691 -0.1790 -0.0177
 4941W        W20410  16.404  12.738   2.585 -0.0143  0.1614 -0.0593
 4942W        W20411   5.350  16.360   4.744 -0.0672 -0.0749  0.0010
 4943W        W20412   7.277   2.758  14.214  0.0566 -0.2391 -0.2816
 4944W        W20413  15.587   8.650   2.140  0.0482 -0.1301  0.0742
 4945W        W20414  16.623  15.455   2.784 -0.0040 -0.1068 -0.4601
 4946W        W20415   9.491   5.444   3.551 -0.0025  0.1986  0.3773
 4947W        W20416  16.956   5.878   4.377 -0.2118 -0.0496 -0.0029
 4948W        W20417   3.157   6.079  14.372 -0.0578 -0.1823  0.0814
 4949W        W20418   9.283  13.742  10.997 -0.2480  0.1147  0.0907
 4950W        W20419  15.231   6.197   4.969  0.0479  0.1004 -0.1170
 4951W        W20420   1.599   3.735  13.088  0.0316  0.0318  0.2132
 4952W        W20421  16.699   5.056   5.325  0.0124  0.0132  0.1435
 4953W        W20422   3.309   1.476   3.927 -0.0669  0.1923  0.0467
 4954W        W20423   8.984  13.469   2.402  0.0052  0.0798 -0.1432
 4955W        W20424  12.487   1.067  14.145  0.1158 -0.0807  0.0793
 4956W        W20425  16.303   3.756  12.483  0.1827  0.0582  0.0907
 4957W        W20426   3.890   2.962  14.744  0.2218 -0.1557 -0.1568
 4958W        W20427   2.556   4.259   2.796 -0.1899  0.1201  0.0311
 4959W        W20428   3.135  18.184   5.332  0.0880 -0.3405  0.1645
 4960W        W20429  15.521   7.919  11.712 -0.0539 -0.1943  0.0883
 4961W        W20430  17.952   5.267  11.871  0.1494  0.1202  0.1344
 4962W        W20431   8.173   6.664   1.555  0.0027 -0.0932 -0.2062
 4963W        W20432   6.935   7.907  12.719  0.0694 -0.2354  0.2750
 4964W        W20433  14.621   6.876  14.982 -0.0340 -0.1740 -0.2286
 4965W        W20434  12.413   0.651  15.957  0.0763 -0.0416 -0.0745
 4966W        W20435   0.194  14.351  12.830  0.0042 -0.3374  0.1300
 4967W        W20436   9.529  11.897   4.429  0.1663 -0.0128  0.1054
 4968W        W20437   4.669  12.903   3.013  0.0417 -0.0393  0.0147
 4969W        W20438   8.586  11.444  10.456 -0.0456  0.1287 -0.0402
 4970W        W20439   9.776   6.068   4.923  0.1288 -0.1949  0.1228
 4971W        W20440   8.695  12.951   4.051 -0.0705 -0.2553  0.1769
 4972W        W20441  17.876  17.291  12.393 -0.1256 -0.1360 -0.2266
 4973W        W20442   9.855  18.071   2.836 -0.0865  0.1432  0.0519
 4974W        W20443   5.762  17.242   2.311  0.0295 -0.0117 -0.0519
 4975W        W20444  13.752   8.550   4.211 -0.1289  0.0094  0.2858
 4976W        W20445   6.336  11.817   4.669  0.1757 -0.1663  0.0588
 4977W        W20446   6.959   9.037   3.110 -0.0786 -0.1216  0.2506
 4978W        W20447  15.726  10.521  15.904 -0.1683  0.0163 -0.3134
 4979W        W20448   6.655   6.372   4.916  0.0406 -0.0830  0.2288
 4980W        W20449  11.985   0.149   5.373 -0.0649 -0.1057  0.3653
 4981W        W20450   2.061   1.634   3.339 -0.0796 -0.3933 -0.0591
 4982W        W20451   3.388   0.311  12.082  0.0907  0.2382 -0.1366
 4983W        W20452   4.707   3.025  11.729  0.1262 -0.0398  0.1446
 4984W        W20453  12.115  12.014  15.188 -0.0834 -0.3134 -0.0147
 4985W        W20454  14.791   9.339   3.142 -0.0973 -0.0016 -0.0210
 4986W        W20455  18.106   1.255   0.028 -0.0672 -0.1515 -0.0205
 4987W        W20456  15.478   8.299   5.970  0.2763  0.0012  0.1469
 4988W        W20457   5.323  17.549   4.373 -0.1371 -0.1771  0.0552
 4989W        W20458   0.156   2.127   5.354 -0.0129 -0.1425 -0.1543
 4990W        W20459   9.202  11.543   4.306  0.3376 -0.2651 -0.3801
 4991W        W20460   1.249   4.030  13.438 -0.1261  0.1365  0.0515
 4992W        W20461   9.270   3.763   5.271 -0.0975 -0.0690 -0.3251
 4993W        W20462   8.487  12.814  11.167 -0.0568 -0.1007 -0.0692
 4994W        W20463  13.838   0.843  11.145  0.0712 -0.0908 -0.0093
 4995W        W20464   6.180   5.111  11.103 -0.1160  0.0063  0.2150
 4996W        W20465   7.730  12.868   1.755  0.1054  0.0029 -0.1239
 4997W        W20466   3.876  16.989   3.129 -0.0090 -0.1878 -0.0852
 4998W        W20467  16.226   7.092  13.135 -0.2408 -0.2757  0.2945
 4999W        W20468  16.940  11.240   1.266 -0.3019 -0.0221 -0.0032
 5000W        W20469  12.001   6.863   1.020  0.0032 -0.2822 -0.1868
 5001W        W20470   0.681  16.095   2.532  0.1795 -0.1612 -0.2514
 5002W        W20471   5.480   0.330  13.207  0.1961  0.1557  0.1311
 5003W        W20472  15.043   9.480  10.350  0.0008  0.3410 -0.0532
 5004W        W20473   6.719  15.412   2.871 -0.3989  0.3974 -0.0560
 5005W        W20474  15.777   5.143  13.048 -0.0757  0.1222  0.0652
 5006W        W20475  13.318  14.622  15.484 -0.0609  0.0317  0.1341
 5007W        W20476   2.344  16.644   4.175  0.0856  0.1337  0.0988
 5008W        W20477   1.158   2.557   3.314 -0.0881 -0.0432 -0.0780
 5009W        W20478   8.458  18.141   1.743  0.0082  0.1524 -0.0586
 5010W        W20479   8.376   3.511   3.395  0.1162 -0.0777  0.0519
 5011W        W20480   1.334   8.479  13.796 -0.1994 -0.0820 -0.0967
 5012W        W20481   2.491   4.571  11.123 -0.0237 -0.2783 -0.0800
 5013W        W20482  14.469  17.107  11.116 -0.3294 -0.0208 -0.1868
 5014W        W20483   4.301  17.888  11.853  0.1882 -0.0215 -0.0453
 5015W        W20484   1.410   0.439   0.889  0.3187  0.1424  0.2472
 5016W        W20485  14.037   6.698   3.436  0.0674 -0.1738  0.0322
 5017W        W20486  17.988  15.408   1.780 -0.0062  0.0118  0.1957
 5018W        W20487  13.080   9.741  13.965  0.1673  0.1307 -0.1340
 5019W        W20488   0.431   8.349  12.709 -0.0654  0.4881 -0.2552
 5020W        W20489  11.687   5.935  12.151 -0.2133  0.1113  0.2699
 5021W        W20490  10.592  13.249   5.052 -0.0715  0.0240 -0.3726
 5022W        W20491   5.797   4.838   3.645 -0.1156 -0.0230 -0.1025
 5023W        W20492   8.891  14.863   4.815 -0.2423  0.3298 -0.0768
 5024W        W20493  17.475   2.626  10.358 -0.0892 -0.1285  0.0356
 5025W        W20494  16.580   6.595   2.059 -0.1536  0.3443  0.0759
 5026W        W20495   7.995   6.110   4.259  0.1058 -0.2288  0.0433
 5027W        W20496  17.557   6.979  14.889  0.0806  0.0382 -0.1242
 5028W        W20497   7.886  16.213  10.853 -0.1995  0.0022 -0.1201
 5029W        W20498   5.493   5.978  14.844  0.1482  0.1809  0.0110
 5030W        W20499   3.690   4.110  15.364 -0.0417 -0.0923 -0.2462
 5031W        W20500  14.668  14.396   3.545 -0.0231  0.0268  0.3389
 5032W        W20501   8.410   4.582   3.458 -0.0103  0.2222 -0.4107
 5033W        W20502  11.445   6.547  13.533 -0.1567 -0.1516  0.0880
 5034W        W20503  12.915   8.360   2.072  0.2050 -0.0337 -0.1297
 5035W        W20504   0.508  16.967  10.501  0.0139 -0.0384 -0.0622
 5036W        W20505   6.561  12.260  11.696 -0.0767  0.4279 -0.0654
 5037W        W20506  12.245  17.241  15.744 -0.0120  0.0091  0.1157
 5038W        W20507   9.629  16.341  15.035  0.1880 -0.0983 -0.2832
 5039W        W20508   0.950   5.448   1.796 -0.0231 -0.0107 -0.0983
 5040W        W20509   9.166   5.513  11.704 -0.2254 -0.0476  0.2539
 5041W        W20510   2.085   1.364  11.222  0.0290  0.3340 -0.0771
 5042W        W20511  15.604  17.884  15.806 -0.1955  0.0822 -0.1614
 5043W        W20512  16.214  18.000   3.885 -0.2039 -0.2444 -0.2571
 5044W        W20513  12.262   0.558   6.413  0.3467 -0.1558  0.0074
 5045W        W20514   8.556   6.486  12.178  0.3518 -0.1418 -0.0941
 5046W        W20515  11.584   2.003  12.842 -0.0346  0.1800  0.1657
 5047W        W20516   2.118  13.052   2.765  0.0887 -0.2514  0.2752
 5048W        W20517   7.630   3.080   0.238 -0.1245 -0.2012  0.3936
 5049W        W20518  11.693  13.085   0.522  0.2594  0.0788 -0.0535
 5050W        W20519  13.345   7.375  12.348 -0.2190  0.1583  0.0301
 5051W        W20520  16.754  14.381  11.800  0.1297 -0.2061  0.1193
 5052W        W20521   2.332   8.330  13.663 -0.0008 -0.0484  0.0001
 5053W        W20522  10.475   5.234   3.301 -0.2126 -0.2270  0.0910
 5054W        W20523  10.136  10.054  12.097 -0.2202 -0.2178  0.2942
 5055W        W20524  15.876   1.685   4.472 -0.2589 -0.1864  0.1501
 5056W        W20525  11.672  10.963   2.479 -0.0436  0.0043 -0.1489
 5057W        W20526  13.597  14.147   5.359  0.3426 -0.0177 -0.1583
 5058W        W20527  11.716   2.603  15.750  0.4507  0.0775 -0.2758
 5059W        W20528   7.761  14.181   0.890 -0.0425  0.2870  0.1382
 5060W        W20529   0.540   8.394  15.375  0.5357  0.0874  0.0508
 5061W        W20530  18.001  15.647   0.399  0.0564  0.0788 -0.0806
 5062W        W20531   0.032   0.472   0.704  0.2194  0.2067 -0.2062
 5063W        W20532  17.676   3.813   2.334 -0.0960 -0.0040  0.3636
 5064W        W20533   6.135   9.894  11.466 -0.0135 -0.1929 -0.3973
 5065W        W20534   7.046   0.958  12.501  0.2962 -0.3696  0.3238
 5066W        W20535  10.107   4.430   5.498 -0.0617 -0.1216  0.0583
 5067W        W20536   5.698  17.576   1.350 -0.1343 -0.2429 -0.0933
 5068W        W20537   7.218   7.395  11.204  0.2555  0.0451  0.1442
 5069W        W20538   1.403   7.132  13.530  0.0246  0.0436 -0.5597
 5070W        W20539   0.041  15.900   0.709  0.0194 -0.2073 -0.2766
 5071W        W20540  12.142  14.055   1.466  0.0857 -0.2738 -0.0661
 5072W        W20541   7.206   9.477   3.159 -0.0055  0.1064  0.2804
 5073W        W20542   4.876  15.617  12.211  0.1552 -0.0518 -0.1563
 5074W        W20543   9.360  15.377  13.534 -0.3006 -0.1676 -0.1535
 5075W        W20544  15.396  15.286   0.932  0.2865 -0.0647 -0.1213
 5076W        W20545   5.242  17.917   2.400  0.1602  0.2890 -0.0394
 5077W        W20546  12.456  13.380   0.981 -0.0159 -0.4008  0.0354
 5078W        W20547   4.800  14.746  11.312  0.3183  0.0579 -0.0030
 5079W        W20548  15.501   4.509   4.369  0.0881 -0.1793 -0.0103
 5080W        W20549   7.761  13.250   0.918  0.0724  0.1263 -0.0419
 5081W        W20550  13.942   2.431   1.860 -0.1922  0.0937  0.2890
 5082W        W20551  18.032   3.048   3.880 -0.3074  0.0605  0.1449
 5083W        W20552   3.865  12.788  15.781  0.1052  0.1605 -0.2404
 5084W        W20553  17.405   1.950   5.011  0.1021  0.3283 -0.1084
 5085W        W20554   5.722   6.682  13.859 -0.2190  0.1710  0.0754
 5086W        W20555   9.609  12.317   4.728  0.0234  0.0297  0.0766
 5087W        W20556  16.738   3.444   1.925  0.1769 -0.1897  0.0839
 5088W        W20557  12.948   8.563  15.998 -0.1723 -0.0551  0.2835
 5089W        W20558   8.950   2.023   1.329 -0.0987  0.0020  0.0665
 5090W        W20559  15.917  13.639   0.734  0.2038 -0.5736 -0.0203
 5091W        W20560   0.990  12.871   1.999 -0.0277  0.0637 -0.0776
 5092W        W20561   8.114   9.913   2.991 -0.0082 -0.1942 -0.0643
 5093W        W20562  10.468   2.516  14.056  0.0020 -0.1310 -0.0086
 5094W        W20563  13.651  12.361  14.506  0.0603 -0.0613  0.2003
 5095W        W20564  16.047   2.195   5.529  0.2684  0.2783  0.2023
 5096W        W20565  18.033   0.101  15.630  0.1539  0.3155 -0.0609
 5097W        W20566  14.264  13.491  12.214 -0.3957 -0.2408 -0.1075
 5098W        W20567   4.615   1.252   2.865 -0.0901  0.1860  0.1080
 5099W        W20568   2.534   4.837   4.721  0.1948 -0.1037 -0.1462
 5100W        W20569  16.739  13.683   4.195  0.0268  0.2281  0.0415
 5101W        W20570   7.292   0.685   2.989  0.1512  0.0733 -0.0715
 5102W        W20571  11.364  12.913   3.660 -0.0721 -0.0186 -0.0070
 5103W        W20572  13.272   0.549   1.961 -0.1759  0.0464 -0.1133
 5104W        W20573  17.436  12.728   2.795  0.1905 -0.0341 -0.1308
 5105W        W20574   1.299   5.942  11.749  0.1700 -0.2633 -0.1828
 5106W        W20575   4.837  11.182   2.792  0.2792 -0.3605  0.2901
 5107W        W20576  11.754  15.336  11.485  0.3734 -0.1839  0.2237
 5108W        W20577   7.369   9.112   4.731 -0.1705  0.0804  0.0239
 5109W        W20578   4.090  11.587  15.503 -0.1846  0.3323 -0.0393
 5110W        W20579  14.385   6.635   0.816 -0.1297 -0.1705 -0.0914
 5111W        W20580  13.521   0.947  11.510 -0.1348 -0.0358 -0.2012
 5112W        W20581  10.470   3.903   5.767  0.1271 -0.1805  0.0736
 5113W        W20582   3.810   2.408  13.269 -0.1212 -0.0909 -0.1183
 5114W        W20583   3.879  17.524  12.616 -0.1756 -0.1187  0.2031
 5115W        W20584   1.159  16.335  11.124  0.2077 -0.0289  0.0377
 5116W        W20585  13.704   3.018   3.689 -0.3149 -0.0605  0.0887
 5117W        W20586  17.491  14.632   2.030  0.1973  0.0337  0.0709
 5118W        W20587  10.263  14.868  14.582  0.0098  0.0972 -0.1009
 5119W        W20588  17.502   2.804  11.449 -0.0332  0.0669 -0.0535
 5120W        W20589   1.299   8.262  11.490 -0.0963  0.1014 -0.1373
 5121W        W20590   9.035   6.462   2.842 -0.2025 -0.1566 -0.1192
 5122W        W20591  14.819  12.449   4.134  0.0195 -0.0065 -0.0342
 5123W        W20592  12.452  12.751   2.335  0.2267 -0.1236  0.1028
 5124W        W20593  11.720   0.250  15.386 -0.1311  0.0229  0.0196
 5125W        W20594  11.982  11.210  14.833  0.2302  0.1526  0.2221
 5126W        W20595   7.384   2.170   1.930 -0.3171  0.2773 -0.0070
 5127W        W20596   3.532   9.155   4.218  0.3932 -0.0863 -0.1463
 5128W        W20597  13.385  15.071  13.142 -0.1522  0.1263  0.0128
 5129W        W20598  16.464   0.097  15.551 -0.0839 -0.1074  0.1371
 5130W        W20599   4.029   3.991   4.088 -0.1810  0.0973  0.0705
 5131W        W20600   9.274   4.764  12.405 -0.0157  0.0984 -0.0582
 5132W        W20601   4.761   4.901   5.057  0.0485  0.1077 -0.0351
 5133W        W20602   5.582  17.431  13.347  0.0366 -0.2114 -0.2582
 5134W        W20603  18.139  13.066  13.862  0.0741  0.3930  0.0673
 5135W        W20604  15.396   8.570  15.557 -0.1332  0.0772 -0.1033
 5136W        W20605   1.714  11.390  15.646  0.0239  0.0094 -0.0931
 5137W        W20606  16.133   9.252  13.701  0.1486  0.1604 -0.1484
 5138W        W20607   7.298  10.033  14.920 -0.4417  0.2241  0.2811
 5139W        W20608  12.078  11.262  11.598 -0.2109 -0.0147 -0.0216
 5140W        W20609  14.724   2.696   5.374 -0.0647  0.1583 -0.0164
 5141W        W20610   6.914  14.545  11.395 -0.2868  0.0873 -0.2092
 5142W        W20611   1.757   2.374   4.242 -0.0010 -0.1506 -0.2910
 5143W        W20612   7.211   5.290  15.236  0.0702 -0.0906  0.2133
 5144W        W20613   6.217   3.738  13.837 -0.1824 -0.0945 -0.1350
 5145W        W20614   8.093   4.243   3.664 -0.0137 -0.0803 -0.1392
 5146W        W20615  10.863  16.898   3.762 -0.0475  0.1715 -0.0120
 5147W        W20616  11.463   7.606   0.566 -0.0428 -0.3324  0.1990
 5148W        W20617   0.608   9.602   0.475  0.1266  0.2511 -0.1151
 5149W        W20618   1.867   6.765   1.529  0.2161 -0.0202 -0.1264
 5150W        W20619   2.464  17.964   2.284 -0.1096 -0.1680  0.1118
 5151W        W20620  15.307  10.204   2.989 -0.0672  0.0862  0.0855
 5152W        W20621   3.197   7.057   4.920 -0.0901 -0.0415 -0.2362
 5153W        W20622   1.501  16.152  13.876 -0.1483  0.1489  0.0876
 5154W        W20623  12.008   7.649  14.121  0.0358  0.0740  0.3857
 5155W        W20624   1.889   0.521   1.806 -0.0838 -0.2222 -0.3785
 5156W        W20625   2.690   2.428   4.230  0.6059  0.1063  0.0456
 5157W        W20626  11.605   9.253   5.521 -0.1347  0.2339 -0.1203
 5158W        W20627  11.310  10.729  13.464  0.1231 -0.1611 -0.0096
 5159W        W20628  11.409  10.293  13.692  0.2465  0.1530 -0.0023
 5160W        W20629   9.691   7.780  11.218 -0.2934 -0.0141 -0.0045
 5161W        W20630   4.319   3.597   1.206  0.1951  0.0216  0.0150
 5162W        W20631  11.014   7.860  12.212 -0.0278 -0.0015 -0.0455
 5163W        W20632  13.937  14.258  13.256  0.1423  0.1537 -0.0535
 5164W        W20633   1.280  10.714  11.296 -0.1947 -0.1255 -0.0501
 5165W        W20634   5.170   3.994  10.083 -0.0123  0.0870 -0.0149
 5166W        W20635   8.999  15.030   4.354 -0.1509 -0.0288  0.0043
 5167W        W20636   4.251   9.149  13.911 -0.0906  0.2712 -0.0593
 5168W        W20637  16.233  10.439  15.970  0.1922 -0.1797 -0.0970
 5169W        W20638   4.728   0.672  13.989 -0.2096 -0.1196  0.0035
 5170W        W20639   7.103  14.832  10.259 -0.1308 -0.0601  0.1305
 5171W        W20640  11.314   3.660  10.979 -0.1120  0.1307 -0.2121
 5172W        W20641   7.463  18.131  11.084 -0.0629 -0.2485 -0.3176
 5173W        W20642  14.426  17.133   3.868  0.0155  0.2097 -0.2792
 5174W        W20643   1.241   5.244   4.130  0.2849 -0.1842 -0.0841
 5175W        W20644  16.330  17.498  14.715  0.1857 -0.1568 -0.0508
 5176W        W20645   9.627  13.918   0.037  0.1767  0.0011  0.0441
 5177W        W20646   5.449   6.778   1.160 -0.4543  0.0369  0.1307
 5178W        W20647   4.539   7.057   1.386  0.1341  0.0411 -0.1646
 5179W        W20648  14.549   1.361   3.377  0.3681 -0.0011  0.1761
 5180W        W20649   7.093   0.962  16.087  0.0633 -0.1509 -0.2608
 5181W        W20650  10.047  12.914   0.247  0.0157  0.0842 -0.2063
 5182W        W20651  14.031  14.239  14.675  0.0865 -0.2399  0.1105
 5183W        W20652   1.264   5.028  14.050  0.3448  0.1426 -0.3708
 5184W        W20653  10.382   9.715   3.545  0.1679  0.1400  0.0690
 5185W        W20654   2.065   4.440   0.489  0.0933 -0.3112 -0.0245
 5186W        W20655  17.186   9.459  11.476  0.0135 -0.2401  0.0095
 5187W        W20656   8.370   3.060   1.264 -0.0120 -0.0131 -0.0263
 5188W        W20657  12.454   7.949  14.180  0.1097 -0.0481 -0.0850
 5189W        W20658  17.922   2.104   5.280 -0.0969  0.1938  0.1523
 5190W        W20659   3.166  12.155  14.620  0.0107  0.0566  0.2020
 5191W        W20660   5.240  11.442  14.970  0.0560  0.0542 -0.3187
 5192W        W20661   5.859  16.058   5.442  0.1201 -0.2434  0.0749
 5193W        W20662   8.473   9.791   1.107  0.1468  0.2223  0.0199
 5194W        W20663  12.625   5.386   4.068  0.0207 -0.2588  0.1595
 5195W        W20664   5.361  14.978   5.386  0.1010 -0.0293  0.0674
 5196W        W20665   0.088  10.145  12.944  0.3860 -0.1356  0.0200
 5197W        W20666   9.153   1.141   5.212 -0.1623 -0.1054 -0.0922
 5198W        W20667  12.492  11.936   3.457 -0.0206  0.0160 -0.1618
 5199W        W20668   0.016  18.006   4.114  0.2433 -0.1015  0.2477
 5200W        W20669   6.045  13.189   4.933  0.0917  0.2728 -0.3509
 5201W        W20670  13.012   4.337   0.533  0.0924 -0.3835  0.1767
 5202W        W20671  12.299   3.802   2.391 -0.0452 -0.1166  0.0457
 5203W        W20672  16.985   9.413   3.867 -0.2001 -0.0435  0.0248
 5204W        W20673  11.422   5.699   5.317 -0.2952 -0.0372  0.0839
 5205W        W20674   9.411   7.933  15.799 -0.0045 -0.1127  0.2066
 5206W        W20675   3.151   0.676   4.184  0.1932 -0.0070  0.2433
 5207W        W20676   2.998   9.294   2.848 -0.1364 -0.0082 -0.1427
 5208W        W20677   8.837  13.795  11.686  0.0311  0.1336  0.2109
 5209W        W20678   9.974   6.308  13.649  0.1647  0.1814  0.5008
 5210W        W20679  10.413  15.967  15.135 -0.0345  0.2617 -0.0821
 5211W        W20680  14.913  15.029  13.631  0.1476  0.1505 -0.0429
 5212W        W20681  16.118  15.261   3.104  0.1172  0.0724 -0.2184
 5213W        W20682  11.244   4.012   3.295  0.1037 -0.1543  0.2197
 5214W        W20683   2.917   0.394   4.743  0.0434  0.1871 -0.2481
 5215W        W20684  12.109  14.933  11.554 -0.0106 -0.0600  0.2209
 5216W        W20685  16.065   7.799  15.651 -0.0078 -0.2498  0.0416
 5217W        W20686  12.440   6.149  15.927  0.1210 -0.0180  0.0586
 5218W        W20687   2.840   3.236  15.775  0.0624  0.1898 -0.0319
 5219W        W20688  15.751   9.164  10.213 -0.4289  0.0772  0.0760
 5220W        W20689   9.248   8.900   4.418  0.0918  0.1640 -0.1174
 5221W        W20690  17.797   6.579  14.286  0.0883 -0.2044 -0.1332
 5222W        W20691   2.856   0.879  15.646 -0.0452 -0.2875  0.2195
 5223W        W20692  11.824   5.878   5.595 -0.2201 -0.2068  0.1558
 5224W        W20693   9.928   1.444   2.734 -0.0001 -0.0239  0.0120
 5225W        W20694  11.688   2.303  13.281 -0.1536 -0.2148 -0.0397
 5226W        W20695  12.391   7.455   5.784  0.2956  0.0038 -0.0485
 5227W        W20696  14.658  10.779   0.508 -0.1528 -0.0582 -0.2508
 5228W        W20697   2.665   8.950  15.741 -0.1603 -0.1562 -0.1846
 5229W        W20698  12.231  13.571   0.132  0.1963 -0.1009 -0.0539
 5230W        W20699   8.156   5.079  13.783 -0.1959 -0.1010  0.1607
 5231W        W20700  13.836  16.522   4.520 -0.0327  0.0072 -0.0632
 5232W        W20701   6.616  11.647  12.631  0.1465 -0.0556  0.0282
 5233W        W20702   2.594   8.212  11.960 -0.0703 -0.1791 -0.0445
 5234W        W20703   6.416  12.161  15.133 -0.2329  0.1619  0.0735
 5235W        W20704  16.717   5.392   0.972 -0.1555 -0.0496 -0.0975
 5236W        W20705   9.269   9.122   4.830  0.2005 -0.1955  0.0277
 5237W        W20706   0.471   5.950   0.461  0.0331  0.2355 -0.0153
 5238W        W20707  10.713  13.951   0.853  0.2581  0.0081 -0.0247
 5239W        W20708  13.652   1.632   0.872 -0.0520 -0.1978  0.0335
 5240W        W20709  13.411   4.060   4.146  0.1149 -0.0767 -0.3054
 5241W        W20710  11.868  13.748  14.074 -0.0760  0.0182  0.0888
 5242W        W20711  16.292  17.105  14.061  0.0239 -0.0411 -0.0250
 5243W        W20712  12.202   1.213   0.569  0.1614 -0.0500 -0.0671
 5244W        W20713   7.853  13.964   1.790 -0.0859  0.0801  0.0185
 5245W        W20714   8.614   1.645  10.423  0.0323 -0.0682 -0.0581
 5246W        W20715  16.718   2.396   3.753  0.0719 -0.1018 -0.1033
 5247W        W20716   0.060   0.264  12.744 -0.0603  0.2625  0.0317
 5248W        W20717  13.313   3.287   3.814  0.1312 -0.0437  0.0451
 5249W        W20718   4.253  13.591  11.620  0.0998 -0.3535 -0.0581
 5250W        W20719   2.540   3.424   0.574  0.1180  0.1155  0.0271
 5251W        W20720  12.993  16.665   4.967 -0.0664  0.1629  0.1649
 5252W        W20721   2.176   2.308   1.581  0.1736 -0.0741  0.3114
 5253W        W20722   2.835  11.608   1.511  0.1885 -0.0166  0.0982
 5254W        W20723  11.483  11.502  12.962 -0.2273 -0.1606  0.2757
 5255W        W20724   3.064   5.457  12.940 -0.0906 -0.1497  0.2567
 5256W        W20725  10.357   2.832   0.662 -0.0132 -0.1119 -0.1417
 5257W        W20726  14.919  11.042  12.902 -0.5056  0.0639 -0.0159
 5258W        W20727   3.455   4.672   6.413  0.0401  0.1866 -0.2877
 5259W        W20728   7.047   3.284   0.175  0.1218  0.2358 -0.2046
 5260W        W20729  14.131   2.632  15.383 -0.0127  0.1237 -0.0685
 5261W        W20730  11.125  11.328   4.579  0.2140  0.1239  0.0765
 5262W        W20731  17.402   9.283   4.400 -0.0724 -0.1524 -0.3919
 5263W        W20732  15.113   7.254  11.326 -0.2487 -0.2935 -0.1310
 5264W        W20733  14.957  12.316  12.671  0.1692  0.2539 -0.3349
 5265W        W20734   2.045   6.408  12.992 -0.3102  0.0051 -0.2656
 5266W        W20735   9.797  14.322   4.147  0.4642  0.0137 -0.2701
 5267W        W20736   0.889   4.863  16.008 -0.1124 -0.2994 -0.0186
 5268W        W20737  16.419  10.702  13.836  0.1679  0.0842 -0.2261
 5269W        W20738   6.661   9.289   1.287  0.1155  0.0221 -0.1003
 5270W        W20739   7.908   3.470  11.021  0.2059  0.3472  0.1380
 5271W        W20740   3.810  13.029   4.326 -0.1367 -0.0033 -0.0794
 5272W        W20741   5.719   5.050   2.851  0.3052 -0.0119  0.4036
 5273W        W20742  14.194  17.200   6.261 -0.0425  0.1239 -0.1630
 5274W        W20743   1.504   5.835  11.094  0.0674 -0.1451 -0.3013
 5275W        W20744  14.625  15.432   3.332 -0.0435  0.1996  0.0201
 5276W        W20745   1.121   0.043   1.270  0.1753  0.0498 -0.0524
 5277W        W20746   7.152   6.964   3.601  0.1469 -0.2609  0.2738
 5278W        W20747   0.782  10.910  11.344 -0.1896  0.0859 -0.1417
 5279W        W20748   4.220  15.734  13.820 -0.1408  0.3954 -0.1750
 5280W        W20749  13.292   8.440   4.417  0.4119 -0.1390 -0.0108
 5281W        W20750   1.882   3.002  12.160 -0.4919 -0.1524  0.0188
 5282W        W20751   5.670  14.866   4.639  0.2017 -0.0118  0.1870
 5283W        W20752  13.296  10.555  11.025 -0.0517 -0.1020  0.1501
 5284W        W20753  14.037  15.175  14.267 -0.2865 -0.1322  0.1110
 5285W        W20754   0.130  16.426   1.278 -0.2154 -0.0496  0.0514
 5286W        W20755   9.854   1.126  11.131  0.1085  0.1695 -0.2086
 5287W        W20756   0.834  17.044   0.839  0.1997  0.0940 -0.1021
 5288W        W20757   7.380  12.280  15.078  0.0592  0.1763 -0.0178
 5289W        W20758   7.633  14.305  13.032 -0.0529 -0.0841 -0.2040
 5290W        W20759   8.390  17.904   5.259  0.2628  0.1662 -0.2289
 5291W        W20760   2.499  16.550   2.028  0.0421  0.2025 -0.1478
 5292W        W20761  11.488  13.476   3.001 -0.0547  0.1256 -0.0230
 5293W        W20762  11.625  17.784   5.773 -0.2327 -0.0976 -0.1327
 5294W        W20763  18.172  17.353   2.269 -0.1422  0.1404  0.1413
 5295W        W20764   2.784  13.235  13.102 -0.0732 -0.1387  0.2013
 5296W        W20765  14.531  10.688   4.216 -0.1068  0.1974  0.0067
 5297W        W20766   3.896   4.443  14.017  0.1046 -0.1106 -0.1791
 5298W        W20767   1.784   5.425  11.248  0.2559 -0.2726 -0.0021
 5299W        W20768   3.365  17.313   5.336 -0.1450  0.1226  0.1701
 5300W        W20769   8.981  14.991  14.352  0.1745  0.0180  0.0182
 5301W        W20770   0.340  10.559   0.929  0.1172 -0.1400 -0.4907
 5302W        W20771   7.867   9.703  12.180 -0.1893 -0.0413 -0.1311
 5303W        W20772  10.869   6.041   1.869  0.0059 -0.0657  0.1175
 5304W        W20773  10.949   2.313   2.218  0.0681 -0.2157  0.2682
 5305W        W20774   6.417  15.779  14.541  0.0345 -0.1326 -0.2110
 5306W        W20775   9.882   2.966   5.368 -0.3367 -0.0109 -0.1700
 5307W        W20776   6.311   0.773  15.448 -0.1839 -0.0620  0.1822
 5308W        W20777   8.789  18.108  13.902 -0.1087  0.0378 -0.0961
 5309W        W20778  15.710  13.962  15.862 -0.3667  0.2127 -0.3404
 5310W        W20779   2.764  12.444   1.668 -0.3377 -0.1077 -0.1110
 5311W        W20780  16.170  16.777  15.390  0.0336  0.2239  0.2392
 5312W        W20781  14.741   9.713  11.444 -0.0049 -0.2012  0.2545
 5313W        W20782   5.391   7.630   3.127  0.1613 -0.0304  0.0071
 5314W        W20783  14.714   7.544  14.819 -0.0080  0.0695 -0.1096
 5315W        W20784  16.800   3.880  14.478  0.1149 -0.0124 -0.0042
 5316W        W20785  17.259   0.458  15.290 -0.1386 -0.1466 -0.1606
 5317W        W20786   3.882  13.016   3.436  0.0596  0.1723 -0.0583
 5318W        W20787  16.862  11.217  15.922  0.2144 -0.1458 -0.1507
 5319W        W20788  16.786  11.220   4.361 -0.0715 -0.0756  0.1278
 5320W        W20789  11.733   2.716  11.095  0.0098  0.2924  0.1672
 5321W        W20790   0.582   8.891   2.657  0.0706  0.1607 -0.1363
 5322W        W20791  14.881  13.306   2.621  0.0702 -0.1925  0.3052
 5323W        W20792  16.422  13.822  13.434  0.1432  0.0957  0.1819
 5324W        W20793  10.199  16.501   6.299 -0.0760 -0.2150  0.2733
 5325W        W20794  15.953   9.231   3.016  0.2635 -0.2891  0.0245
 5326W        W20795   4.005  14.241  14.537  0.1263 -0.0483  0.1123
 5327W        W20796   4.548   6.927   0.820  0.0807 -0.0856 -0.2156
 5328W        W20797   9.058  13.070  12.882 -0.0911 -0.0748 -0.0314
 5329W        W20798  12.375  15.239  11.803 -0.0923  0.1955  0.1824
 5330W        W20799   5.816   8.987   2.785  0.1073 -0.0704  0.2064
 5331W        W20800  11.082   7.826   4.998 -0.1705  0.0547 -0.0953
 5332W        W20801  12.200   9.284   0.322 -0.1747  0.2399  0.1671
 5333W        W20802  13.875   7.425  12.255 -0.0448 -0.2892 -0.1456
 5334W        W20803  17.753   3.277  14.980 -0.0708 -0.0856  0.0020
 5335W        W20804   4.122  12.132  15.270 -0.1262 -0.1430  0.1099
 5336W        W20805   5.689  17.904  15.787  0.2976 -0.0773  0.0856
 5337W        W20806  14.731  15.577   5.468 -0.1324 -0.2075  0.0972
 5338W        W20807   8.470   5.408   2.264  0.1167  0.2324 -0.0340
 5339W        W20808   1.112  16.396  11.674  0.1523  0.2296  0.0427
 5340W        W20809  18.173  15.124   3.326 -0.1591 -0.0075  0.2287
 5341W        W20810   5.241  16.270   3.355  0.1597 -0.1194 -0.1889
 5342W        W20811   0.881  11.510   1.566 -0.2002  0.0952  0.2206
 5343W        W20812  10.717   6.066  12.464  0.0275 -0.0489  0.1003
 5344W        W20813  10.518   4.614  12.932 -0.0222  0.3010  0.0481
 5345W        W20814  13.189   9.223   2.207 -0.4192 -0.0776 -0.1249
 5346W        W20815  17.125  10.930   5.234 -0.1262 -0.0389 -0.0424
 5347W        W20816   7.143  16.345   0.449 -0.2741 -0.0950 -0.0701
 5348W        W20817  16.265  12.704  12.371 -0.2357  0.0966  0.1505
 5349W        W20818  13.540   8.973   3.556 -0.2088  0.3207 -0.1109
 5350W        W20819   0.987  14.635   1.202  0.0297 -0.0174 -0.0714
 5351W        W20820   1.574   3.761  12.612  0.2332  0.0955  0.2162
 5352W        W20821   6.716   7.782   3.498  0.0799 -0.0132  0.3177
 5353W        W20822   2.263  11.269  14.587 -0.1160  0.2358 -0.0941
 5354W        W20823   0.245   6.525   5.283  0.1585  0.1210  0.0557
 5355W        W20824  10.080  13.291  13.285  0.1395  0.3416  0.0518
 5356W        W20825   9.422   0.076   0.452 -0.4172  0.0082  0.0330
 5357W        W20826  14.971   3.320  16.054 -0.1900 -0.1971 -0.1193
 5358W        W20827  15.206   2.667   2.576  0.1857 -0.2830  0.0074
 5359W        W20828  13.288  17.902   2.716 -0.1910 -0.1752  0.0355
 5360W        W20829   5.590  15.655   1.738 -0.2155 -0.2290 -0.2275
 5361W        W20830   4.915  16.669  14.003 -0.1475  0.1444  0.0648
 5362W        W20831   6.092   6.593  10.475 -0.1618 -0.1464  0.2220
 5363W        W20832   7.065   6.937  15.971 -0.0717  0.0098  0.2269
 5364W        W20833   8.973  11.060   1.127 -0.0197 -0.1681  0.0494
 5365W        W20834   5.233  10.847   2.813  0.1724 -0.1045 -0.1884
 5366W        W20835   9.392  13.612   5.208  0.0570 -0.1120 -0.1358
 5367W        W20836  13.394  17.630  12.664 -0.0720 -0.0526  0.3814
 5368W        W20837   7.302  15.459  11.535  0.3485 -0.0240 -0.0662
 5369W        W20838   9.247  18.284  11.418  0.0822 -0.0951 -0.1633
 5370W        W20839  17.893   6.139   4.670 -0.0447  0.1762  0.2138
 5371W        W20840  10.891   0.114  10.430  0.1027 -0.0467 -0.0500
 5372W        W20841   2.447  17.587   4.943  0.0713 -0.1236 -0.2078
 5373W        W20842   7.365  15.013  13.798 -0.1503 -0.1095  0.1570
 5374W        W20843   5.664  12.881   0.341  0.0844 -0.0330  0.0966
 5375W        W20844   2.451  15.759   4.720 -0.1211  0.1555 -0.2044
 5376W        W20845  11.666   2.071  13.701  0.1766  0.0669 -0.1776
 5377W        W20846  11.151  12.826   0.656  0.0141 -0.3901 -0.0623
 5378W        W20847  11.828   8.455  14.863  0.2133  0.0877 -0.2150
 5379W        W20848  11.488  16.758   5.454  0.1207  0.2648  0.2303
 5380W        W20849  13.455  14.852   2.382  0.1032 -0.1970  0.0164
 5381W        W20850   4.553  13.877   5.189 -0.2562 -0.0059  0.0617
 5382W        W20851   8.351   7.752  11.448  0.0088 -0.1362 -0.2631
 5383W        W20852  18.060  10.428  11.626  0.0909  0.0725 -0.0385
 5384W        W20853   7.568  15.104   0.925 -0.1182 -0.0348  0.1050
 5385W        W20854  12.096  11.218   3.824 -0.0773  0.1067 -0.1105
 5386W        W20855   4.870   5.490  12.825 -0.0590 -0.0384 -0.0938
 5387W        W20856  17.341  14.586  10.701  0.0897 -0.0195 -0.0158
 5388W        W20857  16.358   4.150   3.231 -0.1577  0.1770  0.0432
 5389W        W20858  14.558   2.096   0.115  0.0724 -0.3215 -0.4012
 5390W        W20859  15.272  10.692   3.602 -0.1211 -0.0418  0.1529
 5391W        W20860   4.611   9.354  14.784 -0.0228  0.0563 -0.0317
 5392W        W20861   7.077  17.132  11.432 -0.1128  0.0642 -0.0003
 5393W        W20862   6.494   7.505   0.922 -0.0518  0.1705  0.0140
 5394W        W20863  11.353   0.186  13.074 -0.0009  0.3661  0.1396
 5395W        W20864   7.910   7.579   2.674 -0.0572 -0.0563  0.2293
 5396W        W20865  16.327  13.384   0.042 -0.2491 -0.0505  0.1479
 5397W        W20866  10.950  15.171  13.805 -0.0959  0.0309 -0.0390
 5398W        W20867   6.644   8.717   4.623  0.0936  0.2679 -0.0035
 5399W        W20868  11.837  13.078  11.576 -0.0185  0.3206 -0.1296
 5400W        W20869   5.126  14.445  14.339  0.1779 -0.0868 -0.1170
 5401W        W20870  12.868  17.292  11.481  0.1332 -0.2718  0.3007
 5402W        W20871   4.177  15.531   3.316  0.0736 -0.1269 -0.0159
 5403W        W20872   7.287  12.081   4.298  0.1330 -0.2952  0.2043
 5404W        W20873   9.294  11.485  14.578 -0.0671 -0.0851  0.0116
 5405W        W20874  14.543   9.821  11.012 -0.2059  0.0500  0.1108
 5406W        W20875  17.337   8.999  14.490 -0.2054 -0.0444  0.0299
 5407W        W20876   0.463   5.356   2.622 -0.1154 -0.2412  0.0787
 5408W        W20877  14.994  14.027   3.715  0.2518  0.0124 -0.4250
 5409W        W20878   6.454   4.319   4.881 -0.1593 -0.2546 -0.2022
 5410W        W20879   1.336  17.539   3.996  0.0057 -0.1988 -0.0035
 5411W        W20880   7.180  16.519  12.694  0.0167 -0.0614 -0.0758
 5412W        W20881  11.584  15.430   5.697  0.0793 -0.0163 -0.1138
 5413W        W20882  17.988   8.367   1.503  0.1094 -0.2198  0.0914
 5414W        W20883   8.870   5.977   4.098  0.1679 -0.0606 -0.0389
 5415W        W20884   7.740   6.510  13.822  0.2059  0.0865 -0.1484
 5416W        W20885   4.012   3.861   5.214 -0.2726  0.1534  0.0980
 5417W        W20886  10.175  10.701   0.726  0.1997 -0.1984 -0.1578
 5418W        W20887   9.475  11.318   4.858 -0.0813  0.0560  0.0653
 5419W        W20888   2.162   7.122   3.954 -0.2922  0.0161 -0.0657
 5420W        W20889   3.934   0.315   0.820 -0.2246 -0.2132 -0.0952
 5421W        W20890  16.093   9.578  15.887  0.0148 -0.3563 -0.0601
 5422W        W20891   7.292   6.606  14.663 -0.0665  0.0056 -0.1965
 5423W        W20892   8.222  15.694  12.080  0.0631  0.2093  0.0212
 5424W        W20893   8.031  17.657  12.869  0.1254  0.1304  0.3047
 5425W        W20894  11.910   8.601  14.061 -0.0603  0.0411 -0.0658
 5426W        W20895   4.387  12.695  15.630  0.0751 -0.0824  0.1341
 5427W        W20896  12.510  15.407   3.452  0.1290  0.2319 -0.1956
 5428W        W20897   7.504   8.654   0.771 -0.2269 -0.0517 -0.0764
 5429W        W20898   4.992   8.024   1.378  0.0257  0.6126 -0.4929
 5430W        W20899  11.530   0.159   2.199 -0.1565 -0.1129 -0.0938
 5431W        W20900   1.445  11.648  10.670 -0.1234 -0.1233 -0.0592
 5432W        W20901  14.015   2.797  13.503  0.0838  0.3187 -0.0026
 5433W        W20902  16.122   6.370   5.759  0.0948 -0.1184 -0.2180
 5434W        W20903   5.577  12.906   2.852 -0.3382 -0.1209  0.1679
 5435W        W20904   9.856   1.616  14.208  0.1042  0.0822  0.2461
 5436W        W20905  17.598   4.166  16.057 -0.0511 -0.1269 -0.0673
 5437W        W20906   0.867   8.812   5.321 -0.1770 -0.1355 -0.0898
 5438W        W20907  10.892   8.672   3.779 -0.0749 -0.1627 -0.1957
 5439W        W20908   2.631   4.098  10.811  0.1204 -0.1863 -0.0902
 5440W        W20909  12.692   0.815   3.006 -0.1243 -0.4712  0.2224
 5441W        W20910  17.012  15.091   0.201 -0.0636 -0.2175 -0.1431
 5442W        W20911  10.861  14.963   1.100 -0.2393 -0.1612 -0.0387
 5443W        W20912  16.061  17.109  14.627  0.2063 -0.2425 -0.1359
 5444W        W20913  15.666   6.588   2.592 -0.0785 -0.1233 -0.1208
 5445W        W20914  16.291  11.843  14.682 -0.1412 -0.0306 -0.0713
 5446W        W20915   2.544   3.617  10.969  0.0552 -0.0520 -0.0824
 5447W        W20916   8.345   2.517   1.218  0.0804 -0.3526 -0.0096
 5448W        W20917   5.791  18.273  12.152 -0.4014  0.0015 -0.2118
 5449W        W20918  11.069   3.358  13.396  0.1194  0.2296 -0.0089
 5450W        W20919  15.676   6.958   0.954  0.3398  0.0534 -0.2205
 5451W        W20920  13.818  15.226  11.887 -0.0266 -0.0178  0.0384
 5452W        W20921  10.024   2.129   2.165 -0.3932 -0.0770 -0.0136
 5453W        W20922  17.176  12.780   3.341 -0.1226  0.2157  0.0606
 5454W        W20923  15.260   9.520   0.795  0.1190 -0.2353 -0.0625
 5455W        W20924   9.319   7.829   2.077 -0.1707 -0.1854  0.1199
 5456W        W20925   0.462  17.676   0.545 -0.0765 -0.1105  0.1572
 5457W        W20926  14.397   6.143   1.046 -0.1244 -0.0357  0.0207
 5458W        W20927  13.144   1.774  14.167 -0.2753  0.3120 -0.2255
 5459W        W20928  13.976   0.529   2.361 -0.2114  0.4303  0.3344
 5460W        W20929  15.032   4.717  11.731 -0.2210  0.1566 -0.0728
 5461W        W20930   5.178   8.636   4.501  0.1720  0.1235 -0.0949
 5462W        W20931  15.004  13.568   4.859  0.0464 -0.0335 -0.1840
 5463W        W20932   1.353   8.725   3.164  0.2786  0.1384 -0.0457
 5464W        W20933  17.896   0.575  13.519  0.3670 -0.3424  0.1347
 5465W        W20934   3.537  14.049   2.166  0.1159  0.1839 -0.0897
 5466W        W20935  15.957   7.117  11.776 -0.1470  0.0901  0.3107
 5467W        W20936   2.242   8.574  11.338 -0.0310  0.0994  0.0468
 5468W        W20937  12.507   6.301   0.357 -0.1038  0.0537  0.1202
 5469W        W20938  13.526  11.911  14.192 -0.2858  0.2229 -0.0401
 5470W        W20939   8.852  18.129   4.604  0.0601  0.0945  0.1813
 5471W        W20940   2.723  10.757   1.852 -0.0091 -0.0538  0.0270
 5472W        W20941   4.887  11.993   0.926 -0.3313 -0.0655  0.0590
 5473W        W20942   7.660  12.874   3.326  0.2404  0.3475 -0.0026
 5474W        W20943  13.652   2.658  13.059  0.1644  0.1807 -0.0305
 5475W        W20944   1.348   0.277  11.525  0.2339  0.2254 -0.2120
 5476W        W20945   1.209  16.604   3.786 -0.3375  0.1956 -0.0633
 5477W        W20946  10.727  11.043  12.461 -0.5578 -0.1434  0.2072
 5478W        W20947   5.322  18.260   0.766 -0.0729 -0.0773 -0.0878
 5479W        W20948  10.035   8.832   1.319 -0.0659 -0.0298  0.1368
 5480W        W20949   3.490  17.647  12.380  0.4224 -0.2357  0.0846
 5481W        W20950   9.698   0.883   0.646 -0.0027 -0.1365  0.1208
 5482W        W20951  17.280   2.535  13.777 -0.2950  0.1123 -0.1473
 5483W        W20952   5.891   7.199  16.053  0.0425  0.0194 -0.0249
 5484W        W20953   3.012   5.894  14.796 -0.3130  0.1038 -0.1683
 5485W        W20954   9.333  16.588  15.923  0.0715  0.0469 -0.0686
 5486W        W20955  10.374   4.358   5.944 -0.0812  0.1958 -0.0512
 5487W        W20956  14.197  14.021   0.255 -0.1518  0.0290  0.1080
 5488W        W20957   7.798  10.352  13.208 -0.1343 -0.1123  0.0163
 5489W        W20958   8.571  14.324  12.950 -0.0082  0.2808  0.1851
 5490W        W20959   5.565  14.347  11.768  0.2234 -0.0086 -0.0816
 5491W        W20960   3.301   3.230   5.389 -0.2307 -0.1113 -0.1688
 5492W        W20961   8.315   1.674  14.215  0.1340 -0.1627  0.2741
 5493W        W20962  10.256   7.807   1.849 -0.0357 -0.0111  0.0305
 5494W        W20963  15.833   4.196   0.285  0.0934 -0.1677 -0.1281
 5495W        W20964   2.580   4.769   3.971 -0.0757 -0.1122 -0.0655
 5496W        W20965  13.237  12.521   0.603  0.2039  0.0783  0.2398
 5497W        W20966  14.533  10.157   1.233 -0.2421  0.1116  0.2903
 5498W        W20967  15.999   0.190   0.830  0.4405  0.0334  0.0465
 5499W        W20968  16.458   5.569  14.892  0.0240 -0.1701  0.2320
 5500W        W20969  11.393   0.043  13.640  0.0310 -0.0881  0.2205
 5501W        W20970  13.724   2.426   0.973  0.1136  0.0251 -0.4258
 5502W        W20971  10.478   0.771   5.834  0.1759 -0.1005  0.0215
 5503W        W20972   0.322   7.703   5.301 -0.0537 -0.0937 -0.0420
 5504W        W20973   8.260  11.674  13.397 -0.2098 -0.0913 -0.0727
 5505W        W20974  17.160  14.014  13.554  0.3251 -0.0181  0.2724
 5506W        W20975  17.724  10.571  12.410  0.1168 -0.2319  0.2416
 5507W        W20976   6.300   3.919  15.451 -0.2057  0.0949  0.2096
 5508W        W20977  14.710   7.090  14.510 -0.1000  0.3123  0.0468
 5509W        W20978  16.345  16.249  14.229 -0.0623 -0.0101  0.0118
 5510W        W20979  10.795  10.508   0.602 -0.0618  0.2510 -0.0872
 5511W        W20980  10.355  11.544   1.840  0.2941  0.0797 -0.0376
 5512W        W20981  14.928   2.368   2.285 -0.0509 -0.2826  0.2045
 5513W        W20982   5.996  11.337   5.373 -0.0462 -0.4211  0.0156
 5514W        W20983   0.865  10.475  12.219 -0.1373  0.3117  0.0175
 5515W        W20984  13.831  10.402  16.062 -0.0637  0.0012 -0.2152
 5516W        W20985  12.527   2.362   1.200 -0.2734 -0.1448 -0.0282
 5517W        W20986  10.307   1.499   4.209  0.1270  0.2960 -0.3302
 5518W        W20987   4.475  10.275   0.866  0.0709  0.0151  0.1246
 5519W        W20988   3.398  14.273  15.823  0.2556  0.2043 -0.0423
 5520W        W20989  15.284  17.615   3.812 -0.2306  0.0860  0.0633
 5521W        W20990   5.539   7.597   2.377  0.0683 -0.0820  0.0781
 5522W        W20991   6.727   6.593   0.105  0.1116  0.1769  0.1390
 5523W        W20992  17.688  16.642   2.306 -0.1792  0.2444  0.0472
 5524W        W20993  10.878   5.509   3.201 -0.0877  0.0747 -0.2276
 5525W        W20994   8.124   8.823   0.293  0.1167  0.2371  0.1610
 5526W        W20995   5.496  14.969  13.055  0.2255  0.0135 -0.2254
 5527W        W20996  18.035   3.394  11.309 -0.1013 -0.0314  0.1825
 5528W        W20997  10.314  11.195   0.919 -0.2238 -0.0837 -0.0111
 5529W        W20998  13.230  11.515   5.937  0.1264  0.2766  0.0535
 5530W        W20999   7.798  13.721  11.931  0.1657  0.1193 -0.0123
 5531W        W21000  14.725   9.197   1.617 -0.0043 -0.0941 -0.0970
 5532W        W21001   3.420  11.913  12.133 -0.4157  0.0870 -0.0476
 5533W        W21002  17.987  12.925   1.376  0.1894 -0.2681 -0.0784
 5534W        W21003  11.433   8.286   4.883  0.1197 -0.2538  0.1453
 5535W        W21004  13.240   9.845  11.523  0.0789 -0.1172  0.2038
 5536W        W21005   0.032   5.256  15.871  0.2565 -0.0169  0.0624
 5537W        W21006  10.097   0.848   3.781  0.2425 -0.0953 -0.0614
 5538W        W21007  17.767  10.050  13.809  0.0993  0.0953  0.2017
 5539W        W21008   9.624   6.917   3.296 -0.1936  0.0959  0.0358
 5540W        W21009   3.161  13.293   1.190  0.0115  0.0604 -0.1800
 5541W        W21010   1.774   7.739  12.163 -0.1735 -0.0669  0.0378
 5542W        W21011   5.326   3.628   0.051 -0.2246  0.3197  0.1891
 5543W        W21012  14.511  17.118  12.493  0.0879  0.2296 -0.1829
 5544W        W21013   0.862   2.502   1.607  0.1707  0.1536  0.0578
 5545W        W21014   0.161   6.405  13.737 -0.0462  0.1650  0.1919
 5546W        W21015   0.141  11.887   2.371  0.1218 -0.0243  0.0111
 5547W        W21016   4.173   8.349   3.369 -0.1403 -0.1931  0.1690
 5548W        W21017   9.648   0.316  11.126  0.1390  0.0614 -0.1320
 5549W        W21018   4.146   7.605  11.808 -0.1092  0.0456  0.2968
 5550W        W21019   3.640  15.013   4.263  0.0429 -0.2657 -0.1938
 5551W        W21020  17.880  16.291   0.193  0.0377  0.1115 -0.0230
 5552W        W21021  13.749  16.401  11.790  0.2183  0.4325 -0.0651
 5553W        W21022   2.967   4.610  14.811  0.2171 -0.0444  0.0504
 5554W        W21023   4.908  17.742  15.585 -0.1334 -0.4935  0.0545
 5555W        W21024  16.111  15.765   2.874  0.2759 -0.2962  0.1958
 5556W        W21025   8.242   4.421  10.054  0.0416  0.1626 -0.0682
 5557W        W21026   7.751  11.651  10.944 -0.0212 -0.0526 -0.3172
 5558W        W21027   7.669   4.513  13.146  0.1797  0.0125 -0.1501
 5559W        W21028  16.266   9.366   1.934  0.0219 -0.1050  0.4772
 5560W        W21029  15.682  18.179  12.851 -0.1107  0.0784  0.1382
 5561W        W21030  10.720  11.705  14.747 -0.0273 -0.2513  0.0724
 5562W        W21031   2.205  13.059  10.446 -0.2192  0.3282  0.1958
 5563W        W21032   7.421  12.754   5.637 -0.0734  0.3530  0.1328
 5564W        W21033   1.263   5.474   1.417 -0.1449  0.2010  0.1867
 5565W        W21034  11.275   0.906   0.092 -0.2053 -0.1643 -0.1835
 5566W        W21035   6.454   2.488  11.617 -0.0156 -0.1942  0.0926
 5567W        W21036   6.843   8.410   4.948 -0.0149  0.2704 -0.0814
 5568W        W21037  15.722  12.583   3.457  0.0322  0.2186  0.0171
 5569W        W21038   4.713  14.327   3.486  0.1249 -0.1453  0.1138
 5570W        W21039   1.537  14.430   4.678  0.1016 -0.3057 -0.1025
 5571W        W21040   5.625   5.014  12.504 -0.1781  0.0101  0.0145
 5572W        W21041   8.302  14.654   1.016  0.1889  0.0469 -0.0363
 5573W        W21042   4.758  17.836  14.232  0.0561  0.1894 -0.1683
 5574W        W21043   7.576   8.571   4.715  0.1676 -0.0418  0.0119
 5575W        W21044  17.713  11.261  15.457 -0.0570 -0.2294 -0.1470
 5576W        W21045   7.035   8.775   1.728 -0.1366 -0.1237  0.1469
 5577W        W21046   2.197   0.604  12.270 -0.0720  0.1636 -0.0251
 5578W        W21047   8.139  17.076  13.033 -0.0950 -0.1333  0.1170
 5579W        W21048  16.176   5.102  15.697 -0.0287  0.0881  0.3922
 5580W        W21049  11.541  17.898  11.627 -0.1818  0.1041 -0.1082
 5581W        W21050   1.694  15.072   2.874 -0.3413  0.0259  0.0214
 5582W        W21051   7.837   8.156  12.549 -0.1061  0.2122 -0.2163
 5583W        W21052   3.066   2.403  11.731 -0.2299  0.8438  0.2627
 5584W        W21053  17.141   8.497   1.172 -0.3925 -0.0686 -0.0179
 5585W        W21054   8.138   8.839  13.637 -0.0513 -0.2245  0.0580
 5586W        W21055   9.550   2.344  15.306  0.1083  0.0776  0.0858
 5587W        W21056  18.059  10.684  12.081  0.1803  0.0046 -0.1057
 5588W        W21057  14.813  17.903   1.076 -0.1059 -0.2219  0.0308
 5589W        W21058   1.481  10.207  13.138 -0.0653  0.1579 -0.2685
 5590W        W21059  11.074  15.196   1.528 -0.1134  0.0272  0.1389
 5591W        W21060  16.823  10.368   1.412 -0.1350  0.2418 -0.1335
 5592W        W21061   6.438  12.372  11.251 -0.1483 -0.1123  0.0198
 5593W        W21062   1.772  13.828  12.251  0.0613 -0.1679 -0.1409
 5594W        W21063  10.470   4.212  15.780  0.3456 -0.0846 -0.2206
 5595W        W21064   9.447   9.668  15.811  0.0189  0.2508  0.0951
 5596W        W21065   8.316   2.822  15.170  0.1228 -0.0320 -0.1007
 5597W        W21066   2.424  18.236   4.360 -0.1284 -0.0520  0.1815
 5598W        W21067  11.020   4.970   5.604 -0.0843 -0.1110  0.0761
 5599W        W21068  10.590  16.922   3.243 -0.1009  0.1779  0.3042
 5600W        W21069  12.975   0.953   4.777  0.0140  0.0746 -0.3516
 5601W        W21070   6.836   8.253  14.895  0.2663 -0.1140  0.2861
 5602W        W21071   1.559  15.364   4.068  0.2105  0.0753 -0.2111
 5603W        W21072   3.984   6.474  11.080 -0.1585 -0.1306  0.0902
 5604W        W21073   6.923   0.449  14.336 -0.0358 -0.3226 -0.1251
 5605W        W21074   3.972  14.078  15.745 -0.3855 -0.0505 -0.0106
 5606W        W21075   0.807   4.888  13.835 -0.3380  0.2896  0.0663
 5607W        W21076   9.412  11.292   1.766  0.1127 -0.0526  0.0627
 5608W        W21077  13.757  13.301   4.711 -0.1241  0.2391 -0.0287
 5609W        W21078  12.259   7.175   0.375 -0.1560 -0.1962  0.0066
 5610W        W21079   2.446  11.398   4.815 -0.4525 -0.0431  0.1826
 5611W        W21080  16.023   0.623   1.083 -0.0905 -0.2076 -0.3216
 5612W        W21081   4.569  14.785  14.936  0.2282  0.0085 -0.0224
 5613W        W21082   7.193   2.607   2.210 -0.0510 -0.1695  0.1402
 5614W        W21083   1.053   8.153   3.685 -0.0702  0.2262 -0.1927
 5615W        W21084   8.499  14.906  10.777 -0.1158  0.1422  0.1254
 5616W        W21085   8.708  15.416  11.981  0.1873 -0.2265  0.1937
 5617W        W21086  15.096  11.456   4.220  0.0857  0.0170  0.1913
 5618W        W21087   0.162   0.980  14.711  0.1548 -0.0071 -0.2049
 5619W        W21088  10.863  12.490   0.443 -0.0771  0.1797  0.2522
 5620W        W21089  15.305   2.011  14.450 -0.0290  0.0842  0.1590
 5621W        W21090   9.238   5.760   5.034  0.0948 -0.0608  0.2893
 5622W        W21091   9.844   8.187   9.844 -0.1804  0.1013 -0.1017
 5623W        W21092  11.953   6.057  13.009  0.4022 -0.0620 -0.4010
 5624W        W21093  14.819  13.446   3.118  0.4289 -0.2224  0.1621
 5625W        W21094   7.815  11.524   2.033  0.2189 -0.0899 -0.0742
 5626W        W21095   5.532  16.944  12.023 -0.2582  0.1889 -0.2402
 5627W        W21096  14.052   8.702   3.640 -0.0605 -0.1344  0.1616
 5628W        W21097   7.057  13.482  11.192  0.2121 -0.2033  0.1401
 5629W        W21098  11.113   9.938  14.401  0.1079  0.3633  0.1170
 5630W        W21099   2.546   7.878   1.165  0.4168  0.1118  0.1282
 5631W        W21100   6.478  17.321   3.857 -0.5348 -0.0178 -0.0642
 5632W        W21101   2.749   4.202   5.354 -0.0950  0.2110  0.0221
 5633W        W21102  15.053   3.062   3.183  0.0480  0.3307 -0.1391
 5634W        W21103   7.419   4.778  12.383  0.2716 -0.0901  0.0440
 5635W        W21104  12.922   6.550   4.926 -0.4154  0.2095 -0.3024
 5636W        W21105   7.260  17.024  12.410 -0.2192 -0.0746 -0.0010
 5637W        W21106  12.503   5.658   4.609 -0.1962 -0.1480 -0.3236
 5638W        W21107  12.008   0.044  12.052 -0.1986  0.3727  0.0487
 5639W        W21108   8.157  12.133  12.300 -0.2534 -0.0145  0.0606
 5640W        W21109  12.694   9.647  14.871 -0.0318  0.0904 -0.1672
 5641W        W21110  12.092   3.463  11.799  0.1229  0.1260  0.2385
 5642W        W21111  16.426  13.036  11.905  0.2582  0.1464 -0.0885
 5643W        W21112   6.646  17.231  15.252  0.0188 -0.2482 -0.1629
 5644W        W21113   8.984  12.959  11.393 -0.1088 -0.0998  0.2787
 5645W        W21114  17.301  14.691   3.825  0.2637  0.1970  0.1306
 5646W        W21115   5.953  15.163  15.273  0.0366 -0.2127 -0.0506
 5647W        W21116  10.826  16.679   0.295 -0.0805 -0.2695 -0.1114
 5648W        W21117  18.169  11.402   0.453 -0.1178 -0.2162 -0.4223
 5649W        W21118   6.540   2.077   0.616 -0.2683  0.1992 -0.1907
 5650W        W21119  14.317   5.621  14.149 -0.2700 -0.0432  0.1475
 5651W        W21120   3.464  16.723  13.136  0.2956  0.2624 -0.4106
 5652W        W21121  10.484   1.081   1.898  0.1162 -0.1138 -0.1908
 5653W        W21122  13.314   7.104  14.197  0.1474 -0.0476 -0.0474
 5654W        W21123  10.222  14.406  15.538 -0.0167  0.2678  0.1135
 5655W        W21124   4.166   8.842   3.366  0.2005 -0.0023  0.0774
 5656W        W21125   0.579   3.069  14.183  0.1612 -0.2243 -0.2138
 5657W        W21126  15.601   1.235   4.436 -0.1770 -0.1426  0.4141
 5658W        W21127   0.625   0.053  15.371  0.3565  0.3010 -0.1160
 5659W        W21128  11.550   7.854   5.097 -0.1157  0.1706 -0.1974
 5660W        W21129   0.526   1.840   5.201  0.1150  0.1955 -0.1341
 5661W        W21130   4.345  15.835  15.879 -0.1165  0.0207 -0.2234
 5662W        W21131  11.376   9.214  15.631 -0.0693 -0.1903  0.1499
 5663W        W21132   3.079   2.385  15.204  0.2800 -0.3046 -0.0839
 5664W        W21133  18.267  11.892  10.944  0.1564  0.3295 -0.1237
 5665W        W21134  14.708   6.985  13.993  0.0280 -0.0009  0.1679
 5666W        W21135   7.340  11.350  15.093  0.0550 -0.1511 -0.1713
 5667W        W21136   6.480   1.339   2.937  0.1342  0.0699 -0.1635
 5668W        W21137  10.912   7.596  12.929 -0.3456 -0.0081  0.0293
 5669W        W21138  16.874   8.243   0.726 -0.4309 -0.2643 -0.2712
 5670W        W21139  12.724   7.207  11.122 -0.0566 -0.0773  0.0916
 5671W        W21140  10.264   0.639  11.683 -0.0778  0.1015 -0.2717
 5672W        W21141   2.173   9.550   3.974  0.1510  0.1932  0.0042
 5673W        W21142  16.653  15.662   6.192  0.0992  0.1323 -0.2468
 5674W        W21143  13.284   5.027  14.921  0.0284 -0.1400  0.2857
 5675W        W21144   2.128  10.468   0.879 -0.0278  0.0826  0.2939
 5676W        W21145   1.725  16.673   1.133 -0.0308 -0.3127 -0.3623
 5677W        W21146  13.397  14.035  11.238  0.0813 -0.3229 -0.1864
 5678W        W21147   4.169  11.583  13.844 -0.0457  0.1825 -0.1399
 5679W        W21148  13.257   6.913   1.542 -0.0646  0.4656 -0.1705
 5680W        W21149   7.627  17.478  14.556 -0.0902 -0.1788 -0.0480
 5681W        W21150   0.416   2.894   2.623  0.1139  0.0844 -0.1728
 5682W        W21151   6.312   1.630   5.138  0.4157  0.0213  0.1386
 5683W        W21152  16.647  10.076  13.137 -0.0587 -0.0274 -0.2739
 5684W        W21153  11.219   4.650   1.576  0.3465 -0.0348  0.0020
 5685W        W21154   6.697   7.980   0.659 -0.1841  0.1393 -0.0894
 5686W        W21155  16.204   3.155  14.242 -0.1680 -0.0066  0.0632
 5687W        W21156   6.655  14.334   0.066  0.0601  0.3027 -0.1800
 5688W        W21157  10.827   7.487  13.608 -0.0961 -0.0090  0.2614
 5689W        W21158   6.193  12.429   3.440 -0.1026 -0.1510  0.1409
 5690W        W21159  14.312   3.513   1.408 -0.2287  0.1933 -0.1280
 5691W        W21160  17.184  15.082   1.378  0.2266  0.0533  0.1654
 5692W        W21161  10.286   6.683   3.043  0.2004 -0.2001  0.1522
 5693W        W21162   6.460  17.690  14.332  0.2703  0.0832  0.0076
 5694W        W21163   5.023   9.400   2.591  0.0233 -0.1968 -0.0109
 5695W        W21164  11.122   6.532  12.257  0.2221 -0.2775  0.1358
 5696W        W21165   1.641   9.244   1.597 -0.1499  0.1137 -0.4225
 5697W        W21166  16.054  13.690  13.149  0.2902 -0.0021 -0.1296
 5698W        W21167  15.541  16.131  12.112 -0.0567  0.0505 -0.1335
 5699W        W21168  17.083   9.952   1.208 -0.1001 -0.1650 -0.2623
 5700W        W21169  10.720   4.484  14.107  0.0696  0.3415  0.3486
 5701W        W21170  13.539  11.099  13.779  0.0522 -0.1724 -0.0351
 5702W        W21171   7.536  17.628  15.283  0.0200 -0.1258 -0.3390
 5703W        W21172  17.624   7.418  11.131  0.0269 -0.0125 -0.0028
 5704W        W21173  13.317   7.567   6.192  0.0035  0.2338 -0.3066
 5705W        W21174  10.754   6.288  10.270 -0.1452 -0.0236  0.1499
 5706W        W21175  13.207   0.419   4.888 -0.2619 -0.0093 -0.3066
 5707W        W21176   3.731   6.952  13.812 -0.1016 -0.0722  0.1270
 5708W        W21177  12.210  16.642   4.838  0.3375  0.0654 -0.2459
 5709W        W21178  17.301   7.185   0.453 -0.0044  0.1591  0.0126
 5710W        W21179  13.348  16.567  12.031 -0.0660 -0.1299 -0.1024
 5711W        W21180  10.526  15.355   0.939  0.3168  0.3612  0.1235
 5712W        W21181  13.079   0.784   2.402  0.1875  0.1518 -0.1202
 5713W        W21182   2.509  12.699  15.217 -0.3967  0.1023  0.1038
 5714W        W21183  17.390   8.050  12.680 -0.0898  0.1327  0.0647
 5715W        W21184   3.142  13.951   4.426 -0.0584  0.2338  0.1817
 5716W        W21185   5.117   4.493  10.538  0.0124  0.1110 -0.1806
 5717W        W21186   7.837  15.430   1.281  0.2945 -0.0550 -0.2085
 5718W        W21187  16.975   5.448   5.299  0.1495 -0.0244 -0.1276
 5719W        W21188  10.364   6.335  10.610  0.0441  0.0377 -0.2124
 5720W        W21189   0.921   5.167   5.798 -0.1046  0.1130 -0.0026
 5721W        W21190  17.169   3.134  10.544 -0.0918 -0.2428 -0.2250
 5722W        W21191   9.281   0.711  12.095  0.2309 -0.0322  0.3000
 5723W        W21192  15.216  15.841  13.654  0.1863 -0.0298  0.0719
 5724W        W21193   5.219   4.638   3.625 -0.0254 -0.0489  0.0667
 5725W        W21194   4.987  11.918  15.069 -0.0325  0.1451 -0.0353
 5726W        W21195  13.923   0.422  12.495  0.0042 -0.2570 -0.0023
 5727W        W21196  11.799  10.735  15.134  0.1589  0.0241 -0.0860
 5728W        W21197   3.120  17.444  15.122  0.2579  0.0405 -0.2484
 5729W        W21198  16.850  13.147   2.683 -0.1090  0.0029  0.0791
 5730W        W21199  13.574  13.150  14.051  0.1695 -0.3683 -0.0757
 5731W        W21200  11.764  14.910   5.530  0.1478  0.1181 -0.3486
 5732W        W21201  11.285   2.067   1.543 -0.2553 -0.0647  0.3654
 5733W        W21202   4.105  18.080   1.734 -0.1793  0.0026  0.0623
 5734W        W21203   4.775  17.254   3.371 -0.0580  0.0768  0.1482
 5735W        W21204   9.157  10.289  12.818 -0.2579 -0.0624 -0.0954
 5736W        W21205  17.530  16.707   4.457  0.2305  0.0090 -0.0495
 5737W        W21206   3.175  14.277   9.982  0.1317  0.2507 -0.0601
 5738W        W21207  16.234  15.137  15.806 -0.0332 -0.2207 -0.1417
 5739W        W21208   9.952   8.404  14.675 -0.3290  0.1273  0.1599
 5740W        W21209  10.283   3.670  13.084 -0.0043  0.2985  0.1239
 5741W        W21210  12.145  16.901   0.537  0.1542  0.0862 -0.3456
 5742W        W21211  15.095  12.846   2.829  0.0198  0.1365 -0.1197
 5743W        W21212  15.501   4.520   0.457  0.3589 -0.0611 -0.2818
 5744W        W21213  15.025   7.355   1.292 -0.0807 -0.3152 -0.0462
 5745W        W21214  13.844   3.728   1.745  0.0604 -0.2208  0.2592
 5746W        W21215  17.539  10.478   3.436  0.2591 -0.0637 -0.2510
 5747W        W21216  16.189   5.766  10.835  0.1658  0.1804 -0.1587
 5748W        W21217  16.137   6.376  14.739  0.0075  0.0494 -0.0091
 5749W        W21218  17.066  15.387   2.487 -0.0027 -0.0472 -0.1393
 5750W        W21219  14.466   2.540   2.758 -0.1379  0.0519  0.2449
 5751W        W21220   5.612   6.546   3.724  0.1290  0.0268  0.0018
 5752W        W21221  10.699   9.901  13.590  0.1972 -0.0233 -0.1707
 5753W        W21222   8.230   4.125  15.985  0.2635  0.1938 -0.0271
 5754W        W21223  16.735   7.932   2.518 -0.0940 -0.0509  0.0597
 5755W        W21224   4.970  12.221   0.512  0.2150 -0.1368  0.0704
 5756W        W21225  11.139  16.626  11.315 -0.0516  0.0022  0.4131
 5757W        W21226   1.094   0.018  13.454 -0.0754 -0.1464 -0.0833
 5758W        W21227   8.029   9.438   0.988  0.1323  0.0441 -0.0217
 5759W        W21228  11.478   6.543   4.335 -0.1812  0.1961  0.1512
 5760W        W21229   9.294  17.380  10.862  0.2927 -0.1490 -0.0233
 5761W        W21230  14.442   6.310  15.534  0.3278 -0.0531  0.2472
 5762W        W21231   1.910   6.660   3.940 -0.2313  0.0997  0.0467
 5763W        W21232   9.514  10.711   4.047  0.1500  0.1736 -0.0274
 5764W        W21233   7.782   3.531  15.550 -0.1148  0.3649 -0.1508
 5765W        W21234  14.257  15.591   1.307  0.0989  0.1100 -0.1561
 5766W        W21235  17.059  15.145   1.955 -0.1589 -0.0015  0.3308
 5767W        W21236  12.010  15.294  13.650  0.2164 -0.0587  0.0976
 5768W        W21237  15.081   4.909  13.427 -0.0569 -0.1872 -0.2018
 5769W        W21238  13.369   4.757   5.854 -0.0582  0.0931  0.0153
 5770W        W21239   9.776  15.254   2.108 -0.0144  0.2434  0.0954
 5771W        W21240  17.815  13.095   4.168 -0.0016 -0.1462 -0.0741
 5772W        W21241   6.118  12.160  14.715 -0.0197 -0.2480  0.1650
 5773W        W21242  15.494   6.406  13.184  0.0956  0.2713 -0.3093
 5774W        W21243   9.369   0.660   0.302  0.2824 -0.1292  0.3041
 5775W        W21244  11.194  12.616   2.717 -0.0099 -0.1950 -0.0280
 5776W        W21245  11.615  12.461   3.514  0.0927  0.0282  0.2611
 5777W        W21246  18.050  12.090   1.596  0.2234  0.1555 -0.0064
 5778W        W21247  15.808  17.943   4.784 -0.1429 -0.0764 -0.1296
 5779W        W21248  17.977  14.394   0.637  0.2743  0.2206  0.2735
 5780W        W21249  10.548  10.376  10.895  0.0065  0.3001  0.0571
 5781W        W21250  14.398   6.045  14.465  0.2249 -0.0315 -0.2484
 5782W        W21251   6.206   2.437   6.262 -0.0777 -0.0024  0.3279
 5783W        W21252   2.394   9.133   5.086 -0.1313  0.0047  0.0807
 5784W        W21253   9.239   4.224   2.937  0.0566  0.0372 -0.0146
 5785W        W21254   3.931   9.127   4.610  0.2161  0.0919  0.0420
 5786W        W21255  15.644  13.454  12.331  0.1039 -0.2088 -0.1882
 5787W        W21256   1.902   8.911  11.205  0.1452 -0.2333 -0.0790
 5788W        W21257  17.687  17.117   2.005  0.0427 -0.0870  0.1282
 5789W        W21258  13.139  18.144  13.835 -0.0644 -0.1012 -0.0816
 5790W        W21259   8.443  18.200  12.160  0.1179  0.0034  0.1746
 5791W        W21260  12.521   5.010  11.737 -0.0171 -0.1806 -0.1736
 5792W        W21261   1.266   9.084   3.668  0.0829 -0.1911 -0.3429
 5793W        W21262  18.164   0.488   3.373  0.2511  0.0524  0.4178
 5794W        W21263  11.698   2.199  14.936 -0.1491  0.1891  0.1325
 5795W        W21264  10.383   4.244  13.665  0.1403 -0.2947  0.0523
 5796W        W21265   4.861   7.477  13.669 -0.0566  0.0142 -0.2197
 5797W        W21266   1.228  10.507   2.470  0.0720 -0.3063  0.1978
 5798W        W21267  18.045  15.392  15.172 -0.2488  0.0548 -0.0527
 5799W        W21268  17.002   6.657   0.414  0.2914  0.0505  0.2078
 5800W        W21269   6.352  14.499  11.071  0.2492  0.1093  0.2019
 5801W        W21270  13.578  16.921   4.925  0.1396 -0.1832 -0.0238
 5802W        W21271  12.800   0.604  10.104  0.3242  0.1605 -0.4000
 5803W        W21272  18.157   7.070  14.951  0.1009  0.1155  0.1381
 5804W        W21273   9.132  10.125  10.983 -0.1578  0.0149 -0.0891
 5805W        W21274   7.385  15.420  14.501  0.0221 -0.0137 -0.0363
 5806W        W21275  11.421  18.242  15.663 -0.1125  0.1700  0.2075
 5807W        W21276   4.900  14.194   1.046  0.0800 -0.1107  0.0263
 5808W        W21277  13.107  14.837  12.355 -0.0161 -0.1500 -0.0170
 5809W        W21278   4.829   9.576   2.125 -0.0480  0.1689  0.1830
 5810W        W21279   7.483  15.938   0.628  0.1729  0.2356 -0.1928
 5811W        W21280   6.884   4.391  11.417 -0.1262  0.2151 -0.2039
 5812W        W21281  14.296   7.301   2.361  0.0635 -0.1493  0.2582
 5813W        W21282  14.804   5.263  15.222  0.1024  0.0706 -0.0012
 5814W        W21283   4.112   1.538  11.801 -0.1125 -0.0868  0.0962
 5815W        W21284  14.531  17.605  10.317 -0.2141 -0.1535 -0.0539
 5816W        W21285   7.934   4.342   1.538 -0.1275  0.3043  0.4703
 5817W        W21286  12.070  17.737   2.240 -0.1603  0.0197 -0.0396
 5818W        W21287  16.606   6.243  11.801 -0.1097 -0.2305  0.1380
 5819W        W21288  10.440  12.837  15.518  0.0836 -0.0894 -0.1099
 5820W        W21289   5.757  15.677  15.857  0.1111 -0.2372 -0.0103
 5821W        W21290   8.851   6.403   3.266 -0.0246  0.0756 -0.0147
 5822W        W21291  12.818   3.103   1.224 -0.2744  0.0301  0.0534
 5823W        W21292   4.854  17.865   3.148 -0.0372 -0.2817  0.1640
 5824W        W21293   7.388  10.411  15.620  0.0255  0.1249  0.0288
 5825W        W21294   1.139  14.985   3.918 -0.4164  0.1578 -0.0015
 5826W        W21295  12.574   4.881  12.263 -0.1607  0.1589 -0.1339
 5827W        W21296  16.173  16.914  15.860 -0.0243  0.2382 -0.1813
 5828W        W21297  16.311  14.195  12.500  0.0174  0.0273  0.1386
 5829W        W21298   5.751   6.754  15.353 -0.1772  0.2736 -0.0862
 5830W        W21299  16.710   1.196  12.632  0.1641  0.0419 -0.0659
 5831W        W21300   6.762  10.952  13.373 -0.0002  0.1850  0.1657
 5832W        W21301  14.038  10.901   1.817 -0.0908 -0.1298 -0.3816
 5833W        W21302   3.481  11.692   2.281  0.1858 -0.0106  0.1086
 5834W        W21303   8.706   7.289   2.791  0.0265 -0.2865  0.0305
 5835W        W21304  10.418   2.968   2.498 -0.2066 -0.0335  0.0537
 5836W        W21305   3.509   0.937  15.020 -0.0868 -0.0670  0.0080
 5837W        W21306   8.204   5.899   4.770 -0.0051  0.1052  0.0224
 5838W        W21307  10.093   0.343   3.819  0.0534  0.2809 -0.1106
 5839W        W21308  10.191   6.429  12.898 -0.0855 -0.0249 -0.0076
 5840W        W21309   9.773  12.331   2.650 -0.1769 -0.2166  0.0292
 5841W        W21310   4.665  10.068  13.636  0.3358  0.3477  0.2317
 5842W        W21311   2.688  15.473   4.425  0.0102 -0.2518  0.3945
 5843W        W21312  11.504  15.611  15.325  0.0524  0.0159  0.4235
 5844W        W21313   5.602  11.325  13.244 -0.0840 -0.0180 -0.2593
 5845W        W21314   1.696  14.797   1.892 -0.0216 -0.2409 -0.1813
 5846W        W21315   4.434   8.190  10.456 -0.0529 -0.1916 -0.2278
 5847W        W21316  12.068  17.166   5.924  0.0587 -0.1423  0.0619
 5848W        W21317   8.841   2.784   1.917 -0.1682 -0.1885 -0.0610
 5849W        W21318   2.822   7.514   4.755 -0.0417  0.0783 -0.1830
 5850W        W21319   0.266  11.175   3.050  0.1733 -0.1581  0.1189
 5851W        W21320   0.476   7.106  11.490 -0.0778  0.3734  0.1722
 5852W        W21321   6.674   9.350   0.008 -0.0408 -0.2174  0.2153
 5853W        W21322   1.562  16.426  10.828 -0.1735  0.0587 -0.0821
 5854W        W21323   2.055   9.726   0.123 -0.1882  0.0061 -0.0990
 5855W        W21324   1.610   4.903   3.412 -0.1347 -0.0682  0.1318
 5856W        W21325   8.482  14.053   5.370  0.2355 -0.0043 -0.3172
 5857W        W21326   1.176   8.249  14.553  0.0485 -0.2409  0.2997
 5858W        W21327   1.727  15.982   5.446  0.0939 -0.0142  0.0201
 5859W        W21328   0.417  10.933   4.924 -0.2304  0.0760  0.3088
 5860W        W21329   9.308   4.930  15.787 -0.2279 -0.1978  0.0449
 5861W        W21330   9.727   2.191  14.183 -0.0021  0.1450  0.2930
 5862W        W21331   8.822   4.058  12.577 -0.1884  0.1005 -0.0615
 5863W        W21332  13.421  17.876  11.428  0.1936 -0.0802  0.0794
 5864W        W21333  14.380  11.821   1.808 -0.3543  0.2721  0.0750
 5865W        W21334  15.951   5.226   0.537  0.0278 -0.0845  0.0980
 5866W        W21335   0.430   7.588   1.853 -0.5180  0.2343  0.1161
 5867W        W21336   5.414   8.737   3.066 -0.2491  0.1866 -0.2030
 5868W        W21337  10.209  12.585   0.660  0.0205  0.0997 -0.1446
 5869W        W21338   7.635  17.006  15.373  0.0768 -0.0725 -0.0303
 5870W        W21339   4.577  10.203   5.247 -0.2254  0.0100  0.2255
 5871W        W21340  13.315   4.350   4.596 -0.0630  0.1147  0.2762
 5872W        W21341   7.466  10.498   1.949  0.3215  0.0648  0.2255
 5873W        W21342  16.484  17.547   0.021 -0.0510 -0.1362  0.0725
 5874W        W21343   6.569  13.340   4.928  0.0700  0.3204  0.2624
 5875W        W21344   8.338  14.333  12.352  0.2615 -0.1033 -0.2298
 5876W        W21345  11.885   9.694  11.880  0.0465 -0.0089 -0.0393
 5877W        W21346   3.685  12.569   3.721  0.1189 -0.0992  0.1763
 5878W        W21347  13.467  17.733   0.370 -0.4319  0.0042 -0.0726
 5879W        W21348   7.681  14.744  14.574 -0.1853  0.3710 -0.1105
 5880W        W21349   9.933  11.845  13.983 -0.0114  0.0543 -0.1934
 5881W        W21350   6.879   4.210   0.028 -0.1967  0.1979  0.2601
 5882W        W21351   6.868   6.022   3.844  0.1776  0.2052  0.0400
 5883W        W21352   3.281  18.037  14.064  0.1920 -0.3259 -0.1164
 5884W        W21353   9.690   1.702   0.051  0.2404  0.1260  0.0807
 5885W        W21354   2.762   5.022  10.935 -0.1126 -0.2819  0.0335
 5886W        W21355   3.575  10.935  13.485 -0.1211 -0.1354  0.0123
 5887W        W21356  10.131  14.194  15.996  0.0094 -0.2722  0.1622
 5888W        W21357   4.915   4.921  10.678 -0.3225 -0.0039 -0.0423
 5889W        W21358  10.380  10.528  14.151  0.2169 -0.0199 -0.2134
 5890W        W21359   1.903  18.280   1.547  0.2557 -0.0707 -0.2700
 5891W        W21360  12.070   2.123   5.418  0.0908  0.0948 -0.1356
 5892W        W21361   4.242   8.746  14.804 -0.1473 -0.0650 -0.1620
 5893W        W21362   0.960   2.943   5.292  0.3324 -0.2212 -0.2895
 5894W        W21363   1.925   7.800  13.793  0.1335 -0.1376  0.2869
 5895W        W21364   6.020  16.626   1.198 -0.2346 -0.1067 -0.1131
 5896W        W21365  14.636  16.220   0.199 -0.2632 -0.1821  0.2040
 5897W        W21366   6.583   2.015  14.245 -0.2766  0.2964 -0.1637
 5898W        W21367   6.345   1.874   3.135  0.4667 -0.0226  0.1416
 5899W        W21368  12.093  12.649   0.531 -0.1418  0.0995  0.0639
 5900W        W21369   6.952   3.264   4.598 -0.1466 -0.0546 -0.0006
 5901W        W21370  10.931  17.247  12.559 -0.0997  0.1585  0.0253
 5902W        W21371  14.109   2.469   1.284  0.0381 -0.1408  0.0402
 5903W        W21372   6.965   8.915   4.937 -0.0487 -0.2833 -0.1870
 5904W        W21373   5.349  12.261   3.234  0.1496 -0.3741  0.0483
 5905W        W21374  12.458  15.193   3.907 -0.1565  0.1158 -0.3508
 5906W        W21375   2.507  10.222  12.674  0.1789  0.0350 -0.2022
 5907W        W21376   7.143   3.620   2.742 -0.0593 -0.1327 -0.0923
 5908W        W21377   3.495   2.743  15.392  0.1993  0.0498 -0.0581
 5909W        W21378   3.162  11.954  11.602  0.0167  0.2884 -0.1830
 5910W        W21379  18.239  12.650   2.873  0.2195  0.0090 -0.2673
 5911W        W21380  13.829  14.281  16.100 -0.3701  0.0097  0.0208
 5912W        W21381  12.957   5.280  15.274 -0.1191  0.0766 -0.2237
 5913W        W21382   8.049   5.609  15.017 -0.1133 -0.2300 -0.2491
 5914W        W21383   9.228   9.303   1.451 -0.1472 -0.2580 -0.1092
 5915W        W21384   3.228  17.693  15.816  0.0054 -0.0703  0.0054
 5916W        W21385   9.344   5.667  14.781 -0.0391 -0.0479 -0.0902
 5917W        W21386   3.608  14.247  13.707 -0.1146 -0.0544  0.1056
 5918W        W21387  16.620  10.520   4.274 -0.1065  0.3211 -0.0206
 5919W        W21388   6.290  15.434  12.589 -0.1268  0.2180  0.0839
 5920W        W21389  15.167  16.051   2.846  0.2629  0.2524  0.2487
 5921W        W21390  13.116   7.530  12.809  0.0617 -0.0419  0.0095
 5922W        W21391   4.793   6.753  10.676 -0.3048  0.1487  0.0469
 5923W        W21392   9.632   4.933  12.073  0.3341 -0.1913 -0.2420
 5924W        W21393   9.270   0.364   2.202 -0.0657 -0.1420  0.2143
 5925W        W21394  17.702   2.972   0.213  0.2448  0.5269 -0.0746
 5926W        W21395   8.258  10.590  13.297  0.2188 -0.0104  0.1773
 5927W        W21396   2.871  15.858  15.528  0.0820 -0.3358  0.2871
 5928W        W21397  10.252   8.777   5.807 -0.2557  0.0440  0.0657
 5929W        W21398  17.674  15.437  13.142 -0.0405  0.0370  0.1311
 5930W        W21399   6.215   5.494  14.567  0.2665 -0.2014  0.0144
 5931W        W21400   6.444   8.892   2.271 -0.4419  0.1328  0.1524
 5932W        W21401   1.471   2.358  13.930 -0.0541 -0.1517 -0.4659
 5933W        W21402  13.676  13.182   1.216 -0.0159  0.2104 -0.1025
 5934W        W21403  13.652  12.434   3.604  0.1104 -0.0620  0.0677
 5935W        W21404   2.319   6.636   1.275  0.2183  0.1287 -0.1130
 5936W        W21405   8.255   9.554  15.904  0.3163 -0.0479 -0.0266
 5937W        W21406  11.097  10.152  12.708  0.0846 -0.0293 -0.0407
 5938W        W21407  17.113  12.081  10.420 -0.0185 -0.0890  0.0639
 5939W        W21408  11.534  16.211   3.705 -0.4018  0.0189 -0.0923
 5940W        W21409   0.349  10.227   4.696 -0.0176 -0.0007  0.2160
 5941W        W21410   9.565  10.619   0.919  0.0964  0.0230 -0.1931
 5942W        W21411  17.279   2.433   1.396  0.1021  0.1050  0.0226
 5943W        W21412  15.735   3.999  14.476  0.1705 -0.1794 -0.0154
 5944W        W21413  10.622  17.846  14.550  0.0934  0.3259 -0.2910
 5945W        W21414   4.597  16.224  11.463 -0.1757  0.3822 -0.2984
 5946W        W21415   7.745  15.677  10.712 -0.0170  0.3657  0.1060
 5947W        W21416  17.020   3.312  16.108 -0.3008  0.0459  0.0332
 5948W        W21417  10.198  11.556  12.758  0.0544 -0.0870  0.1022
 5949W        W21418   5.113   3.684  15.219 -0.1687 -0.0670 -0.5672
 5950W        W21419   7.088   7.715  12.222  0.0551 -0.0104 -0.1804
 5951W        W21420  14.277   6.983   1.128  0.2147  0.0723 -0.0727
 5952W        W21421   0.988   3.818   4.873  0.2802 -0.1261 -0.0831
 5953W        W21422  12.641  13.219  11.167 -0.3412  0.0657  0.0407
 5954W        W21423   5.641  10.831   3.344  0.0201  0.1607 -0.2171
 5955W        W21424   8.497  12.205   1.540 -0.4403  0.1141  0.1121
 5956W        W21425   8.258   3.342   2.784  0.2550 -0.1237  0.1526
 5957W        W21426   7.475  12.928  14.589 -0.0705  0.0058 -0.0545
 5958W        W21427  12.404   8.549  13.278 -0.5524  0.0954 -0.0341
 5959W        W21428   6.370  13.355   6.415  0.2577 -0.1321  0.0732
 5960W        W21429   0.622  11.579  14.045  0.0124 -0.0077  0.2076
 5961W        W21430   3.275  16.334   4.152  0.3369  0.0477  0.0622
 5962W        W21431   8.409   5.906  12.237  0.0898  0.3542 -0.0743
 5963W        W21432   9.223  17.760  11.414  0.2218 -0.1871 -0.1716
 5964W        W21433   6.301   8.896  10.513  0.0669 -0.1228 -0.2373
 5965W        W21434   0.981  17.001   5.623  0.0570 -0.0642 -0.3700
 5966W        W21435   6.582  15.613   4.021 -0.0124 -0.2687 -0.3656
 5967W        W21436   8.457  17.371  14.986 -0.4426 -0.0820  0.0918
 5968W        W21437   6.960   1.392   3.832 -0.0858  0.3227 -0.3297
 5969W        W21438  17.212  14.387  10.238 -0.0668 -0.0673 -0.0394
 5970W        W21439   9.975   7.692  13.392  0.0518 -0.1240 -0.1383
 5971W        W21440   1.288  15.819   3.330  0.0391 -0.4376  0.1069
 5972W        W21441   5.900  12.547   2.622 -0.4505 -0.1323  0.1597
 5973W        W21442  13.316  15.730   6.356  0.0027  0.0345 -0.2451
 5974W        W21443  13.164   2.570  11.643 -0.0293  0.1005  0.0061
 5975W        W21444   1.579   3.649  10.908  0.0618  0.0678  0.1428
 5976W        W21445  12.619   3.211  14.838  0.2317  0.1699 -0.3593
 5977W        W21446  13.785  17.730  12.358 -0.3533  0.1154 -0.2725
 5978W        W21447   4.913   1.350  11.345 -0.0836  0.1441 -0.2867
 5979W        W21448  10.429   5.651   1.036 -0.0731 -0.0980 -0.0991
 5980W        W21449   4.108   4.760  11.746  0.1104 -0.1212  0.0805
 5981W        W21450  17.612  11.101  14.566  0.2089 -0.1540  0.3524
 5982W        W21451   1.699   8.837   2.471 -0.1453  0.1755 -0.0744
 5983W        W21452  11.843   2.172   0.831  0.0112  0.1127 -0.4418
 5984W        W21453   3.030  16.613  10.609 -0.1466 -0.1183  0.1084
 5985W        W21454  13.732   8.784  12.669 -0.0941  0.1629  0.0083
 5986W        W21455  15.876   3.811  12.289 -0.2088  0.1062 -0.0829
 5987W        W21456   2.641  10.682   0.052 -0.0087 -0.5362 -0.1761
 5988W        W21457  11.117   4.479   3.093 -0.2898  0.0116  0.1712
 5989W        W21458   3.340   6.301  15.616 -0.1853  0.2396  0.0770
 5990W        W21459  13.797  16.144   4.055 -0.0674 -0.0087 -0.0515
 5991W        W21460   6.062  17.041   2.780  0.1056  0.0312 -0.1109
 5992W        W21461  17.304   3.562   3.739 -0.0515  0.0344  0.0235
 5993W        W21462  12.476   7.811  15.814 -0.1466  0.0502 -0.1011
 5994W        W21463   2.257  13.596   4.418  0.2240 -0.1332  0.0552
 5995W        W21464  13.662   3.989   3.260  0.1469  0.3834 -0.0248
 5996W        W21465  17.820   8.389  12.737 -0.2762  0.0143  0.2050
 5997W        W21466  11.466   3.746  14.871  0.1070  0.0031 -0.2140
 5998W        W21467  16.344   1.955   2.990  0.0519  0.0950  0.0349
 5999W        W21468   9.239   6.513   1.238 -0.1164  0.1057 -0.2706
 6000W        W21469   3.012   8.025  15.193  0.4513 -0.1255 -0.1395
 6001W        W21470  16.159   6.517   2.838  0.1400 -0.1999 -0.0200
 6002W        W21471  16.671  12.177  12.824  0.1862 -0.0315 -0.0298
 6003W        W21472  17.713   7.382   1.638  0.5958 -0.0669 -0.1009
 6004W        W21473  18.037   3.457   5.216 -0.0825 -0.0472  0.0740
 6005W        W21474   2.173   1.572  15.550 -0.1000  0.1641  0.2174
 6006W        W21475   1.265  15.708  12.996  0.3555  0.0950 -0.1027
 6007W        W21476  10.717   2.204   2.717  0.1168 -0.1669 -0.0163
 6008W        W21477   9.587  10.572  13.708 -0.2762 -0.2228 -0.0289
 6009W        W21478   2.255  14.961   2.864 -0.2110  0.2139  0.1500
 6010W        W21479  18.159  17.940  13.371 -0.1255  0.2855  0.1235
 6011W        W21480  10.365  11.184  15.213 -0.4453  0.0475 -0.2216
 6012W        W21481   1.361  11.570   1.249 -0.2052 -0.0456  0.1819
 6013W        W21482   1.819   4.180   0.116  0.2716 -0.1023 -0.2274
 6014W        W21483  18.231  13.277  13.360 -0.3137 -0.1504 -0.2432
 6015W        W21484   7.253  13.865  14.617 -0.1289  0.0913  0.0516
 6016W        W21485  16.957  13.673   2.267 -0.5749 -0.0340  0.0455
 6017W        W21486  17.795  15.105   2.265 -0.0363  0.1993 -0.1657
 6018W        W21487  11.132  13.867   3.328  0.1746 -0.0782  0.2846
 6019W        W21488  12.244   7.373   4.924  0.0803 -0.0544  0.1520
 6020W        W21489   0.065  17.182   4.047 -0.0676 -0.4260  0.3275
 6021W        W21490   3.714   4.182  11.419 -0.1602 -0.0776 -0.3042
 6022W        W21491   9.636  15.676   3.221 -0.3591 -0.1762 -0.2124
 6023W        W21492   0.784   1.469   3.729  0.0061 -0.0967  0.1036
 6024W        W21493  17.988  17.157  15.419 -0.4146 -0.0642 -0.1699
 6025W        W21494  12.072   2.540  14.665 -0.2806 -0.3006  0.0091
 6026W        W21495  13.286   5.285  13.068 -0.0491 -0.2264  0.2495
 6027W        W21496   7.295  17.991   4.380 -0.1148 -0.0210 -0.0690
 6028W        W21497  15.176  13.827   2.003 -0.1338  0.1556  0.1878
 6029W        W21498  11.666   3.728  12.766 -0.0579  0.2449  0.1847
 6030W        W21499   3.172  12.452   0.766 -0.0197 -0.1394  0.0947
 6031W        W21500  17.446  15.926  14.482 -0.0599 -0.0364  0.0712
 6032W        W21501  15.872  14.527   0.451  0.0617  0.0036 -0.1085
 6033W        W21502  10.370   3.145  12.103  0.0244 -0.1724  0.0529
 6034W        W21503   4.804   5.971   4.531  0.1690  0.2292 -0.2068
 6035W        W21504  18.267  11.266   3.974 -0.1571 -0.0945 -0.1806
 6036W        W21505   3.364  14.683  13.779  0.0295  0.4137 -0.0393
 6037W        W21506   2.543  12.347  12.244  0.1168 -0.0426 -0.1074
 6038W        W21507  12.252   5.400   2.964  0.0250 -0.0418  0.0944
 6039W        W21508   3.948  17.531  14.092 -0.0364  0.0861  0.0473
 6040W        W21509  10.035   4.547  12.871  0.2005  0.1758  0.1466
 6041W        W21510   4.319  13.209  15.632 -0.1990  0.2462 -0.2218
 6042W        W21511   1.284   1.999  14.220 -0.2291 -0.1202  0.0163
 6043W        W21512   7.232  17.971  12.496 -0.1008 -0.0517  0.1608
 6044W        W21513   7.935   0.915  14.693  0.3014 -0.1511 -0.2150
 6045W        W21514   6.223   0.470  12.783  0.0037  0.1316 -0.0422
 6046W        W21515   8.331  18.095  11.635 -0.1261 -0.1349 -0.2872
 6047W        W21516  13.741   5.256  14.804  0.3054  0.1878  0.0330
 6048W        W21517  11.139  18.090   5.812 -0.4077  0.1615  0.0145
 6049W        W21518  10.758  15.895   3.049 -0.3266 -0.0464  0.0282
 6050W        W21519  16.379  17.818  13.275  0.0571 -0.0865 -0.2155
 6051W        W21520   7.954   4.114   0.290 -0.1994 -0.1421 -0.0405
 6052W        W21521   5.059  12.554  13.828  0.0642 -0.0312  0.2793
 6053W        W21522   0.623  13.839   5.520 -0.3035  0.0891  0.0460
 6054W        W21523   0.511   2.007   0.784 -0.0390  0.1177 -0.0621
 6055W        W21524  12.747   4.783   2.466 -0.1039  0.0787  0.2491
 6056W        W21525   6.825  13.796   3.779 -0.4439 -0.3458 -0.4101
 6057W        W21526   3.077   1.723   4.980  0.0138 -0.0239 -0.1905
 6058W        W21527   7.781   2.938  13.604 -0.4264  0.0256  0.1222
 6059W        W21528   1.013   6.255  13.904  0.2256 -0.2732 -0.4060
 6060W        W21529   9.226  11.595   5.237  0.1300  0.0111 -0.1618
 6061W        W21530   7.682  16.924  13.217  0.0691 -0.1297 -0.0385
 6062W        W21531  11.426   0.903   4.346  0.1112  0.0674  0.0879
 6063W        W21532   3.341   5.392   4.690  0.1090 -0.0845  0.1511
 6064W        W21533  13.599  15.467  14.517  0.3007 -0.0355 -0.2350
 6065W        W21534   5.734   9.935  14.446  0.3274 -0.2467 -0.2815
 6066W        W21535   9.985  13.860  14.676  0.0038 -0.1901 -0.1487
 6067W        W21536  17.695   8.797   3.047  0.2323 -0.0316  0.1765
 6068W        W21537   3.043   5.752  15.590  0.1810 -0.2362 -0.0100
 6069W        W21538  18.080   8.178  13.983  0.1052 -0.1362 -0.4299
 6070W        W21539   1.942   6.612   0.974  0.0286 -0.2957  0.0675
 6071W        W21540   0.605   3.580   0.969  0.0570 -0.2253 -0.0918
 6072W        W21541   6.944  18.085   4.707  0.0058  0.0043 -0.2015
 6073W        W21542  17.653  13.080  13.662  0.0951  0.2061  0.0061
 6074W        W21543   1.551   4.891   4.002 -0.1425 -0.0188  0.0444
 6075W        W21544   4.807   4.101  12.690  0.1319 -0.1746 -0.0161
 6076W        W21545   6.472   2.605   2.907 -0.1062 -0.2194 -0.1854
 6077W        W21546  15.694  10.980  11.027  0.0834  0.0773  0.1710
 6078W        W21547  10.812   4.695   4.030  0.0007  0.3985  0.0826
 6079W        W21548   9.764   5.980   3.189  0.0428  0.0104  0.0949
 6080W        W21549  11.054  16.406   3.647 -0.1325 -0.2388 -0.0271
 6081W        W21550  11.284   8.762   4.656  0.0736  0.1196 -0.0927
 6082W        W21551   0.463   3.967   4.849  0.1173 -0.0429  0.0247
 6083W        W21552   7.545  11.791  11.731  0.0054 -0.1500 -0.1145
 6084W        W21553  14.842   8.262  11.174  0.3536 -0.0857  0.0009
 6085W        W21554  17.335   6.576   2.654 -0.0943 -0.0909  0.0173
 6086W        W21555   1.279   9.028  13.625 -0.1479  0.1569 -0.1820
 6087W        W21556  15.765   1.565   3.060  0.1529 -0.2645 -0.2857
 6088W        W21557  12.489   9.832   2.222 -0.0371 -0.2963 -0.0954
 6089W        W21558   5.313  11.140   1.775  0.0237  0.0775  0.1588
 6090W        W21559  11.990  14.506  11.776  0.3014 -0.1064 -0.2159
 6091W        W21560  15.513  13.106   2.399 -0.0586 -0.1488  0.1605
 6092W        W21561   9.808  14.555   2.560 -0.3051 -0.0317  0.1114
 6093W        W21562  18.163  12.472   3.390  0.0071 -0.0563  0.1234
 6094W        W21563  14.547   1.148   0.955  0.1243 -0.0235 -0.1967
 6095W        W21564  16.823   3.300   5.217 -0.1462 -0.0527 -0.1213
 6096W        W21565   6.671  14.998  12.467 -0.3603  0.1001  0.1679
 6097W        W21566   3.341   6.845   0.688 -0.4368  0.0574 -0.0073
 6098W        W21567   5.301   5.745  13.025 -0.1659 -0.1781  0.2892
 6099W        W21568  15.664   0.684  12.526  0.4902  0.4777  0.1652
 6100W        W21569  14.309  12.416  10.870 -0.2116 -0.2950  0.0827
 6101W        W21570   1.829   3.483  13.829  0.1167 -0.3790  0.1178
 6102W        W21571   8.159  11.053  15.825 -0.0313  0.0919 -0.0542
 6103W        W21572  10.564  17.394  13.847  0.0713  0.0526  0.0714
 6104W        W21573  10.471   3.405  15.749  0.1392  0.1580 -0.0485
 6105W        W21574   0.868   9.307   5.421 -0.0574 -0.1786  0.0653
 6106W        W21575   7.158   4.354  12.369 -0.0380  0.1735  0.0600
 6107W        W21576  14.105  18.230  11.552  0.2168 -0.1455  0.1053
 6108W        W21577   7.959   2.515   5.724 -0.1953  0.0791 -0.0704
 6109W        W21578   2.545   0.570   3.075 -0.1403  0.1034  0.1290
 6110W        W21579   3.532   2.686  16.049  0.0867  0.0351  0.0796
 6111W        W21580   0.217  17.723   2.349  0.0208 -0.0739  0.1271
 6112W        W21581  10.373  16.617  10.679  0.1184 -0.0392 -0.1203
 6113W        W21582  10.557   5.707  15.598  0.2745  0.0241  0.2306
 6114W        W21583   3.685   3.005   1.765  0.1953  0.0392  0.1682
 6115W        W21584   6.739   0.632  13.877  0.0583  0.3301  0.0840
 6116W        W21585   0.555  12.173   4.055 -0.0728  0.0298  0.0430
 6117W        W21586  11.575   3.640   3.078  0.3220 -0.1126 -0.2719
 6118W        W21587  18.082  13.938   0.993  0.1255 -0.0809 -0.0019
 6119W        W21588   2.077  13.873   0.975 -0.3419 -0.0073  0.4636
 6120W        W21589   3.950  16.529   0.834 -0.0758  0.1468  0.1355
 6121W        W21590   1.234  10.869   0.930 -0.0213 -0.4318  0.4612
 6122W        W21591   4.469  11.099   0.912  0.0460 -0.0452 -0.0667
 6123W        W21592  11.211   5.799   4.291  0.0507 -0.2200  0.2211
 6124W        W21593  14.463   3.986  11.420  0.5258  0.0544 -0.1001
 6125W        W21594   1.291  14.347   3.818  0.0966 -0.0007 -0.5194
 6126W        W21595   3.643   0.031  14.783 -0.1701  0.2910  0.0586
 6127W        W21596  17.577   7.105   4.543  0.3468  0.1128 -0.1344
 6128W        W21597   4.549   4.480  12.883  0.0679 -0.0731  0.0015
 6129W        W21598  12.947  10.587   3.394 -0.2142 -0.3116 -0.1753
 6130W        W21599   6.727   4.722   2.386 -0.0489  0.2593 -0.0110
 6131W        W21600  15.772   4.207   2.799  0.2660 -0.0241  0.0387
 6132W        W21601  16.395   3.890   5.560  0.0618  0.1114  0.4676
 6133W        W21602   3.142   9.456   0.842  0.0434  0.0589 -0.0524
 6134W        W21603  18.201   3.812  15.714 -0.0961  0.0837 -0.3072
 6135W        W21604  15.159   3.272   4.641 -0.2021  0.2119  0.2010
 6136W        W21605   0.617   3.559   3.146 -0.0843 -0.2421 -0.3822
 6137W        W21606   1.822   7.903   0.647 -0.0836 -0.0769  0.1131
 6138W        W21607  16.920  11.665  12.950  0.3449  0.1715 -0.0327
 6139W        W21608  12.974   3.782   0.115  0.0252  0.0875  0.2973
 6140W        W21609   7.496  14.000  11.129 -0.0822  0.1128  0.2498
 6141W        W21610  17.146   0.766  13.967 -0.2759 -0.0571 -0.2777
 6142W        W21611   6.279   9.677  10.475  0.4626  0.1677 -0.0280
 6143W        W21612   2.116  11.085   3.281  0.3560  0.0676  0.0125
 6144W        W21613  10.256  10.416   4.398  0.1044 -0.2349  0.0486
 6145W        W21614  14.013   5.850   0.253 -0.0514 -0.0691  0.0154
 6146W        W21615   8.388   2.694   4.268 -0.1967 -0.0267  0.1095
 6147W        W21616   3.945   4.368   4.401 -0.0227 -0.0745  0.0032
 6148W        W21617   3.837  10.235  13.948  0.0459  0.0781 -0.2359
 6149W        W21618   9.366  17.928  13.022 -0.0429 -0.0621 -0.0124
 6150W        W21619  17.150   4.953   5.165 -0.0337 -0.1815 -0.0763
 6151W        W21620   7.549   2.122   0.518 -0.0866 -0.1705 -0.0737
 6152W        W21621  11.477  17.381   5.548  0.0826  0.1121 -0.0061
 6153W        W21622   1.697   9.972  12.102  0.0051 -0.1377  0.2838
 6154W        W21623   9.978   7.574  14.970  0.0184  0.0091 -0.0741
 6155W        W21624  17.042  10.414  12.982  0.2858  0.1504 -0.1961
 6156W        W21625   5.728  13.204  12.968  0.2244 -0.2238  0.0763
 6157W        W21626   7.259   3.555   3.244 -0.2625  0.0242 -0.1691
 6158W        W21627   3.404  14.228   3.059  0.0180 -0.0925 -0.0042
 6159W        W21628   6.410   5.957   4.242  0.0907 -0.0369 -0.1016
 6160W        W21629   7.843  13.684   5.046 -0.1326 -0.0516 -0.0399
 6161W        W21630   7.431  12.850   0.944 -0.2116 -0.0912  0.2379
 6162W        W21631  11.858   8.119   4.628 -0.1515 -0.0431  0.0364
 6163W        W21632   1.572  14.599  13.783  0.1896  0.1759  0.1821
 6164W        W21633   8.638   4.861  13.954  0.0514  0.2381  0.0708
 6165W        W21634   6.366   4.012   0.686 -0.3315  0.0855  0.0803
 6166W        W21635   8.452   9.560   3.724 -0.3227  0.1496  0.0563
 6167W        W21636   1.613   2.402  15.901  0.0285  0.1390 -0.2689
 6168W        W21637  14.705  15.857  15.874  0.1057  0.2881  0.2290
 6169W        W21638  17.015   4.994   0.286  0.1757  0.3183  0.0653
 6170W        W21639   8.948  18.196   0.333 -0.0628  0.2973  0.3018
 6171W        W21640  14.983   8.727   1.550  0.2657 -0.0341  0.3341
 6172W        W21641  10.816  10.544   3.995 -0.1055 -0.0809 -0.0290
 6173W        W21642  16.871   2.162  11.498 -0.0037  0.2638  0.2396
 6174W        W21643   5.277   6.658  11.393 -0.2735 -0.0775 -0.3116
 6175W        W21644  12.558  12.916   0.452  0.3280 -0.0990  0.1338
 6176W        W21645   7.920   2.308  13.210  0.1779  0.1523  0.1596
 6177W        W21646   9.869   5.412   3.879  0.1641  0.1548 -0.3719
 6178W        W21647   6.180  13.291   0.414 -0.3089 -0.0032 -0.0723
 6179W        W21648   0.900   4.088  11.150 -0.0874  0.2382 -0.2721
 6180W        W21649   6.473  16.469   2.049 -0.0893 -0.0976  0.0236
 6181W        W21650  10.539   8.154  12.379 -0.1294 -0.3629  0.0120
 6182W        W21651  10.284   7.864   5.271 -0.0303  0.2274 -0.0184
 6183W        W21652   2.484   5.072   0.965 -0.2268  0.1434 -0.0454
 6184W        W21653  11.254   3.947   2.781  0.1947  0.1053 -0.1391
 6185W        W21654   4.471   7.764   4.285 -0.0594  0.2579  0.1004
 6186W        W21655  11.191   3.237   0.176 -0.1217  0.1027  0.1834
 6187W        W21656   4.350  18.241  14.980  0.1958  0.3843  0.1829
 6188W        W21657   7.401   6.142   3.721  0.0449 -0.0022  0.2671
 6189W        W21658   8.661   2.115   4.664 -0.2243 -0.1409  0.1062
 6190W        W21659   3.714   8.065  14.343  0.1344  0.0385  0.0510
 6191W        W21660   6.246  15.678   0.173  0.1566  0.0971 -0.2954
 6192W        W21661  16.734   0.164   6.349 -0.0972 -0.0735 -0.1852
 6193W        W21662  14.689   9.721   1.738  0.1328  0.1719 -0.0442
 6194W        W21663   9.548   4.462  15.973 -0.0258 -0.0388  0.1263
 6195W        W21664   4.056  12.642  15.167  0.0706  0.0584  0.1660
 6196W        W21665   5.557   8.094  13.350  0.1257  0.2791 -0.0985
 6197W        W21666   3.563   1.203   0.075 -0.0955 -0.2712 -0.1632
 6198W        W21667   5.509  14.206  15.967  0.0839 -0.0611  0.3483
 6199W        W21668   3.273   2.120  11.267  0.1930  0.0428  0.1150
 6200W        W21669   0.071  10.096  15.235  0.2422  0.0697  0.3716
 6201W        W21670  16.583  17.749   3.518  0.2807  0.0753  0.0620
 6202W        W21671   1.708   3.243   1.568  0.0176 -0.0708 -0.0765
 6203W        W21672  10.964   8.436   2.987 -0.1371  0.0679  0.1523
 6204W        W21673  13.056  10.891   1.374  0.2934 -0.0887  0.1167
 6205W        W21674   5.248  17.682  11.730  0.3093  0.2453 -0.2796
 6206W        W21675  15.160   3.575  11.196 -0.0182  0.4530  0.0298
 6207W        W21676  18.085   0.051  14.266 -0.0269 -0.1183 -0.4447
 6208W        W21677   7.217   3.050  11.334 -0.2438  0.1437 -0.2996
 6209W        W21678   3.671  17.023  12.739 -0.1528  0.2714 -0.1328
 6210W        W21679   9.273  17.882   0.586  0.0213 -0.0782 -0.1852
 6211W        W21680   2.650   6.648   1.764  0.2751  0.0624 -0.0886
 6212W        W21681  12.931  16.080  15.035 -0.0509 -0.3283 -0.1564
 6213W        W21682   3.305  17.379  14.680  0.0092  0.1192  0.0190
 6214W        W21683   1.652   9.480  10.028 -0.0867 -0.1879  0.0228
 6215W        W21684   3.046   5.095  14.594 -0.2883  0.0062 -0.2940
 6216W        W21685  15.929  18.115   0.435  0.1950 -0.0810  0.2487
 6217W        W21686   3.746   3.190  15.311 -0.0780 -0.2841  0.0705
 6218W        W21687   6.549   7.470  10.615 -0.3877  0.1693 -0.1774
 6219W        W21688  15.971  17.714  12.906  0.0920 -0.0142  0.0827
 6220W        W21689   8.582  14.234   1.446 -0.0007  0.0615  0.1150
 6221W        W21690  10.846   4.308   3.575 -0.2227  0.0823  0.1096
 6222W        W21691   2.820  13.241  11.171  0.0257 -0.0949  0.2035
 6223W        W21692   4.376   5.134   2.244  0.0015 -0.0204 -0.3157
 6224W        W21693  11.899   1.274  13.358 -0.1525  0.1724  0.0758
 6225W        W21694   9.782   2.430   5.339 -0.1039 -0.0296  0.0062
 6226W        W21695   5.868   7.681  13.444  0.0325  0.0284  0.1359
 6227W        W21696  13.567  14.691  10.481 -0.0271  0.1402  0.0088
 6228W        W21697   0.087   8.096  15.345 -0.1907 -0.2221 -0.1460
 6229W        W21698  14.537   5.911   1.927  0.0525 -0.2764 -0.1176
 6230W        W21699  17.508  11.891   4.509 -0.2975 -0.1556 -0.2380
 6231W        W21700   6.402   8.825  14.866  0.0611  0.0141  0.1153
 6232W        W21701   1.535  13.710   3.191  0.2033  0.0628  0.4081
 6233W        W21702   8.080  10.311  13.725 -0.0659 -0.0189 -0.0005
 6234W        W21703  16.417  11.234   1.565  0.1657  0.0677  0.2220
 6235W        W21704  13.384  16.098  11.257  0.0513 -0.1861  0.2496
 6236W        W21705  18.108  13.938   2.948  0.2599 -0.0832 -0.1094
 6237W        W21706  17.101  13.470  16.003  0.1579  0.1830  0.0222
 6238W        W21707   7.578   6.896   5.082  0.2580  0.1699  0.0014
 6239W        W21708  11.609  13.100   4.606  0.0287  0.1200  0.0146
 6240W        W21709  12.470   6.271  12.051  0.1404  0.2595 -0.2853
 6241W        W21710  13.491  10.865   1.166  0.0084  0.0102  0.1047
 6242W        W21711  17.706  11.101   5.056  0.1392  0.2287 -0.2061
 6243W        W21712   4.559   8.256   0.315  0.3814  0.2375  0.3399
 6244W        W21713   7.682  12.519  10.534  0.2395  0.2453 -0.1090
 6245W        W21714   4.630  17.405  12.606 -0.2176  0.2373  0.0455
 6246W        W21715   5.895  14.771  12.739 -0.1568 -0.1521  0.1361
 6247W        W21716   0.124   0.410   1.405  0.0041  0.0411  0.0092
 6248W        W21717   7.393  14.609   4.608  0.0532 -0.0555 -0.3064
 6249W        W21718   4.101  10.683   6.173 -0.2333  0.0939  0.0141
 6250W        W21719  14.737   1.080  14.939  0.2570  0.0280  0.1128
 6251W        W21720   5.588   4.982  14.920 -0.2466 -0.3993  0.1472
 6252W        W21721  10.094   3.443   0.135  0.1832  0.0381 -0.3058
 6253W        W21722   4.026  16.176  13.227  0.0943 -0.1635  0.2271
 6254W        W21723   9.958  15.327  15.846 -0.3578  0.1555  0.0700
 6255W        W21724  12.932  10.080  14.803 -0.4587 -0.0151 -0.0661
 6256W        W21725  17.736   7.529   4.798 -0.2162  0.0108 -0.3042
 6257W        W21726   3.456  13.742   2.937  0.3261 -0.0210  0.2841
 6258W        W21727  12.402   2.290   3.820 -0.1346 -0.0711  0.1047
 6259W        W21728   5.185   5.473  15.443  0.3775  0.1380 -0.2184
 6260W        W21729  13.584  15.638   1.013  0.0839 -0.2981 -0.0692
 6261W        W21730   3.886   2.192   2.631  0.3775  0.1269  0.0694
 6262W        W21731   4.386  17.330   0.975 -0.3270 -0.3374  0.2666
 6263W        W21732   1.911   3.616   5.393  0.1415 -0.2129  0.0244
 6264W        W21733  14.774  10.003   3.090  0.0203  0.2184 -0.0275
 6265W        W21734   9.565  10.826  11.903  0.0055  0.0128  0.0010
 6266W        W21735   4.541   5.567  11.753 -0.0475 -0.2442 -0.1324
 6267W        W21736   7.614   9.974  11.864 -0.1635  0.0946 -0.0216
 6268W        W21737  14.825   4.510   2.662  0.2174 -0.0883 -0.1355
 6269W        W21738  11.121  15.989   3.389  0.2461  0.2093 -0.1161
 6270W        W21739   1.651  17.632  12.508 -0.3817 -0.1232  0.1070
 6271W        W21740  13.995  14.409   1.204 -0.1586 -0.0190 -0.1529
 6272W        W21741  11.173   2.997   0.702 -0.2084 -0.1032 -0.0456
 6273W        W21742   3.694  15.672   1.831 -0.2101 -0.1158  0.0822
 6274W        W21743  14.334   8.463  11.214  0.0359  0.0911  0.0794
 6275W        W21744  14.176  17.922   5.211 -0.2590  0.0151 -0.0105
 6276W        W21745  17.442  12.803   4.899 -0.0026 -0.3013 -0.4966
 6277W        W21746   1.343   9.152  10.898 -0.0527  0.1105  0.0002
 6278W        W21747  14.867  15.258  11.217  0.0135 -0.2855  0.1052
 6279W        W21748   4.449  11.798  11.226 -0.1631  0.0359 -0.0865
 6280W        W21749   5.160  16.230   0.951  0.1168  0.1770  0.3251
 6281W        W21750  12.644   7.590   1.517 -0.0127  0.0372 -0.2545
 6282W        W21751  12.761  11.946   0.727  0.0869  0.3653 -0.0870
 6283W        W21752   4.755  10.942   1.912  0.0645 -0.0988  0.2019
 6284W        W21753   2.192  15.169  12.048  0.0873  0.2928  0.2283
 6285W        W21754   3.977   2.170   4.009  0.1953 -0.4326 -0.0909
 6286W        W21755  11.661   8.506   0.226 -0.0990  0.0096 -0.2893
 6287W        W21756  11.891   7.957  12.520 -0.1271 -0.1560  0.0612
 6288W        W21757  11.899  16.249  14.392 -0.0782  0.1276 -0.1167
 6289W        W21758  17.126   1.438   2.714  0.2206  0.0601 -0.1214
 6290W        W21759   9.366   2.881  13.854  0.1521  0.3568 -0.3413
 6291W        W21760   2.946  12.950   1.450 -0.0422 -0.0561 -0.2116
 6292W        W21761   8.814  14.743   0.785  0.1430 -0.3672 -0.1932
 6293W        W21762  18.060  16.671  14.274  0.0442  0.1070 -0.0135
 6294W        W21763  14.239  17.501  12.292  0.2207 -0.0511  0.0468
 6295W        W21764   8.591  15.813  11.724  0.1801  0.0797 -0.1938
 6296W        W21765   7.899  14.628  13.287  0.1261 -0.0909 -0.0574
 6297W        W21766   8.245   3.132  10.852 -0.0612  0.0552 -0.1838
 6298W        W21767   0.804   4.347   4.876 -0.0291  0.2420 -0.2076
 6299W        W21768  10.603   5.666  13.596 -0.2730 -0.2609 -0.0006
 6300W        W21769  10.918   0.661  13.657 -0.1421 -0.1796  0.0736
 6301W        W21770  11.192   7.475   1.005  0.0283  0.3499  0.0023
 6302W        W21771   3.252   6.562  11.929  0.0440  0.0283  0.1063
 6303W        W21772   4.126  15.988   2.357  0.2569 -0.1812  0.1263
 6304W        W21773   0.052  16.042   5.167 -0.2351  0.1436  0.1919
 6305W        W21774  15.002   2.477  13.832 -0.2934  0.0177 -0.0606
 6306W        W21775   4.888   8.072   9.379 -0.2008  0.1006  0.1828
 6307W        W21776  14.038   5.005   2.798  0.1155 -0.2012 -0.0561
 6308W        W21777  15.738   1.849  14.250  0.1886 -0.0581 -0.1932
 6309W        W21778   7.330   5.774   1.206  0.1522 -0.4521 -0.0518
 6310W        W21779  15.561   9.444  10.640 -0.2707  0.1660 -0.0761
 6311W        W21780   8.032   4.264   4.397  0.2290 -0.1282  0.0052
 6312W        W21781   6.348   1.102   4.466  0.0810  0.0543 -0.0726
 6313W        W21782  13.183   0.592  12.924 -0.0235  0.0747  0.4262
 6314W        W21783  13.006   6.756   5.938 -0.0692 -0.1712 -0.1353
 6315W        W21784  16.445   1.690  10.579  0.0657  0.3581  0.2075
 6316W        W21785   2.726   7.465   0.940  0.4095  0.0556  0.1711
 6317W        W21786   9.733  15.122   3.887 -0.0794  0.0977  0.1114
 6318W        W21787  13.662   2.092   4.909  0.1188 -0.2628 -0.0799
 6319W        W21788  13.446   1.788   0.361 -0.1122  0.1783  0.0785
 6320W        W21789   7.520   6.679   2.795  0.0943  0.0705 -0.1278
 6321W        W21790   4.256  10.670   1.115  0.0033 -0.0723 -0.2553
 6322W        W21791  10.311   2.560   4.128  0.0036  0.0643  0.0760
 6323W        W21792  10.684  15.892  13.129 -0.2362 -0.1469 -0.1516
 6324W        W21793   6.405   0.211  10.192 -0.2606 -0.2862  0.1171
 6325W        W21794  13.543   3.288   2.834 -0.3390 -0.2861 -0.1585
 6326W        W21795   4.635   2.520   5.688 -0.2812 -0.1486  0.2644
 6327W        W21796  15.246  11.215  14.223  0.3493 -0.0058 -0.0029
 6328W        W21797  11.930   7.177   4.534 -0.1746  0.0292  0.1904
 6329W        W21798   3.181   1.195   9.746 -0.0052  0.1123 -0.2542
 6330W        W21799  15.107   7.480  12.357  0.1643  0.0085  0.0963
 6331W        W21800   9.849   1.915  11.303  0.1658 -0.2343  0.1169
 6332W        W21801   5.870  14.421   2.105 -0.1873 -0.1283  0.0611
 6333W        W21802  12.329   6.029  14.350 -0.3008 -0.1092  0.1326
 6334W        W21803   8.067   3.710  13.199 -0.0488  0.3810  0.0764
 6335W        W21804  14.186  11.030   5.169  0.0940  0.1279  0.0327
 6336W        W21805  16.733  11.137   0.342 -0.1606  0.0381 -0.0236
 6337W        W21806  10.036  11.641   0.171 -0.1980 -0.0301 -0.1482
 6338W        W21807   2.879   9.562   4.544 -0.2770  0.2364  0.1074
 6339W        W21808   0.149   5.788   0.925  0.0804 -0.0527 -0.0547
 6340W        W21809   3.719  15.993   3.375  0.2060  0.0308  0.1862
 6341W        W21810   1.163   7.401  12.772  0.0327 -0.2739 -0.2647
 6342W        W21811  15.008  14.876  10.905 -0.0956  0.0922  0.4739
 6343W        W21812  12.341  11.562  14.720  0.0825  0.2763  0.0932
 6344W        W21813  17.263   1.281   6.237  0.1162 -0.1058  0.1134
 6345W        W21814   8.887  15.707  13.447 -0.0525  0.2368 -0.2870
 6346W        W21815   0.687   6.310  14.954 -0.1349 -0.2390 -0.1777
 6347W        W21816   7.902   6.054  12.930  0.0133 -0.1130  0.5032
 6348W        W21817   4.367   7.711  13.787  0.3361  0.1526 -0.0664
 6349W        W21818  16.580  17.064  15.391 -0.1104  0.2243  0.3035
 6350W        W21819   2.003   6.182   5.540  0.1097  0.3046  0.1157
 6351W        W21820  13.759  11.547  12.890 -0.1083  0.2710 -0.2022
 6352W        W21821   6.871  18.260  11.056 -0.3253  0.1954  0.3200
 6353W        W21822   9.782  13.575   1.399  0.0189 -0.1305 -0.1899
 6354W        W21823   4.209   1.744  11.274 -0.4260  0.1441 -0.1945
 6355W        W21824   1.011   8.626   3.536 -0.0948  0.0476  0.2415
 6356W        W21825   5.421   0.601   4.686  0.3472 -0.0032  0.1049
 6357W        W21826  15.780  12.335  13.706 -0.0767  0.1349 -0.0592
 6358W        W21827  17.357   7.942  15.550  0.0482 -0.2078  0.1804
 6359W        W21828   9.024  13.542   0.596  0.2567 -0.0758  0.0852
 6360W        W21829   8.431  15.018  12.338 -0.0041  0.0231  0.0981
 6361W        W21830  11.060   3.913  12.875  0.0209  0.2720 -0.0580
 6362W        W21831  11.532   7.471   3.369 -0.1404 -0.0438 -0.1401
 6363W        W21832   3.738   3.787   1.947  0.1303 -0.2308  0.0618
 6364W        W21833  16.039   3.284   0.932 -0.0083  0.0139  0.0161
 6365W        W21834  15.913  17.312  13.783  0.1385 -0.2518 -0.1218
 6366W        W21835   5.544   8.242   4.421  0.3185  0.1105 -0.0198
 6367W        W21836   3.415  16.826   1.085  0.1921  0.0684  0.1311
 6368W        W21837   4.165   4.280  15.421  0.1052  0.0190 -0.0040
 6369W        W21838   4.151   7.796  14.295 -0.1237 -0.2391 -0.1744
 6370W        W21839  13.495   8.370   3.794  0.0669 -0.3707 -0.0701
 6371W        W21840  10.042   9.682   2.807  0.1353  0.2014 -0.1131
 6372W        W21841  18.102  10.970  14.639 -0.4856  0.2607 -0.0946
 6373W        W21842   4.581   8.297   1.689  0.4057 -0.0928  0.0068
 6374W        W21843   4.309  14.298   6.272  0.0297 -0.2198 -0.4176
 6375W        W21844  17.380  13.541   1.273  0.0050  0.0692 -0.3665
 6376W        W21845   3.614   6.095   2.699 -0.0307 -0.3911  0.2564
 6377W        W21846  17.715  10.856   3.140  0.0494 -0.0588  0.3327
 6378W        W21847   8.215   8.206  14.817 -0.0229 -0.0365 -0.1827
 6379W        W21848  15.367   0.039  13.965 -0.0369 -0.0888  0.3314
 6380W        W21849  15.681  16.315  14.699 -0.0812  0.5717 -0.0932
 6381W        W21850  14.332  13.208   3.145  0.0197 -0.1064  0.0619
 6382W        W21851  13.838   0.865   4.631 -0.0742  0.3227  0.1777
 6383W        W21852   0.133  12.003   3.349  0.1776  0.3271  0.0985
 6384W        W21853  18.151   6.346  11.381 -0.0037 -0.2547 -0.0132
 6385W        W21854   9.735   1.873   2.562 -0.1271  0.1747  0.0412
 6386W        W21855   7.016   0.203   2.098  0.2611  0.4571  0.2716
 6387W        W21856   7.048  16.979  11.928  0.1839  0.0196 -0.0257
 6388W        W21857   1.794   2.885   4.202 -0.0520  0.1270 -0.1019
 6389W        W21858  14.727  15.192   4.236 -0.0837 -0.1225  0.0905
 6390W        W21859  17.969   0.724   2.650  0.3532 -0.0582  0.0025
 6391W        W21860   3.444   0.163   3.704  0.2797  0.1031 -0.1712
 6392W        W21861   0.090   0.475   4.467 -0.1824  0.1166  0.1263
 6393W        W21862   8.898  12.175   1.913  0.0970  0.2851  0.5140
 6394W        W21863  17.696  11.668  15.727 -0.2222  0.2311  0.3481
 6395W        W21864  17.288   6.771  12.024 -0.0925  0.0378  0.0233
 6396W        W21865   8.374   1.443  15.114  0.2269 -0.0380 -0.2997
 6397W        W21866   2.536  13.681  16.081 -0.0839 -0.2188 -0.0142
 6398W        W21867   5.739  14.434   0.296 -0.5038 -0.1473 -0.2896
 6399W        W21868   4.779   0.430   1.676  0.0617  0.2460  0.1024
 6400W        W21869   7.359  11.162   1.217  0.0716  0.1721  0.0177
 6401W        W21870   6.062  10.384   1.588  0.1727 -0.3859 -0.1430
 6402W        W21871  15.713  14.337   1.327 -0.0826  0.2505  0.0298
 6403W        W21872  15.060  14.850  11.499 -0.0639  0.1395  0.1844
 6404W        W21873  17.017   8.349  10.868  0.0713  0.0398  0.3865
 6405W        W21874  11.561  12.173  15.008 -0.0613 -0.2227 -0.0389
 6406W        W21875   4.267  11.971   4.006 -0.2237  0.1146 -0.2809
 6407W        W21876   1.571   7.768   3.222  0.3095 -0.3692  0.1078
 6408W        W21877  14.935  16.660   1.978 -0.0696  0.0448  0.2055
 6409W        W21878  15.295  14.024  10.993 -0.0173  0.0630  0.0060
 6410W        W21879   2.935   4.410  13.832 -0.0976 -0.2814  0.1070
 6411W        W21880   5.445   1.682   1.996  0.2257 -0.0071  0.1327
 6412W        W21881  10.678   5.811  11.048  0.0537 -0.1823 -0.1572
 6413W        W21882  18.090  13.256  14.314 -0.1323 -0.1972 -0.0291
 6414W        W21883   7.459   9.585  10.559  0.0081  0.0204  0.0056
 6415W        W21884  11.722   4.421   2.956  0.0127  0.0112  0.0681
 6416W        W21885   0.560   3.001   3.143 -0.0434  0.0518  0.0444
 6417W        W21886  12.883   4.490  14.137  0.0781 -0.1956  0.2218
 6418W        W21887   9.467   8.628   0.903 -0.1094 -0.0938  0.3042
 6419W        W21888   2.141  17.918   5.175 -0.0996 -0.0205  0.1701
 6420W        W21889   5.233  12.371   1.443 -0.2738  0.1481  0.1606
 6421W        W21890   1.182   9.326  12.736  0.2023  0.1284  0.0575
 6422W        W21891   2.781   0.230  13.290  0.2497 -0.1396  0.2027
 6423W        W21892  15.281   9.729   4.426 -0.1945 -0.1171 -0.1740
 6424W        W21893   1.676  10.568   2.092  0.1408 -0.0282  0.1088
 6425W        W21894  15.311   5.116  14.983 -0.1560 -0.4421 -0.2182
 6426W        W21895   9.375   9.806   9.344 -0.4062 -0.1101 -0.0868
 6427W        W21896   5.715   4.001  16.042  0.1113  0.1837  0.0853
 6428W        W21897   6.243  14.318   0.407 -0.1337 -0.1066 -0.2056
 6429W        W21898  12.828  14.906   1.408  0.1304 -0.1101 -0.1201
 6430W        W21899   4.544   9.853   0.542  0.2707  0.1191 -0.0164
 6431W        W21900   1.010   6.123   2.132 -0.1484  0.0169  0.0106
 6432W        W21901  13.397   3.171  11.362 -0.1028 -0.4052  0.1781
 6433W        W21902  18.251   7.618   0.448  0.1627 -0.0872  0.0733
 6434W        W21903   5.086   4.802  11.878 -0.1208 -0.0976 -0.0931
 6435W        W21904   8.477   6.114  11.550  0.0730 -0.0019  0.0003
 6436W        W21905  11.432   8.740   5.127  0.0618  0.0930 -0.0907
 6437W        W21906   2.397  17.410  14.242  0.3629 -0.2201 -0.0917
 6438W        W21907  10.555  12.090  15.009 -0.2867 -0.3333 -0.3595
 6439W        W21908   1.479   9.237  11.378  0.1853  0.0743 -0.0639
 6440W        W21909  15.939   6.653  12.808 -0.0067 -0.0061  0.2042
 6441W        W21910  14.607   6.863  15.993  0.1456 -0.0129  0.0240
 6442W        W21911   9.837   0.658   4.173 -0.2515 -0.2364 -0.1992
 6443W        W21912  11.000   6.928   3.641  0.2032 -0.0974  0.1212
 6444W        W21913  13.266   0.074   1.779 -0.1535  0.0568 -0.2992
 6445W        W21914   3.222   8.622   0.404  0.0010 -0.1241 -0.3015
 6446W        W21915  13.239   3.069  13.923 -0.2110 -0.3213  0.0028
 6447W        W21916  10.995   9.209   1.422  0.1008  0.1008 -0.3366
 6448W        W21917   5.598   4.054   2.438 -0.1800 -0.1663 -0.2062
 6449W        W21918   5.804   9.329  15.554 -0.0796 -0.0297  0.0564
 6450W        W21919   9.303  10.340   1.869  0.1368 -0.1201 -0.0386
 6451W        W21920   4.787  11.637  14.288 -0.0446  0.1406 -0.1148
 6452W        W21921  12.707  14.365  12.357  0.5017  0.0704 -0.2018
 6453W        W21922   7.932   4.524   2.653 -0.2890 -0.0180 -0.1894
 6454W        W21923   5.690   4.261  12.643  0.0871 -0.0066 -0.0530
 6455W        W21924   9.989   4.538   4.118  0.2430 -0.0237  0.1087
 6456W        W21925   8.049  18.083   2.617 -0.2969 -0.2566  0.1773
 6457W        W21926  14.208   6.311  12.951 -0.1649  0.1287  0.1654
 6458W        W21927   6.834   1.591  10.612 -0.1488 -0.3369  0.2973
 6459W        W21928   3.154  11.462  14.897 -0.0152  0.0760 -0.0011
 6460W        W21929   7.747  15.910  13.477  0.0063 -0.0683  0.0239
 6461W        W21930   9.493   8.426  13.989 -0.1924  0.0616 -0.0126
 6462W        W21931  12.048   6.859   2.893  0.0167  0.0597  0.0717
 6463W        W21932   0.214  13.080  12.084 -0.0479  0.2595 -0.0042
 6464W        W21933   9.265  15.344   1.809  0.0251 -0.0396  0.4678
 6465W        W21934   0.907   0.628   2.522 -0.3309 -0.1689 -0.1463
 6466W        W21935   8.792  15.791  15.917 -0.0840 -0.4956 -0.1815
 6467W        W21936  15.987   5.084  12.579 -0.1710 -0.1768  0.0217
 6468W        W21937   5.905  16.588  16.112  0.2566  0.0275  0.0462
 6469W        W21938  16.749   0.025   5.107  0.2669  0.2671  0.1775
 6470W        W21939  13.275   1.201  12.741 -0.2250  0.0550 -0.1827
 6471W        W21940   5.479  15.062   3.221 -0.1383  0.0714  0.2787
 6472W        W21941  12.629  11.744  12.465  0.0418 -0.0864  0.0449
 6473W        W21942   0.052  10.033   2.234  0.2276 -0.0349  0.0509
 6474W        W21943  17.499   1.060   2.869 -0.0316  0.0810 -0.2055
 6475W        W21944  16.734  10.490  13.462  0.0757  0.3410 -0.1511
 6476W        W21945   8.241  16.765   1.223  0.0795  0.1912  0.1129
 6477W        W21946  15.985  18.131  15.578 -0.1931 -0.0557 -0.0840
 6478W        W21947   1.751   1.540   2.002  0.1095 -0.1478 -0.0451
 6479W        W21948   0.310   4.916  14.898  0.0936 -0.0826 -0.0323
 6480W        W21949   9.204   3.493   5.725  0.2160 -0.0421  0.2008
 6481W        W21950  15.636  17.497   1.166 -0.2787  0.0838 -0.0603
 6482W        W21951  13.066   3.557   1.077  0.0808  0.0862 -0.1056
 6483W        W21952   7.162  11.422   4.097 -0.2680  0.1473 -0.0299
 6484W        W21953   3.036  12.733   3.758  0.0188  0.2180 -0.5695
 6485W        W21954  12.868   1.727  12.255 -0.1247  0.1106 -0.3889
 6486W        W21955  13.089   2.179  14.490 -0.0387  0.0477  0.2193
 6487W        W21956   3.688   6.177  14.246  0.1400  0.0072 -0.1935
 6488W        W21957   4.185   7.325  10.788 -0.0766  0.1027 -0.1015
 6489W        W21958   2.110   1.112  15.215 -0.1571 -0.2346  0.0344
 6490W        W21959  12.072   7.172   6.167  0.0038 -0.0173 -0.0086
 6491W        W21960  15.357  16.569  12.314 -0.2895  0.1043  0.1532
 6492W        W21961   0.005   8.626   1.781 -0.2323  0.1504  0.0828
 6493W        W21962  10.103   5.147  11.816 -0.1823  0.2361 -0.1825
 6494W        W21963   1.106  12.967  11.247 -0.2336  0.1417 -0.0857
 6495W        W21964  13.607  10.115   3.183  0.1208  0.2423  0.0307
 6496W        W21965   4.431   3.109  11.083 -0.0623  0.0574 -0.0609
 6497W        W21966  12.435   0.825   0.769 -0.0619 -0.0077  0.0377
 6498W        W21967   8.895   5.325  14.999  0.1177  0.1777 -0.2162
 6499W        W21968   2.669  10.143   0.782  0.1521  0.0577  0.1977
 6500W        W21969   7.741   6.830   2.406  0.0047 -0.0810  0.1548
 6501W        W21970  15.192   9.740   3.256  0.0416 -0.0252 -0.1998
 6502W        W21971  18.029  13.297   0.924  0.1281  0.1554  0.1215
 6503W        W21972  14.636   7.305  12.121 -0.1346 -0.0529 -0.1069
 6504W        W21973  17.900  11.222  13.118 -0.2721  0.0514  0.3242
 6505W        W21974  14.857   0.329   2.327 -0.3125 -0.1574 -0.0503
 6506W        W21975   5.757  17.330   4.446 -0.2237  0.2089 -0.1956
 6507W        W21976   1.747   7.611   1.009 -0.3526  0.3069 -0.4084
 6508W        W21977  11.993   2.771   0.068 -0.1380  0.1945  0.2221
 6509W        W21978   4.835   8.774  15.873  0.1599 -0.1897 -0.2461
 6510W        W21979  14.012   9.363   2.306  0.2430 -0.1188  0.0787
 6511W        W21980   1.460   2.837   1.529  0.0831  0.0674 -0.1329
 6512W        W21981  14.948   7.656  16.107  0.0694 -0.1054 -0.0390
 6513W        W21982   6.838  10.605  12.192  0.2661 -0.0438  0.3515
 6514W        W21983  10.187  12.340  10.552 -0.0020  0.0189  0.0500
 6515W        W21984   8.711  10.327   0.654  0.2068 -0.2249  0.1887
 6516W        W21985   3.573   2.703   4.497  0.0275  0.0925 -0.2207
 6517W        W21986   6.895   9.296   3.572 -0.2303 -0.0022  0.3019
 6518W        W21987  12.203   9.454  15.043 -0.0817 -0.0357  0.0416
 6519W        W21988  17.198   0.460   4.393  0.1047  0.2025 -0.0722
 6520W        W21989   9.794  17.709  12.661 -0.2554 -0.0127 -0.1620
 6521W        W21990  16.737  11.060  14.870 -0.0141 -0.1343  0.0979
 6522W        W21991  10.778   0.658   2.783  0.0497 -0.1881  0.0725
 6523W        W21992   3.414   2.962  11.848 -0.0532  0.2504  0.2447
 6524W        W21993   2.945   6.202  15.190 -0.0575 -0.3947  0.1651
 6525W        W21994   4.804   5.429  14.267  0.1335  0.1452  0.0569
 6526W        W21995   9.116   8.111   0.849  0.1787  0.1277  0.0506
 6527W        W21996   7.167   4.498  11.913 -0.0215  0.0517 -0.0624
 6528W        W21997   5.190  15.774   1.350 -0.2112 -0.0852 -0.0440
 6529W        W21998   7.350   0.286  15.008  0.2471  0.1368 -0.0310
 6530W        W21999   8.629   7.165  12.789 -0.0301  0.0382 -0.0273
 6531W        W22000  12.464  10.665   2.106  0.3006 -0.2363 -0.0612
 6532W        W22001   7.535  14.318   4.012 -0.0271  0.0588 -0.2336
 6533W        W22002  11.880   2.031   0.184 -0.2516  0.1641  0.0690
 6534W        W22003   8.297   6.892  15.501 -0.0208  0.1350  0.2249
 6535W        W22004   7.695  12.129  14.090  0.1416 -0.1464  0.1546
 6536W        W22005   5.717   1.115  13.365  0.1785 -0.1295 -0.2117
 6537W        W22006   0.462  12.135  15.997  0.1094 -0.0773  0.0987
 6538W        W22007   6.440  14.422   2.022  0.0865 -0.1624  0.1496
 6539W        W22008   9.086  11.088  11.783  0.2410 -0.0724 -0.0153
 6540W        W22009   9.247  17.925  13.703 -0.1166 -0.2823 -0.0925
 6541W        W22010  16.631  11.095   5.352  0.1981 -0.1072 -0.1074
 6542W        W22011  15.627   9.400  15.069 -0.1004 -0.1284  0.0033
 6543W        W22012  10.578  17.801   3.397  0.0691  0.1430  0.0656
 6544W        W22013  10.912   4.506   0.332 -0.2552 -0.0188  0.0105
 6545W        W22014  14.692   5.428   3.497 -0.0256 -0.0331 -0.0608
 6546W        W22015   2.202   9.281  11.323 -0.0828  0.1310 -0.4916
 6547W        W22016   9.356   7.855  10.631  0.0286 -0.1467  0.0491
 6548W        W22017  18.222  13.172  14.912  0.2662  0.0843  0.1724
 6549W        W22018   1.793  12.783   2.383  0.0503 -0.3061 -0.0537
 6550W        W22019  13.524  12.940   4.921  0.0386 -0.1210  0.2769
 6551W        W22020  18.115   1.387  14.616 -0.0182  0.0497  0.0975
 6552W        W22021  14.397  13.326  14.203 -0.2513 -0.0125 -0.0547
 6553W        W22022   5.581   6.258   4.832  0.1503 -0.1141 -0.1599
 6554W        W22023   3.249   7.242   3.956  0.1415 -0.2051 -0.0403
 6555W        W22024  13.242   4.126  12.335  0.1112 -0.2129  0.0562
 6556W        W22025  16.693   4.550   3.104 -0.1408  0.0220  0.0098
 6557W        W22026  16.062  17.293   0.743 -0.1270 -0.2852 -0.0862
 6558W        W22027   9.599  16.366   3.771  0.1558  0.0582 -0.1935
 6559W        W22028   4.755  12.813   4.275 -0.0905 -0.1896 -0.3123
 6560W        W22029  14.128  14.703  13.089 -0.2885 -0.0677  0.2293
 6561W        W22030   0.085   8.955   0.590 -0.0536  0.1867  0.3839
 6562W        W22031   8.679  12.636   0.244  0.0752 -0.1529  0.0566
 6563W        W22032   8.892   6.037  14.769 -0.2442 -0.1574 -0.0700
 6564W        W22033   7.961  15.688  14.667 -0.0468 -0.1574  0.3810
 6565W        W22034  12.886   0.102   0.019 -0.2857 -0.1084 -0.0683
 6566W        W22035  12.724   0.015   1.814  0.0628 -0.3457 -0.0960
 6567W        W22036  15.475   9.086   5.082 -0.2433  0.0735 -0.1034
 6568W        W22037   5.467   4.008  15.064  0.0037  0.0418 -0.0153
 6569W        W22038   9.816   6.407  14.495  0.1826  0.1985  0.0111
 6570W        W22039  13.716   9.889   1.321  0.1615 -0.0693  0.1336
 6571W        W22040  16.574  16.963   3.649 -0.1281  0.0696 -0.0138
 6572W        W22041   2.670   2.700   3.716  0.2886  0.2327  0.0776
 6573W        W22042   8.264   3.078   4.682  0.0089  0.1783 -0.0631
 6574W        W22043  14.960   4.767  10.027  0.0485 -0.2491  0.2980
 6575W        W22044   2.071   1.415   4.688 -0.1025 -0.0151 -0.0334
 6576W        W22045  12.607  15.663  11.193 -0.1476  0.1371 -0.0340
 6577W        W22046  16.257  12.380   0.650 -0.0398 -0.2364 -0.0817
 6578W        W22047  17.191   2.504   1.966 -0.1940  0.2297  0.0988
 6579W        W22048   7.375   2.516   3.974  0.0256  0.3857 -0.3456
 6580W        W22049   0.163  11.914   1.844 -0.2543 -0.0976 -0.2273
 6581W        W22050   6.555   6.813  11.248  0.1864 -0.0607 -0.1991
 6582W        W22051   0.317  11.110  12.021 -0.0096 -0.1202 -0.1827
 6583W        W22052  17.944  10.122  11.062 -0.2076  0.2791 -0.2927
 6584W        W22053  14.226   2.127   5.906  0.2436  0.0231  0.1231
 6585W        W22054   3.855  11.695   5.428 -0.0521  0.5697 -0.2589
 6586W        W22055   8.814   3.289  13.489  0.0429 -0.2333 -0.0665
 6587W        W22056   8.943  15.335  12.950 -0.0603  0.0943 -0.2089
 6588W        W22057   0.574  13.591  12.633 -0.1129 -0.0724  0.0095
 6589W        W22058   5.072   6.807   0.738 -0.1145 -0.2882  0.1586
 6590W        W22059   5.520  13.978  10.133 -0.0473  0.0170  0.0812
 6591W        W22060   8.094  16.751   4.241  0.2669  0.2072  0.0792
 6592W        W22061  13.749  14.491  12.790  0.0790 -0.3164  0.0143
 6593W        W22062  17.231  15.339   3.606 -0.0408  0.0553  0.2358
 6594W        W22063  17.924   0.247   6.439  0.1487  0.1233 -0.0601
 6595W        W22064   9.283  15.711  15.796 -0.0931  0.1076 -0.2766
 6596W        W22065   6.206  11.012   4.948 -0.4327 -0.0407 -0.2316
 6597W        W22066   5.831   0.389   0.639  0.0356  0.1143  0.3012
 6598W        W22067  18.160   8.150   0.665  0.2119 -0.0882 -0.0819
 6599W        W22068   5.412   8.343  14.092  0.3407 -0.0830 -0.0445
 6600W        W22069  10.838   3.156  11.799 -0.1271  0.1362  0.2452
 6601W        W22070  11.739   9.031  13.334  0.3425  0.1239  0.0951
 6602W        W22071  13.268   2.764  12.084  0.1180 -0.0014 -0.0245
 6603W        W22072   1.404  17.854  12.131 -0.1528 -0.0953 -0.1534
 6604W        W22073  17.705   7.887   4.169 -0.0534  0.0613 -0.2498
 6605W        W22074   3.955   1.894   0.240 -0.1532  0.0209  0.1321
 6606W        W22075   1.038   4.726   4.008  0.0073 -0.1758 -0.4316
 6607W        W22076  12.687   5.285   6.142  0.0339  0.1676  0.1080
 6608W        W22077   6.873  12.771   3.592  0.0065 -0.1302 -0.1121
 6609W        W22078   1.524  17.332   0.463 -0.0965 -0.0414 -0.0315
 6610W        W22079   3.342   8.264   3.231  0.0573  0.2634  0.0442
 6611W        W22080   5.979  10.069   2.878  0.2006 -0.0428  0.1745
 6612W        W22081  11.485   4.190  12.906  0.2710  0.0573 -0.0157
 6613W        W22082   8.218  13.963  10.525  0.0960 -0.1170  0.0632
 6614W        W22083   7.567   2.600   0.358 -0.0235 -0.0887  0.1865
 6615W        W22084   8.655   6.743   4.403 -0.2466 -0.0020  0.1666
 6616W        W22085  17.794  12.414   2.864  0.1102  0.3393  0.1085
 6617W        W22086   3.224  12.122  11.158 -0.2149  0.1259  0.0071
 6618W        W22087   6.639  17.583  15.629 -0.1233  0.3365  0.2531
 6619W        W22088  15.340  16.472   0.117 -0.0162  0.0317 -0.2971
 6620W        W22089  16.870   0.180   4.079  0.2696 -0.0212 -0.3098
 6621W        W22090  14.849  10.365   0.894 -0.1254  0.2544  0.0469
 6622W        W22091   4.657  17.129  11.793  0.1024 -0.0546 -0.1955
 6623W        W22092   6.140   8.668  10.900 -0.0250 -0.1351  0.0347
 6624W        W22093  13.312   2.679   4.205 -0.0700 -0.0967 -0.2868
 6625W        W22094   7.838  16.345   3.984  0.0601 -0.1895  0.0374
 6626W        W22095  14.020   1.577  13.917 -0.0686  0.1357  0.0566
 6627W        W22096   8.425   4.113   5.397 -0.0927  0.0973 -0.0788
 6628W        W22097   4.786   0.936   3.721 -0.1177 -0.1758  0.2401
 6629W        W22098   2.717  15.348   2.867 -0.1808 -0.0629  0.2184
 6630W        W22099  15.328   4.109   5.052 -0.1234  0.0882  0.0342
 6631W        W22100  17.510   9.493   3.649 -0.0467 -0.0465  0.0412
 6632W        W22101   2.537   9.277  10.432 -0.1170 -0.0003 -0.0962
 6633W        W22102  15.453   6.839   0.226 -0.3481 -0.1141 -0.0930
 6634W        W22103   0.102   5.819   3.300 -0.0615  0.1977  0.1904
 6635W        W22104   3.679  11.741  13.818 -0.0878  0.4121  0.0327
 6636W        W22105   0.836  12.564   3.860 -0.1103  0.0861 -0.0123
 6637W        W22106  11.718  14.551   0.472 -0.3064  0.0304  0.0474
 6638W        W22107  16.054  13.547   4.724 -0.0827  0.0634  0.0437
 6639W        W22108   1.895  15.364   2.541 -0.3257 -0.1855  0.0749
 6640W        W22109   1.412  14.033   0.627  0.1881 -0.0863 -0.2028
 6641W        W22110  13.377   1.498  13.822  0.1320  0.0487  0.2405
 6642W        W22111   0.709  11.845  11.785  0.1447 -0.0690  0.2681
 6643W        W22112   5.402   1.933   3.646  0.0303  0.0478  0.5235
 6644W        W22113   3.287  16.066  11.510  0.2812  0.2276  0.0575
 6645W        W22114   7.546  15.243  12.907 -0.1485  0.2575 -0.0656
 6646W        W22115  11.312   2.952  11.745 -0.1372 -0.1375  0.0176
 6647W        W22116  17.456   6.194   0.952 -0.0900 -0.1598  0.2330
 6648W        W22117   0.772  15.724   5.996  0.0719  0.2194  0.0774
 6649W        W22118  12.126   0.323  12.505  0.1439  0.2056 -0.0341
 6650W        W22119  13.679  14.470   3.201 -0.1373 -0.0708  0.0792
 6651W        W22120  15.576   5.547   2.321 -0.0529 -0.3014 -0.1463
 6652W        W22121   5.306  13.797   3.282  0.4300 -0.1372 -0.0607
 6653W        W22122  18.210  12.258   2.062  0.0293 -0.0656 -0.1464
 6654W        W22123  17.004   3.118  14.123 -0.1858  0.0508 -0.0036
 6655W        W22124   7.272  14.166   4.415 -0.2472 -0.0603  0.1125
 6656W        W22125  16.794  11.488  11.915 -0.1815 -0.0013 -0.0492
 6657W        W22126  11.876   1.593  16.031  0.1169  0.3480 -0.1809
 6658W        W22127  16.433   0.825   2.713 -0.0249 -0.0188  0.0521
 6659W        W22128  11.328   6.900   5.180 -0.3932 -0.0937 -0.1480
 6660W        W22129   7.012  10.022   0.502  0.0279 -0.1420  0.0571
 6661W        W22130  18.224   2.637   1.908 -0.3353  0.1019 -0.0605
 6662W        W22131   7.500  12.266   0.816 -0.3686 -0.1253 -0.2904
 6663W        W22132   6.599  10.947  11.388 -0.3259  0.2677 -0.2047
 6664W        W22133  17.707  13.840   1.484 -0.1602 -0.3919 -0.1266
 6665W        W22134   3.293  15.751   0.360  0.1881 -0.1894  0.0029
 6666W        W22135  12.035   1.626  13.666  0.3390 -0.0259  0.2297
 6667W        W22136  16.935  14.319   3.548 -0.0653  0.1108 -0.2666
 6668W        W22137   5.464  14.883  13.529  0.1072  0.0579  0.0425
 6669W        W22138   8.002   2.510  11.264 -0.1509  0.1823  0.2627
 6670W        W22139  16.987   8.196  15.240  0.0980  0.1183  0.1611
 6671W        W22140  11.364  10.778  15.441 -0.0746 -0.0738  0.0504
 6672W        W22141   5.910  12.051  15.966 -0.3096 -0.3776 -0.3767
 6673W        W22142   5.007  16.626   5.284 -0.1115  0.3128 -0.3039
 6674W        W22143   5.631  10.009   1.942  0.0661  0.1626 -0.1247
 6675W        W22144  10.278   1.954   5.063 -0.0750 -0.0554 -0.0609
 6676W        W22145  17.505  10.992   3.648 -0.1209  0.2526 -0.1042
 6677W        W22146   5.227   2.856   4.200 -0.0988 -0.0089  0.1904
 6678W        W22147  10.586   9.775   1.698  0.1231 -0.2160 -0.0707
 6679W        W22148   7.921  15.156   2.379  0.1375 -0.0989 -0.0413
 6680W        W22149   1.494   2.717   3.898  0.0688  0.3964 -0.4234
 6681W        W22150  15.163  11.265  12.527  0.0223  0.0563  0.2952
 6682W        W22151  12.592   2.108  13.061  0.0075 -0.1534  0.0261
 6683W        W22152  17.771  11.732   0.595 -0.4413  0.3121 -0.0777
 6684W        W22153   8.691  13.370  14.239 -0.1859 -0.1607 -0.5022
 6685W        W22154  14.777   2.714  12.344  0.2482  0.0363  0.1079
 6686W        W22155  10.720  17.800  15.670  0.2363 -0.1566 -0.0911
 6687W        W22156  16.717   2.863   3.519 -0.0385 -0.0458 -0.5657
 6688W        W22157  16.881  10.004   0.190  0.0417 -0.0241 -0.1182
 6689W        W22158  12.655  13.970   1.589 -0.1204  0.0264 -0.0066
 6690W        W22159   3.981  10.518   1.969 -0.1919 -0.2698 -0.2071
 6691W        W22160  17.418  14.048  11.651 -0.1169  0.1682 -0.1203
 6692W        W22161  18.182   9.470   1.431  0.0579 -0.1223  0.1268
 6693W        W22162  11.770   4.664   1.721 -0.0044  0.2277 -0.1469
 6694W        W22163   3.959   3.153   4.413 -0.1711  0.5246 -0.2466
 6695W        W22164  13.121  11.890   2.134 -0.0990 -0.1717  0.3711
 6696W        W22165   9.571  12.580  15.605 -0.3991 -0.3297  0.1474
 6697W        W22166   2.105  11.710  11.827 -0.0135  0.3227  0.1794
 6698W        W22167   4.841  14.908   1.605 -0.1497  0.0970  0.0350
 6699W        W22168   6.702   6.805  13.457 -0.2470  0.0255 -0.1270
 6700W        W22169   6.822   3.902  15.715 -0.0934 -0.0925  0.1390
 6701W        W22170   4.933  17.632  15.110  0.1237  0.2428  0.2176
 6702W        W22171  13.507   3.622   0.773 -0.0967  0.2618  0.3781
 6703W        W22172  11.940  14.713  12.423  0.0022 -0.1331  0.4929
 6704W        W22173   1.366   5.000  13.036  0.5127  0.3334 -0.0104
 6705W        W22174  15.292   9.270  12.562  0.0223  0.0867 -0.0718
 6706W        W22175   3.449  16.675   4.454 -0.0790  0.1468 -0.1086
 6707W        W22176   3.981  10.470   0.556  0.1674 -0.1528  0.1212
 6708W        W22177  14.915  14.461  15.698 -0.3415  0.0371 -0.3620
 6709W        W22178  14.847   6.435   4.396  0.3642  0.2793  0.2105
 6710W        W22179  11.788  15.352   4.326 -0.0430  0.0360  0.0489
 6711W        W22180   0.572   9.917   2.460  0.0214  0.1719  0.2064
 6712W        W22181  14.923   8.503   3.214  0.1325 -0.0723 -0.0047
 6713W        W22182   7.521  17.773   2.510 -0.3618  0.0054  0.0619
 6714W        W22183   2.609   2.975   1.814  0.3629  0.0665  0.0650
 6715W        W22184  14.869   9.109   1.028  0.2454 -0.0597 -0.0322
 6716W        W22185  17.610   7.049   5.677  0.2497  0.2319 -0.0764
 6717W        W22186   2.298  15.338   0.806  0.1548  0.1800  0.0152
 6718W        W22187  17.354   6.778   3.708 -0.0359 -0.0089  0.3262
 6719W        W22188   2.667   2.418  12.505  0.3769  0.1495  0.0102
 6720W        W22189  14.940  10.250  12.968  0.0642  0.3101  0.3025
 6721W        W22190  13.667  11.235   1.602 -0.2670 -0.3765  0.2018
 6722W        W22191  15.374   4.937  11.443 -0.0339 -0.2040 -0.2161
 6723W        W22192  17.801   5.913   3.702 -0.2246 -0.1577  0.0380
 6724W        W22193   6.132  11.869   3.509  0.3070 -0.1857  0.0900
 6725W        W22194   3.780   7.753   1.646  0.0963 -0.0502 -0.2116
 6726W        W22195   2.144   6.193  13.424  0.1454 -0.2395 -0.0100
 6727W        W22196  12.796   7.482  15.479 -0.1368  0.3318 -0.0567
 6728W        W22197   6.342  12.345   2.890  0.2224  0.0062 -0.0709
 6729W        W22198   1.785   8.277  11.226  0.1684 -0.4407 -0.1709
 6730W        W22199  13.017  12.147  11.280  0.0391  0.0848  0.0187
 6731W        W22200   7.599   7.173   3.797  0.3341 -0.1488 -0.0441
 6732W        W22201  12.771  15.364   2.236 -0.0596 -0.2125 -0.0170
 6733W        W22202  14.485   2.480  11.472 -0.1166  0.0827  0.1259
 6734W        W22203   3.714  14.718  14.174 -0.0811  0.0586  0.3300
 6735W        W22204   8.888   1.060  13.022 -0.2911  0.3410  0.0400
 6736W        W22205  16.737  10.820  15.735  0.2766 -0.4418  0.1952
 6737W        W22206  15.424   9.714  15.626  0.2915  0.1123  0.4191
 6738W        W22207   4.256  11.508  13.046  0.3141 -0.1334 -0.0171
 6739W        W22208   8.523  17.526  10.781  0.2760 -0.0848 -0.0242
 6740W        W22209  17.311  11.278   4.863 -0.0314  0.3148 -0.0890
 6741W        W22210   7.524   1.043   4.887 -0.1723  0.2240 -0.0961
 6742W        W22211   7.528   5.997   6.069 -0.0715 -0.1282  0.0423
 6743W        W22212   4.521  17.834   1.664 -0.0142  0.0831  0.0395
 6744W        W22213   7.641  14.236  14.558  0.0959  0.0639  0.5973
 6745W        W22214  14.301  16.371   4.423 -0.0925 -0.1351 -0.3438
 6746W        W22215  17.017  16.739   4.469 -0.1661 -0.1033 -0.3018
 6747W        W22216   4.732   5.357   5.321 -0.0644  0.0193  0.4897
 6748W        W22217   5.912  12.326  14.221  0.0351  0.0999  0.3555
 6749W        W22218   4.525   9.910   3.605  0.1643  0.0657 -0.0686
 6750W        W22219   3.216  14.157  12.927  0.1481 -0.1485  0.1366
 6751W        W22220   1.929   9.080  11.705 -0.1675  0.2667  0.0021
 6752W        W22221  11.724   5.860  15.315 -0.0967 -0.0414 -0.0990
 6753W        W22222   6.197   0.211  14.877 -0.2158 -0.1162  0.2243
 6754W        W22223  12.358   0.962   3.854  0.0951 -0.1032 -0.4107
 6755W        W22224   7.679   0.121   2.913  0.2649 -0.1660 -0.0212
 6756W        W22225   4.581  16.138  14.027 -0.1190 -0.1836  0.2604
 6757W        W22226  14.752  16.553   5.772 -0.0403 -0.3711 -0.0239
 6758W        W22227   3.635   4.540   2.265  0.0620 -0.0320  0.2547
 6759W        W22228   1.866   6.644   3.399 -0.2518  0.4407  0.0226
 6760W        W22229   9.169   0.843  13.375  0.0747  0.0608  0.1298
 6761W        W22230   4.359   0.080   5.251 -0.2253 -0.1273  0.0472
 6762W        W22231   5.349  15.307   0.246  0.1012 -0.1180 -0.1511
 6763W        W22232  16.748   9.948  11.705 -0.1792  0.2548  0.0079
 6764W        W22233  13.723  13.701   9.957  0.0287 -0.1758 -0.1073
 6765W        W22234   1.987   2.771   6.377 -0.1016 -0.2979  0.2205
 6766W        W22235   1.860   1.726  11.599 -0.0785  0.0920 -0.1033
 6767W        W22236  11.937  16.452  14.853  0.3133 -0.2423  0.0012
 6768W        W22237  11.946   8.350  13.011 -0.1857 -0.1809  0.1132
 6769W        W22238  10.650   4.180  13.209 -0.2221 -0.0403  0.2924
 6770W        W22239   9.134  10.018   5.151 -0.0101 -0.0892 -0.0009
 6771W        W22240   3.914   2.856  13.063 -0.2175 -0.2166 -0.1019
 6772W        W22241   0.377  16.547  11.434  0.1160 -0.0020  0.2074
 6773W        W22242   9.637   3.197   0.036  0.0554 -0.0240 -0.3457
 6774W        W22243  17.869  17.980   4.512 -0.0788  0.1138 -0.1373
 6775W        W22244   2.022   6.244   4.613  0.0325 -0.0274  0.1922
 6776W        W22245   6.193   2.452   0.878  0.2579 -0.2382 -0.0278
 6777W        W22246   4.649  10.811  13.071 -0.0382  0.0673 -0.0153
 6778W        W22247  17.455  13.176   3.170  0.0787 -0.2202  0.1410
 6779W        W22248   3.096   3.827   4.088 -0.1894 -0.0607 -0.1114
 6780W        W22249  13.851   3.232   0.367  0.1744  0.0567  0.0448
 6781W        W22250   7.792  11.825  12.141  0.3434 -0.1030 -0.1072
 6782W        W22251   2.159   0.367   3.992  0.0612  0.0342  0.2779
 6783W        W22252   5.078  14.326  11.150 -0.3932 -0.0918 -0.0195
 6784W        W22253  12.481   6.067   4.333  0.0174 -0.0374 -0.0441
 6785W        W22254   7.248  16.244   4.143 -0.1398 -0.0256 -0.2164
 6786W        W22255   1.200   1.328   0.601 -0.1552  0.1284  0.2180
 6787W        W22256   8.780  17.125   2.672 -0.1885  0.3763  0.1853
 6788W        W22257   0.848  13.138   1.456 -0.1019  0.1309  0.2055
 6789W        W22258   5.507   4.967  15.863  0.1970 -0.1142  0.3470
 6790W        W22259   5.822  14.542   2.605  0.0649  0.1735 -0.1912
 6791W        W22260  13.589  17.455   2.736 -0.1037  0.1337 -0.1032
 6792W        W22261   4.962  11.107   1.056 -0.0091 -0.1521  0.0288
 6793W        W22262   6.125  16.579   3.696 -0.2385 -0.1233  0.1416
 6794W        W22263   7.275  16.183  13.390  0.2429  0.0209 -0.0292
 6795W        W22264  11.070   0.948   3.979 -0.1668 -0.1243  0.1997
 6796W        W22265  10.323   1.622  15.520  0.3896  0.1110  0.0040
 6797W        W22266   8.160  13.475   0.369  0.1420  0.2423 -0.0804
 6798W        W22267   9.382   3.145   4.900  0.0821  0.3007 -0.1084
 6799W        W22268   5.831  11.658   5.036  0.1234  0.0370 -0.0917
 6800W        W22269  14.787   0.162   0.685 -0.1292  0.2492  0.0799
 6801W        W22270   7.920   8.745  11.674 -0.1448 -0.0973 -0.0109
 6802W        W22271   7.264  11.795  11.277 -0.1761  0.0775  0.0080
 6803W        W22272   7.965  13.511  14.829  0.1251  0.0086 -0.0402
 6804W        W22273  14.567   1.253  13.889  0.1896  0.1902 -0.1172
 6805W        W22274   0.432  16.853  14.686  0.3568 -0.2548  0.1008
 6806W        W22275   0.076   5.037  11.899  0.0824 -0.0668  0.1776
 6807W        W22276   9.325   5.006   5.531 -0.0570  0.1396 -0.0926
 6808W        W22277  15.201   1.828  14.974  0.2281 -0.2413 -0.2515
 6809W        W22278   3.932   8.097   5.039 -0.0017 -0.0150 -0.2124
 6810W        W22279   3.585  13.281   5.611  0.0056 -0.3602  0.2629
 6811W        W22280   5.594   9.890  11.733  0.1145 -0.0072  0.1164
 6812W        W22281   2.722   4.302  10.318 -0.3856  0.1262 -0.2659
 6813W        W22282   8.064   5.277  12.606  0.1345  0.2213  0.0026
 6814W        W22283   3.377   6.210   0.701 -0.0387 -0.0083 -0.2974
 6815W        W22284  13.755   8.722   4.669 -0.1704  0.1087 -0.1431
 6816W        W22285   7.590   7.286  12.665  0.2445  0.0451  0.3574
 6817W        W22286   0.087   5.213  13.215  0.0961 -0.0238 -0.1736
 6818W        W22287   6.359  13.628   2.117 -0.2139  0.3613  0.3004
 6819W        W22288  17.128  11.968  15.083  0.3021  0.1813 -0.1231
 6820W        W22289  13.714   1.151  13.857 -0.3116  0.0052  0.4298
 6821W        W22290  10.757  12.986  12.626  0.0070 -0.2231 -0.3270
 6822W        W22291  10.838  13.253   1.476  0.0885 -0.0966 -0.3402
 6823W        W22292   5.704   2.368   5.482  0.1428 -0.1541 -0.0889
 6824W        W22293   5.151  15.816   5.139 -0.1531  0.3138 -0.2488
 6825W        W22294  10.217   5.747   1.654  0.0519  0.1900 -0.3576
 6826W        W22295   0.733   8.642  15.780  0.0629  0.2182  0.5243
 6827W        W22296   6.305   4.807   5.920  0.0919 -0.3120 -0.0577
 6828W        W22297  11.057   9.001  10.288 -0.2873 -0.1031  0.1479
 6829W        W22298   6.645  14.536   3.230 -0.0990  0.1922 -0.3125
 6830W        W22299   3.928  13.193  15.994 -0.0922 -0.0276  0.0096
 6831W        W22300   2.121   6.913   0.441  0.0691  0.0422  0.0837
 6832W        W22301   7.350   6.202  14.122 -0.2849  0.2225  0.0251
 6833W        W22302   2.938  11.787   2.533 -0.1702  0.3455 -0.2032
 6834W        W22303   6.213  13.327   3.379 -0.0433  0.2908  0.2140
 6835W        W22304   2.765   8.635   4.697 -0.2188  0.1030  0.0282
 6836W        W22305   2.393   4.153  12.699 -0.5999 -0.0293  0.0275
 6837W        W22306   7.968  12.128  14.897  0.1178 -0.0278  0.1929
 6838W        W22307  12.625   0.985  14.625  0.2771 -0.1538  0.2351
 6839W        W22308  16.819  11.920  12.413 -0.1801  0.1359 -0.3199
 6840W        W22309   5.351  10.724  13.970  0.3980 -0.2505  0.0049
 6841W        W22310  13.941  10.022   4.967  0.4168  0.4627  0.1224
 6842W        W22311   4.354  18.050  13.311  0.0676  0.0089  0.0310
 6843W        W22312   6.256  15.017  12.897  0.1384 -0.0800 -0.2593
 6844W        W22313  14.926  17.932   3.613 -0.2502 -0.1316  0.0901
 6845W        W22314   2.291  13.780  12.535  0.2033  0.0017 -0.2486
 6846W        W22315  16.418   7.881   5.043  0.0797  0.4693  0.0294
 6847W        W22316   8.843  10.640  13.892  0.0437 -0.0949 -0.2292
 6848W        W22317   1.495  12.398  12.206 -0.0718  0.0974  0.0711
 6849W        W22318  13.185   9.589   5.613  0.1367 -0.0626  0.1909
 6850W        W22319  13.562  16.864  12.399 -0.1962  0.0975 -0.2362
 6851W        W22320  13.249  13.363  13.757  0.0828  0.2432  0.0916
 6852W        W22321  10.670   8.018   3.209  0.0964  0.1342  0.0183
 6853W        W22322  16.337   3.437   5.356 -0.1150 -0.0091 -0.1127
 6854W        W22323  14.563  12.944   2.731  0.0742 -0.2902 -0.2076
 6855W        W22324   8.898   2.795   0.897  0.3475 -0.1534  0.0695
 6856W        W22325   5.286  17.143   1.594  0.1063 -0.1683 -0.1446
 6857W        W22326  14.800  12.319   0.055 -0.0780 -0.0758  0.1015
 6858W        W22327   6.306   0.001  16.092 -0.0740 -0.0432 -0.2113
 6859W        W22328   1.210   5.442   0.912  0.2421 -0.1015 -0.0684
 6860W        W22329  15.008   2.391  14.347  0.0570  0.1129 -0.2998
 6861W        W22330   9.873  14.891   3.315 -0.0142 -0.2208  0.0246
 6862W        W22331   0.655  17.969   4.232 -0.0359  0.0585 -0.2683
 6863W        W22332   2.560  12.806   0.155  0.0812 -0.1937 -0.1688
 6864W        W22333   2.117  17.760  11.276 -0.2068 -0.1203 -0.2224
 6865W        W22334  12.089  17.483   3.652  0.0395 -0.3372 -0.1788
 6866W        W22335  14.824  16.858  14.589  0.1347 -0.0406 -0.0081
 6867W        W22336   1.918  16.357  12.903 -0.1040  0.2522 -0.0601
 6868W        W22337  14.971   1.901   0.856  0.0402 -0.1571  0.2406
 6869W        W22338  13.056   5.095  12.478  0.1504 -0.3424 -0.2840
 6870W        W22339  13.167   5.110   2.515  0.1678  0.1611  0.0035
 6871W        W22340   6.046  11.244   1.322 -0.0161 -0.0211 -0.0332
 6872W        W22341   3.744  15.795   1.187 -0.2723 -0.0232 -0.0952
 6873W        W22342  16.239   4.693  12.377  0.1971  0.0997  0.1352
 6874W        W22343   0.521   6.911   5.177 -0.1210  0.0458 -0.1817
 6875W        W22344   1.965   7.597  11.074  0.3432  0.0603 -0.0253
 6876W        W22345  12.976   1.001   0.980  0.1371 -0.2415 -0.1339
 6877W        W22346   7.949   8.493   2.027 -0.1060 -0.3180 -0.0310
 6878W        W22347   9.132   3.172   2.006 -0.0291  0.3568 -0.0259
 6879W        W22348   5.349   1.167   0.636 -0.1994 -0.1021  0.0581
 6880W        W22349  10.293  16.298  14.320 -0.4697  0.2956 -0.0260
 6881W        W22350   1.237  15.088  15.380  0.0888 -0.1259 -0.0137
 6882W        W22351  14.201  16.254   3.832  0.0693 -0.1350  0.2751
 6883W        W22352   7.808  15.846   3.999 -0.0241 -0.2406  0.1292
 6884W        W22353  17.057   4.774   1.999 -0.3805 -0.3291 -0.0164
 6885W        W22354  14.219   3.130   4.388  0.3327  0.3177  0.1992
 6886W        W22355  11.697   8.055   6.264  0.1514  0.2425  0.1883
 6887W        W22356  17.113  12.105  11.128 -0.0507 -0.0492  0.0746
 6888W        W22357  12.823   7.021   3.198 -0.2509 -0.1185  0.0323
 6889W        W22358   8.669  11.601   4.274 -0.0501  0.0754  0.0555
 6890W        W22359   3.645   1.615   0.624  0.1200 -0.2147 -0.1995
 6891W        W22360   8.045  16.067  13.065  0.2879  0.0330  0.1830
 6892W        W22361   3.896   4.812   0.563  0.0037 -0.2913 -0.1263
 6893W        W22362  15.219   7.793  13.013  0.2831 -0.0316 -0.0694
 6894W        W22363  14.435  11.458   5.103  0.1134 -0.0463  0.2435
 6895W        W22364  12.864  18.136   2.406  0.3505 -0.0418 -0.2217
 6896W        W22365   0.363   0.613  12.993 -0.0536  0.3474  0.0167
 6897W        W22366  10.439  15.419  15.784 -0.2042  0.2490  0.3850
 6898W        W22367  11.480   9.057   3.135 -0.1487  0.2289 -0.0093
 6899W        W22368  15.797   9.098  14.246  0.0209  0.1172  0.2033
 6900W        W22369  17.811  11.339   3.796  0.2356 -0.0321 -0.2623
 6901W        W22370  11.622   7.761  12.094  0.1475  0.0682  0.2480
 6902W        W22371  15.645  15.201  11.797  0.0841  0.0687 -0.1902
 6903W        W22372   2.423   6.977  12.018  0.1334 -0.0085 -0.0436
 6904W        W22373  13.653  13.067   1.693  0.3934  0.0184 -0.0785
 6905W        W22374   4.136  13.389   0.321  0.0841  0.0719  0.0305
 6906W        W22375  15.669   8.956  13.799  0.0628 -0.0529 -0.1074
 6907W        W22376   5.458   3.896  13.883  0.1494 -0.0600 -0.1665
 6908W        W22377  11.113   8.232   0.340  0.0895 -0.2302 -0.1113
 6909W        W22378   6.578   2.551   4.265  0.1775 -0.0619 -0.3112
 6910W        W22379   4.510  15.561   3.757 -0.4043 -0.0001  0.2088
 6911W        W22380   3.775  12.395   2.582  0.1262 -0.2126 -0.2667
 6912W        W22381   3.535   0.112  14.271 -0.1110  0.0295 -0.1341
 6913W        W22382   1.871   6.272   1.665  0.0733 -0.0792 -0.2117
 6914W        W22383   7.375  14.156  13.858 -0.2736  0.3625 -0.2728
 6915W        W22384   1.718  14.359   5.551 -0.0037 -0.1170 -0.0553
 6916W        W22385  11.953   3.953   5.823 -0.2642 -0.0417  0.1503
 6917W        W22386   6.185  13.012  13.046 -0.0676 -0.1008  0.2109
 6918W        W22387  11.372  10.494   2.707  0.1612 -0.0884  0.0947
 6919W        W22388   6.855   6.816  14.759  0.1116  0.0853  0.2801
 6920W        W22389  16.769  10.954   2.533 -0.2333 -0.0942  0.1249
 6921W        W22390   5.346   7.395   5.461  0.1232  0.0368  0.1120
 6922W        W22391   3.165   6.885   3.035  0.0827 -0.0022  0.2763
 6923W        W22392  12.136  10.530  11.460 -0.3823  0.1413 -0.2985
 6924W        W22393  13.706  13.344   4.203  0.1044 -0.0830  0.0819
 6925W        W22394   9.949   2.409  11.562  0.2469  0.2732 -0.0541
 6926W        W22395   5.258   1.952  10.523 -0.1494  0.0616 -0.0712
 6927W        W22396   5.979   3.621  11.280 -0.0769 -0.3572  0.3399
 6928W        W22397  15.697  16.058  13.734 -0.0734  0.0007  0.2424
 6929W        W22398  11.318  11.754  15.651  0.1115  0.0569 -0.0953
 6930W        W22399   7.269  12.185   0.386  0.2102 -0.0466 -0.2600
 6931W        W22400   7.712   9.295   3.310 -0.2289  0.3552 -0.1789
 6932W        W22401   3.469  10.742  11.263  0.2681  0.2360 -0.1671
 6933W        W22402   7.068  11.296   4.545  0.2855  0.1872 -0.1544
 6934W        W22403  11.775   5.305   2.599  0.1913  0.1085 -0.2715
 6935W        W22404  13.712  13.831  10.912  0.1365 -0.0128 -0.0587
 6936W        W22405  16.164  12.292   3.445  0.1136 -0.0731  0.1568
 6937W        W22406  18.017  17.963   5.916  0.0990  0.0221 -0.1324
 6938W        W22407   6.688   0.940  15.074  0.1616  0.1633  0.2195
 6939W        W22408  13.976  16.270  12.787  0.0933 -0.0647  0.3216
 6940W        W22409  14.683  10.876   3.742 -0.2125 -0.1653  0.0728
 6941W        W22410   5.702  13.571   4.501 -0.0927 -0.0505 -0.1866
 6942W        W22411  13.586  11.916  13.126 -0.0150 -0.4031  0.1231
 6943W        W22412  12.078  11.466  13.111 -0.2571  0.3428  0.1116
 6944W        W22413  11.873   9.169   3.476 -0.2344 -0.4674 -0.2032
 6945W        W22414   8.910  15.209  15.297 -0.3695 -0.2391  0.1616
 6946W        W22415  12.080   3.647  13.744  0.0031 -0.0127 -0.0931
 6947W        W22416  17.474  17.787  13.742  0.0898 -0.0904  0.2486
 6948W        W22417   9.106  17.253   4.604 -0.0448  0.0818 -0.1031
 6949W        W22418   3.454   1.368  15.366 -0.1168 -0.0612  0.2094
 6950W        W22419   8.626   0.740   3.969  0.1174 -0.1368 -0.2687
 6951W        W22420   1.944  10.646   3.342 -0.0788  0.0409  0.1066
 6952W        W22421  12.433   8.817   0.589 -0.3860 -0.1194 -0.0875
 6953W        W22422  12.289   8.918   2.599  0.1703 -0.2047  0.0493
 6954W        W22423  15.901   8.212   2.214  0.2708 -0.2406  0.0991
 6955W        W22424  12.432   9.821  12.651 -0.1001 -0.1129  0.1055
 6956W        W22425   7.936   7.631  10.717 -0.0618  0.0137  0.1701
 6957W        W22426   0.820   2.914   0.481  0.1965  0.0786  0.2667
 6958W        W22427   9.971   2.563  12.768 -0.3174  0.1133  0.0537
 6959W        W22428   1.699  13.909   5.353  0.0405  0.0328 -0.1378
 6960W        W22429   1.487   1.126  11.808  0.0094  0.1856  0.2496
 6961W        W22430   8.478  12.280  14.988  0.0107  0.1715  0.1257
 6962W        W22431   4.859   6.465   3.612  0.0854  0.1764 -0.3867
 6963W        W22432   2.435   1.880  12.314 -0.1970  0.0107  0.0160
 6964W        W22433   6.308   8.838  13.267  0.0886 -0.0936  0.2143
 6965W        W22434  13.237   5.178   4.867  0.4213 -0.0660  0.1039
 6966W        W22435  14.049  14.997  15.035 -0.1530  0.0811 -0.0996
 6967W        W22436   4.602   9.512   0.090 -0.0389  0.0580  0.0155
 6968W        W22437  14.166   0.744   1.020 -0.1464 -0.1624  0.1101
 6969W        W22438  11.638   7.581   2.204 -0.0534  0.1564 -0.1421
 6970W        W22439   0.878   2.097  13.334 -0.2186 -0.2380  0.4847
 6971W        W22440   4.026   8.524  13.128  0.0995  0.0746  0.0042
 6972W        W22441   5.596  13.424  10.437 -0.1472  0.2318 -0.0897
 6973W        W22442   4.815   4.128   4.666  0.1418  0.0462 -0.0607
 6974W        W22443   9.348  17.016  15.664 -0.0486 -0.0645  0.3770
 6975W        W22444   8.268  11.556  12.418  0.2793 -0.0321  0.3714
 6976W        W22445   7.447   9.466  11.962 -0.0085  0.0138  0.0896
 6977W        W22446   8.399  16.675   1.732  0.2177 -0.2065 -0.0936
 6978W        W22447   7.786  14.189  13.504  0.1498 -0.2840 -0.1087
 6979W        W22448  18.024  16.254  12.932  0.2071  0.1364 -0.1480
 6980W        W22449  13.906  17.705  13.555  0.0773 -0.0172 -0.0272
 6981W        W22450   1.498  15.558   2.290  0.2876 -0.1955  0.1157
 6982W        W22451   6.369   7.827   4.801 -0.1167 -0.3042  0.1779
 6983W        W22452  15.908   9.083   5.349 -0.4119 -0.1229  0.2032
 6984W        W22453   8.917  16.987  15.225 -0.3083 -0.0222  0.0206
 6985W        W22454  17.022  14.864   3.444  0.1014  0.1315 -0.2264
 6986W        W22455  15.855  17.076   0.286  0.1075  0.0760 -0.0621
 6987W        W22456   8.086  12.459   4.158  0.1299 -0.3961 -0.0144
 6988W        W22457   1.046   5.928   1.645 -0.1413  0.0240  0.1109
 6989W        W22458   6.957   9.217   0.459 -0.0337 -0.1205  0.0483
 6990W        W22459   2.067  11.956  15.883  0.0096  0.1154  0.1265
 6991W        W22460  15.734   0.783   4.573  0.0700 -0.0685  0.0189
 6992W        W22461   9.277   2.000  14.988 -0.1165  0.5011  0.4297
 6993W        W22462   6.644   5.776  13.327 -0.3593  0.0410 -0.0620
 6994W        W22463   6.988   5.996   0.260  0.0174 -0.0768 -0.0825
 6995W        W22464   2.508   0.952  14.874 -0.1326 -0.3553 -0.2599
 6996W        W22465  15.356  13.153  14.153  0.2353 -0.2384  0.1001
 6997W        W22466   8.338   8.001   2.248 -0.2051  0.2701  0.1198
 6998W        W22467  15.121   0.789  15.834 -0.1993  0.0262 -0.0149
 6999W        W22468   3.765  18.016  14.012 -0.3912  0.3036  0.0552
 7000W        W22469  10.441   7.604   4.488  0.0389 -0.1537  0.0644
 7001W        W22470  16.437   2.179   4.589  0.1400 -0.1825  0.0044
 7002W        W22471   6.903  13.874   1.388 -0.0354  0.1576  0.2002
 7003W        W22472   7.633  16.342  11.809  0.0231 -0.0344  0.0127
 7004W        W22473   5.140   0.706  12.256 -0.1142 -0.0667 -0.0150
 7005W        W22474   8.845   7.910   2.239  0.0756  0.0433 -0.0426
 7006W        W22475   6.728   2.716  14.037  0.1133 -0.0627  0.1303
 7007W        W22476  12.389  11.266   5.963 -0.0351  0.1541 -0.0453
 7008W        W22477   7.546  17.420  12.989  0.0937  0.4370  0.2550
 7009W        W22478   3.580   4.964  15.156  0.0607 -0.2509 -0.0225
 7010W        W22479   8.273   4.241   4.893  0.1322  0.2291 -0.0878
 7011W        W22480   2.422  18.008  15.608  0.1824 -0.0715 -0.1485
 7012W        W22481  16.170   5.308   3.616  0.1101  0.1290 -0.0789
 7013W        W22482  12.343   2.863  13.718  0.2525 -0.0334  0.1242
 7014W        W22483  12.677   5.184   0.013  0.3420 -0.2852 -0.1525
 7015W        W22484   5.543   0.904   1.418  0.0434 -0.0886 -0.2779
 7016W        W22485   5.899  18.028   1.460 -0.0186 -0.0659  0.1021
 7017W        W22486   0.168   3.052   1.045 -0.3207  0.0917 -0.1613
 7018W        W22487   8.779   2.530  12.087 -0.1640 -0.3497  0.1009
 7019W        W22488  16.476   6.483   4.753  0.0026 -0.0078  0.5064
 7020W        W22489   2.734   1.476   4.037  0.1757  0.3091  0.0889
 7021W        W22490  15.121  15.681   1.050 -0.1608  0.1854  0.0398
 7022W        W22491   3.122   0.186  15.557 -0.2450 -0.0758 -0.0083
 7023W        W22492   1.671   9.045   3.357  0.3925 -0.2570 -0.0311
 7024W        W22493  17.764  14.869   2.698  0.1482 -0.0859  0.1714
 7025W        W22494   3.340   8.493  14.740 -0.0038 -0.1728 -0.1375
 7026W        W22495   6.556  15.641  10.501 -0.0113 -0.2652  0.4980
 7027W        W22496   4.761   1.400   3.980 -0.1054 -0.0097 -0.1529
 7028W        W22497  17.706   0.800  13.884 -0.1198  0.4347 -0.1787
 7029W        W22498   2.730   5.401   4.735  0.4040 -0.0692  0.0681
 7030W        W22499   6.547   2.791  14.848  0.0058 -0.2800  0.1885
 7031W        W22500   0.097   8.706  12.584  0.2226 -0.1399 -0.1732
 7032W        W22501   6.886  16.829  11.067  0.0630 -0.1582 -0.2000
 7033W        W22502  10.056  16.393   2.905  0.0285  0.0018 -0.2578
 7034W        W22503   5.191   1.352   2.275 -0.2202 -0.3617  0.0108
 7035W        W22504   5.394  15.256   2.717 -0.0603  0.2105 -0.2409
 7036W        W22505  15.018  17.257  14.831  0.0484 -0.0147 -0.1035
 7037W        W22506  17.307  14.963  15.078 -0.0284  0.0868 -0.0868
 7038W        W22507  16.273   6.720  14.224  0.2207 -0.1574 -0.4431
 7039W        W22508   4.952  14.877   5.757 -0.1641 -0.0342  0.0035
 7040W        W22509  14.315   3.634   4.499 -0.0728 -0.1110 -0.1849
 7041W        W22510   5.566  17.104  11.215 -0.0191 -0.1063  0.1603
 7042W        W22511   3.956  14.066  15.074 -0.2110 -0.0688 -0.0638
 7043W        W22512   3.570  15.152   2.124 -0.0120  0.0790 -0.0008
 7044W        W22513   8.832  15.315  11.036  0.0510 -0.1187  0.1776
 7045W        W22514   0.597   2.902   4.004 -0.1172 -0.0255  0.3227
 7046W        W22515   2.166  18.275   6.044  0.1217  0.1068  0.0117
 7047W        W22516  18.225   2.122  15.493 -0.3602 -0.0483  0.1522
 7048W        W22517  15.794  16.525  11.952 -0.1772 -0.3320  0.1555
 7049W        W22518  17.279   4.180   2.271 -0.2514  0.2156 -0.1191
 7050W        W22519   8.160   4.620  11.762  0.3459 -0.2793  0.1101
 7051W        W22520   4.704  11.449  13.803  0.2647  0.2879 -0.1298
 7052W        W22521  13.690   3.082   5.080 -0.2466 -0.1068  0.1562
 7053W        W22522  16.440   2.670  14.329 -0.0088 -0.4228 -0.1125
 7054W        W22523  12.583  16.968   5.040 -0.1602 -0.1588 -0.0806
 7055W        W22524  17.700  16.330  11.366 -0.1690  0.0975 -0.0835
 7056W        W22525   9.502  11.710  11.055 -0.2214 -0.2007 -0.1089
 7057W        W22526   8.975   3.096  12.222 -0.0617 -0.2642  0.2346
 7058W        W22527   1.623   6.693   1.951 -0.1733 -0.0902  0.4453
 7059W        W22528   0.889  13.845   1.964 -0.0408 -0.4197 -0.0767
 7060W        W22529   6.458  10.815  12.949  0.1693  0.1051 -0.1314
 7061W        W22530  18.205   6.793   3.905  0.1331 -0.4909 -0.0167
 7062W        W22531   1.572  17.689   0.855  0.2114  0.2315  0.0354
 7063W        W22532  14.219  11.302   0.357  0.0641 -0.4311 -0.0915
 7064W        W22533   7.142   1.239  13.428 -0.1311  0.2653  0.3076
 7065W        W22534  13.934  11.051  16.016 -0.0503  0.1206  0.2567
 7066W        W22535   1.148   0.700  15.689 -0.2902  0.0430 -0.2941
 7067W        W22536   7.760   3.450  12.656  0.1321  0.2692 -0.0394
 7068W        W22537  12.548   3.549   0.916  0.1813 -0.1075 -0.2951
 7069W        W22538   7.719  17.345   4.782 -0.0874 -0.0703 -0.0955
 7070W        W22539   6.124   6.822  12.526 -0.1704 -0.2210 -0.2331
 7071W        W22540  10.779   2.974   3.850  0.2511  0.0524  0.2803
 7072W        W22541  10.575  13.873  11.490  0.1541  0.2756 -0.1729
 7073W        W22542   6.405  11.147   2.803 -0.1542  0.0447  0.0946
 7074W        W22543   6.054   6.144   1.521  0.3108  0.1298  0.2047
 7075W        W22544   1.329   4.240   0.847  0.1254 -0.2989 -0.0126
 7076W        W22545   6.863   9.460  11.105 -0.1059  0.2122 -0.2851
 7077W        W22546   9.132   8.422  11.111  0.0774 -0.2474 -0.1217
 7078W        W22547   8.332   3.487  15.160 -0.1643 -0.0025 -0.0245
 7079W        W22548  14.248  11.259  15.140  0.0286  0.0021  0.1469
 7080W        W22549  17.501  10.684  11.587  0.1663  0.0917 -0.2015
 7081W        W22550  10.084   0.620   1.361 -0.0049 -0.1526  0.1058
 7082W        W22551  13.479   6.141   1.154  0.0165  0.3565 -0.0266
 7083W        W22552   5.028   4.625   1.061 -0.2920 -0.1810 -0.0638
 7084W        W22553   4.939   3.540   2.878  0.1189 -0.1449 -0.1740
 7085W        W22554   5.606   4.016   0.516 -0.0059  0.3086 -0.2796
 7086W        W22555   8.360   2.589   3.009 -0.0949 -0.1421 -0.3277
 7087W        W22556   9.110  13.197  13.411  0.3017 -0.2283  0.2463
 7088W        W22557   0.662  17.074   2.677  0.0581 -0.0049 -0.0050
 7089W        W22558   0.405  10.101  14.805  0.0862 -0.1109 -0.3218
 7090W        W22559   0.712   1.086   5.879  0.1093 -0.0435  0.0641
 7091W        W22560  10.594   7.435  14.070  0.0437 -0.0848 -0.2230
 7092W        W22561  14.743  10.965   2.765 -0.2515 -0.1126  0.0316
 7093W        W22562  13.427  16.061   1.168  0.3300 -0.0194 -0.1310
 7094W        W22563   2.480   5.043   1.456 -0.1072 -0.2041  0.0683
 7095W        W22564   4.895  14.927  13.393 -0.0536  0.2798  0.4318
 7096W        W22565  14.516   7.347   4.071 -0.1319  0.2070  0.0370
 7097W        W22566  15.633  14.014   2.342  0.0364 -0.0185  0.0097
 7098W        W22567  15.380   3.538   0.145  0.2904  0.0772  0.2792
 7099W        W22568   2.177  15.848   5.647 -0.1179 -0.1501  0.3007
 7100W        W22569  12.806  13.748   1.167  0.1629  0.0755  0.0433
 7101W        W22570  10.073   4.002  13.987 -0.1847  0.0780 -0.1166
 7102W        W22571   2.201  10.476  15.153  0.1251  0.2882  0.1610
 7103W        W22572  17.473   0.540   5.588  0.2564  0.0346  0.1609
 7104W        W22573   4.438  12.035  12.266 -0.2325 -0.2202 -0.0617
 7105W        W22574   2.899  16.055   0.147 -0.0696 -0.1725  0.0827
 7106W        W22575   2.863   2.973   5.020 -0.0657  0.1414  0.2314
 7107W        W22576  18.181   6.786  14.047 -0.0046  0.2005  0.1112
 7108W        W22577   6.615   7.566  15.444 -0.1059 -0.1773 -0.1411
 7109W        W22578  17.885   3.232   4.798 -0.1783 -0.0494 -0.0151
 7110W        W22579   3.916   8.704  16.013 -0.3993 -0.1865  0.4911
 7111W        W22580  13.555   4.445  14.784  0.2572 -0.0695  0.1118
 7112W        W22581  18.020  12.168   5.345  0.0301 -0.1214  0.0062
 7113W        W22582  17.134  13.547  14.049 -0.0951  0.1105 -0.2267
 7114W        W22583  10.062  13.606  15.968 -0.2526  0.3487 -0.0423
 7115W        W22584  14.418   9.237   0.174 -0.0490 -0.2019  0.4167
 7116W        W22585   4.186  17.488  14.937  0.0164  0.0124  0.0303
 7117W        W22586   3.138   4.855   4.589 -0.1606  0.1799  0.0508
 7118W        W22587   4.775  16.000  12.771 -0.2376 -0.1284  0.0683
 7119W        W22588  14.360   7.928  12.858  0.1162 -0.0012  0.1876
 7120W        W22589  10.167   9.349  10.653 -0.2800 -0.0997  0.0618
 7121W        W22590   7.907  13.541  11.062  0.4162  0.1746 -0.1176
 7122W        W22591   3.332   4.468  12.417 -0.2049 -0.1554 -0.2323
 7123W        W22592   2.799  14.405  13.185 -0.0005  0.0581 -0.3160
 7124W        W22593  15.613   6.785  15.878  0.0132  0.0803 -0.0193
 7125W        W22594   4.428  15.625  14.745 -0.1026  0.0862 -0.0718
 7126W        W22595  10.736  10.236   2.287 -0.1134 -0.2650  0.0416
 7127W        W22596  13.323   1.328   1.210 -0.0392  0.3914  0.1080
 7128W        W22597   6.096  16.092  14.238  0.1693 -0.0664  0.0215
 7129W        W22598  16.749   6.143  15.594 -0.1548 -0.0164  0.2675
 7130W        W22599   7.762  14.956   4.718 -0.1407 -0.2457  0.1443
 7131W        W22600  11.562   3.220   4.202  0.2156  0.0589 -0.0697
 7132W        W22601   3.923   8.351  13.973  0.0381 -0.1438 -0.2018
 7133W        W22602  16.367  11.777  15.825 -0.0496 -0.0057  0.0998
 7134W        W22603  14.055   4.464  15.652 -0.0516  0.2083  0.1318
 7135W        W22604  13.207   6.583   4.508 -0.0851 -0.1802  0.0562
 7136W        W22605  14.185   7.747  12.016  0.0227 -0.0321  0.0930
 7137W        W22606   8.467   2.863  14.358 -0.1795 -0.0225 -0.1721
 7138W        W22607   9.681  13.703   4.383 -0.0521  0.0642  0.2275
 7139W        W22608   3.210   0.032  12.966 -0.1697  0.0775 -0.0363
 7140W        W22609   0.764   9.125   2.208 -0.0271  0.1329 -0.1109
 7141W        W22610   4.079  17.310   5.995  0.1418  0.1977  0.0606
 7142W        W22611   6.924  16.640   3.950 -0.1862 -0.0692 -0.1509
 7143W        W22612  15.875  10.866  12.309 -0.2270 -0.1244  0.0267
 7144W        W22613  11.428  12.822   5.007 -0.3210  0.0219 -0.0534
 7145W        W22614   7.030  11.216   1.496  0.1806 -0.1205  0.1600
 7146W        W22615  17.091   4.871  10.342  0.2600 -0.1107 -0.0459
 7147W        W22616  13.875   6.667   0.766 -0.4423 -0.0987  0.5432
 7148W        W22617  12.809  10.749   2.468 -0.0320  0.0902  0.0553
 7149W        W22618  12.606   7.886   4.658  0.2587 -0.0807  0.0371
 7150W        W22619  10.815   3.558  14.904  0.0782  0.1017  0.0122
 7151W        W22620  12.990   4.057   3.756  0.0210  0.0194 -0.2917
 7152W        W22621   4.465  16.619   3.618 -0.0959 -0.4512  0.2499
 7153W        W22622  14.787   8.012  14.277 -0.4061 -0.1013  0.0304
 7154W        W22623  16.288   2.826   0.277  0.0424 -0.1736  0.1508
 7155W        W22624  14.819   1.252  11.907 -0.0748  0.0774 -0.0516
 7156W        W22625   1.870   2.215   3.195 -0.1393 -0.0390  0.4270
 7157W        W22626  17.891  10.015   1.991 -0.1775 -0.1315  0.1816
 7158W        W22627   9.901  11.513  10.452  0.1177  0.1162 -0.0254
 7159W        W22628   3.938   3.713  12.742 -0.2987 -0.0390  0.0740
 7160W        W22629   0.411  14.535  15.164  0.0256  0.1553 -0.0232
 7161W        W22630   8.414  11.168  11.304 -0.3175 -0.0940  0.0776
 7162W        W22631   0.024   4.745   3.941  0.0426  0.3617  0.0743
 7163W        W22632  10.864   0.033  14.879  0.1534  0.1717 -0.0564
 7164W        W22633  14.520  15.194   0.707  0.0999 -0.4232 -0.1765
 7165W        W22634   9.723  16.446  12.530  0.1002 -0.1352 -0.0370
 7166W        W22635  14.140   5.681   0.860  0.2215  0.4000  0.1391
 7167W        W22636   5.977  12.207   0.317  0.2162 -0.0508  0.0332
 7168W        W22637  10.562   0.157  12.319 -0.0089  0.3449 -0.3284
 7169W        W22638   8.067  16.885  15.666  0.0038 -0.0491 -0.0563
 7170W        W22639   7.641  16.502   2.142  0.0817  0.1280  0.1588
 7171W        W22640  17.676   3.315   5.594  0.2336  0.2714 -0.3923
 7172W        W22641   0.815   3.429   4.400 -0.0070 -0.2683  0.0169
 7173W        W22642  15.063  10.182   4.746  0.0265  0.2106 -0.1442
 7174W        W22643  14.468   3.292  14.661  0.2074 -0.0671  0.1452
 7175W        W22644   2.554   5.897   5.511 -0.0975 -0.1862 -0.0750
 7176W        W22645  16.606  16.147   3.889 -0.0181 -0.0289 -0.0926
 7177W        W22646   1.436   9.183   5.422 -0.4069  0.2460 -0.1544
 7178W        W22647  12.095  17.784  13.528 -0.0589  0.0056 -0.0482
 7179W        W22648   6.065  11.379   4.622 -0.0301  0.1074 -0.1070
 7180W        W22649   3.513  17.394   4.038 -0.0008 -0.1453  0.0046
 7181W        W22650   4.859   0.114   2.540  0.1085 -0.1253 -0.0052
 7182W        W22651  16.426   7.836  13.833  0.2202 -0.2438  0.0859
 7183W        W22652   4.633  17.738  10.070  0.1357 -0.1221 -0.2585
 7184W        W22653   6.814  14.113   4.946 -0.0163 -0.2278 -0.0705
 7185W        W22654  14.587  14.230   4.011 -0.1081  0.1297  0.0306
 7186W        W22655   8.299  18.168  10.455 -0.0445  0.2525  0.2235
 7187W        W22656  11.730  13.692   4.342  0.2619  0.0645 -0.1665
 7188W        W22657   3.487  13.584  10.013 -0.0625  0.0185  0.0453
 7189W        W22658   3.772   2.728   2.198  0.0870 -0.3833 -0.1259
 7190W        W22659  11.390  13.886  13.927 -0.0056 -0.1549 -0.2570
 7191W        W22660  17.583   9.737   2.271  0.0634 -0.1407 -0.0807
 7192W        W22661  15.374  12.330   0.144 -0.0434  0.2038 -0.1061
 7193W        W22662   2.710  12.950  14.756 -0.2899 -0.2788  0.0139
 7194W        W22663   3.065  14.139   0.698  0.1258  0.0100  0.1244
 7195W        W22664  12.173  12.703  13.212  0.0028 -0.0234  0.1649
 7196W        W22665   7.503  10.035   2.099  0.1797  0.3301 -0.1998
 7197W        W22666   5.434   0.544  13.637  0.1403 -0.2295 -0.2911
 7198W        W22667   2.799   7.401   3.154 -0.0761 -0.3245 -0.0281
 7199W        W22668   8.711  16.124  10.868  0.1713  0.0012 -0.1654
 7200W        W22669   9.353   8.513   4.056 -0.1744 -0.1276  0.1472
 7201W        W22670  15.892   0.309   0.123 -0.1528 -0.3179  0.1100
 7202W        W22671   3.233  16.973  12.345 -0.0380 -0.0255 -0.0364
 7203W        W22672   2.295  14.025   2.389 -0.2973 -0.0974 -0.1540
 7204W        W22673  16.651   1.248  15.704 -0.0045 -0.0799  0.1718
 7205W        W22674   4.247  13.160   3.171 -0.1524 -0.2913 -0.1614
 7206W        W22675  14.105   0.297   6.570 -0.2429 -0.1142  0.0643
 7207W        W22676  14.605   0.278   4.720 -0.0075  0.0285 -0.0019
 7208W        W22677  16.156   0.412  13.829 -0.1126  0.0980 -0.2241
 7209W        W22678  14.288  16.510  13.820  0.0862  0.3838  0.0530
 7210W        W22679   8.959  10.335   4.795 -0.0219  0.1145 -0.2462
 7211W        W22680  16.833  16.567   3.829 -0.3041 -0.3601 -0.0207
 7212W        W22681  11.936   8.995   5.107  0.0390 -0.0076 -0.0289
 7213W        W22682   4.804   0.765  15.693 -0.2097  0.2196 -0.4473
 7214W        W22683   8.067  10.697   4.656 -0.0950 -0.1578  0.1020
 7215W        W22684   2.265  17.141   5.731 -0.1031 -0.1949  0.2192
 7216W        W22685  14.245   9.738  12.507  0.0522 -0.3214  0.2628
 7217W        W22686   4.514  10.166  14.932  0.1843  0.0327 -0.1177
 7218W        W22687  14.156   8.039  15.683 -0.0344 -0.1093 -0.1222
 7219W        W22688   3.919   3.300   1.467 -0.1466  0.2029  0.0392
 7220W        W22689   6.790  12.945  13.397  0.0390 -0.1433  0.0725
 7221W        W22690  10.626  11.642   3.325 -0.0445 -0.0106  0.1422
 7222W        W22691   7.005  12.279  11.449  0.2508  0.0416  0.3472
 7223W        W22692  10.229   1.643  12.635 -0.2646  0.3106 -0.2654
 7224W        W22693   7.433   9.174  14.709 -0.4139  0.0104  0.2945
 7225W        W22694   5.340   6.372  15.626 -0.3551  0.2265 -0.1253
 7226W        W22695  14.324   6.757   1.676 -0.0572  0.1673  0.2205
 7227W        W22696   4.667  15.757   3.181 -0.2275 -0.2111 -0.1567
 7228W        W22697  10.122   7.035   3.335 -0.1681 -0.1779  0.0824
 7229W        W22698  10.626  11.911   2.172  0.0451  0.0204  0.2198
 7230W        W22699   2.917  10.268   1.747 -0.1922 -0.0636 -0.0151
 7231W        W22700   2.689   6.943  15.901  0.1920  0.0805 -0.0775
 7232W        W22701  15.573   6.348  15.542 -0.0287  0.2361 -0.2875
 7233W        W22702   4.640  13.774   5.684  0.1920  0.0840 -0.2448
 7234W        W22703  17.944  16.650   3.400 -0.1063 -0.3385 -0.0664
 7235W        W22704  12.036   6.127   3.745 -0.0101  0.0111  0.0803
 7236W        W22705   4.769  18.057  15.956 -0.1100 -0.1727 -0.0862
 7237W        W22706  10.670  16.243  12.350 -0.0872 -0.2312  0.4724
 7238W        W22707   5.834   5.275   0.310 -0.2599  0.4428  0.0389
 7239W        W22708   0.270  13.129  14.514 -0.0673  0.2752  0.2479
 7240W        W22709   8.890  18.198   3.409  0.0339 -0.3293  0.0404
 7241W        W22710  11.378  10.465  11.663 -0.0309 -0.0781 -0.0685
 7242W        W22711   4.578   0.865   4.613  0.1112  0.1978 -0.0950
 7243W        W22712  13.549   6.737   0.364 -0.2828  0.1124  0.1624
 7244W        W22713  16.973  15.928   4.785  0.0331 -0.1452 -0.1864
 7245W        W22714  10.659   5.330  12.658  0.2556  0.0181 -0.0895
 7246W        W22715  10.154  15.492   5.147  0.4065  0.0337 -0.1783
 7247W        W22716  13.540  17.943   4.574  0.0667  0.0209  0.0741
 7248W        W22717   1.021  14.299  14.284  0.2918  0.1533 -0.0186
 7249W        W22718  15.223  16.952   0.808 -0.1835  0.1700 -0.3150
 7250W        W22719  12.344   6.395  11.558  0.1115 -0.4681  0.0144
 7251W        W22720  13.631   2.651   3.334  0.0283 -0.0639 -0.1796
 7252W        W22721   8.189   2.568  14.720  0.1361  0.0398 -0.3115
 7253W        W22722  11.479   7.069  16.071  0.0365 -0.2795 -0.0234
 7254W        W22723   7.732   7.422   4.991  0.2929  0.2238 -0.0705
 7255W        W22724   0.063  16.373  13.672  0.0295 -0.1580 -0.2423
 7256W        W22725  16.396   7.950  14.712  0.2673  0.0785  0.2496
 7257W        W22726   2.364   6.186  13.969 -0.3469  0.0801 -0.0208
 7258W        W22727  18.104  13.013   0.453 -0.2197 -0.2091  0.1684
 7259W        W22728  15.453  16.043   2.400  0.5112  0.0150 -0.1619
 7260W        W22729   0.986   7.257   2.486  0.1219 -0.4905 -0.0700
 7261W        W22730  13.551   0.791   5.027  0.1984 -0.1471 -0.2844
 7262W        W22731  10.383   9.489   3.091 -0.2097  0.0358  0.0227
 7263W        W22732  15.947  14.430   2.363 -0.0068  0.3025 -0.1571
 7264W        W22733   4.143   6.677   2.295 -0.0370  0.1003  0.1876
 7265W        W22734   7.515  17.722  13.430 -0.0851 -0.1804 -0.1993
 7266W        W22735   8.262  15.552  11.465  0.3105 -0.2609 -0.1312
 7267W        W22736   0.802  11.001  12.318  0.0111 -0.0066 -0.4017
 7268W        W22737  11.483  14.791   3.647 -0.1583  0.1962  0.1588
 7269W        W22738   7.092   1.953   0.592  0.0471 -0.2171 -0.0944
 7270W        W22739  11.018  14.908   1.947  0.0198 -0.0469  0.2048
 7271W        W22740  13.033  16.752  15.675 -0.1642 -0.1363 -0.0181
 7272W        W22741  17.362   1.277  15.601  0.0726 -0.0103 -0.0311
 7273W        W22742   2.432   6.929  15.463  0.0755  0.1724 -0.0065
 7274W        W22743  15.588  14.226   4.063  0.1200  0.0517  0.1157
 7275W        W22744   0.226  12.895   5.063 -0.2850 -0.2126 -0.1681
 7276W        W22745   8.353   8.570  10.037  0.1218 -0.1967  0.1907
 7277W        W22746  16.489   5.273   2.437 -0.1024  0.2264  0.0132
 7278W        W22747   8.980   1.953   4.010  0.1109  0.1551  0.3680
 7279W        W22748  17.520   1.909  11.668 -0.3877 -0.1143  0.1477
 7280W        W22749  12.100  16.060  12.084  0.0793  0.1676  0.1034
 7281W        W22750  14.123  12.304  14.374 -0.3658  0.0668 -0.2892
 7282W        W22751  10.971   5.424  15.359  0.2619 -0.0916  0.1141
 7283W        W22752  10.308   3.482  12.564 -0.0465  0.2720 -0.0886
 7284W        W22753  14.819   3.252   3.743  0.2883  0.0936  0.1784
 7285W        W22754   1.503   6.869   4.271  0.3735  0.0889  0.3382
 7286W        W22755   3.696   3.889  11.817 -0.0084 -0.0973  0.1606
 7287W        W22756  14.402  13.704   3.244 -0.2147 -0.3384  0.1794
 7288W        W22757  14.639   1.383   5.307  0.5515  0.2054 -0.1724
 7289W        W22758   2.284  14.555   2.509  0.2757  0.0817  0.0166
 7290W        W22759  12.126   8.802   2.027 -0.0713  0.2428  0.1266
 7291W        W22760   1.533   6.223   5.350  0.2851  0.1698 -0.2425
 7292W        W22761  11.390   1.269  14.793  0.0678  0.3255 -0.2230
 7293W        W22762  10.439  18.097   0.364  0.3748 -0.2329  0.3934
 7294W        W22763   0.625  11.419  13.579 -0.0555  0.0711 -0.0457
 7295W        W22764   2.087   7.979   3.263 -0.1197  0.1916 -0.0986
 7296W        W22765   0.066  17.038  15.093  0.1050  0.1614  0.0316
 7297W        W22766  16.182   2.929   4.225  0.0648  0.1928  0.2439
 7298W        W22767  10.187   1.438   5.153 -0.0024 -0.3433 -0.2208
 7299W        W22768  13.170   4.326   0.067 -0.0980 -0.1414  0.0838
 7300W        W22769  17.839  16.701  13.031  0.1435 -0.0136 -0.0013
 7301W        W22770   7.123   7.596  10.659 -0.0965 -0.0608 -0.3866
 7302W        W22771  11.741   6.894   5.470  0.1907  0.0275 -0.0764
 7303W        W22772   1.326  12.014   2.972  0.1213 -0.3252 -0.4276
 7304W        W22773   9.817   3.895  12.843 -0.1498 -0.0452 -0.0956
 7305W        W22774  18.008   4.227  14.693 -0.3543 -0.1626  0.1103
 7306W        W22775  10.802  13.745   1.337  0.1537  0.1870 -0.1362
 7307W        W22776  15.396   8.870  14.255 -0.0148 -0.0700  0.0450
 7308W        W22777   2.001   5.505  12.204 -0.0038 -0.3063  0.2257
 7309W        W22778   0.419  12.553  14.259 -0.1749  0.3309  0.1406
 7310W        W22779  15.555   9.380   0.385  0.3075 -0.0585  0.0929
 7311W        W22780  12.070   9.280  10.406 -0.0006  0.0305  0.3516
 7312W        W22781   6.039  16.107  15.963 -0.1455  0.2997  0.0344
 7313W        W22782   3.466  11.206   1.159  0.0469 -0.2563  0.0857
 7314W        W22783  10.599   0.940  15.588 -0.2713  0.0567 -0.1373
 7315W        W22784   8.074  13.009   1.378  0.0641 -0.0410 -0.2991
 7316W        W22785  14.559  12.981  13.826  0.1056 -0.0313  0.0442
 7317W        W22786   9.268   6.150  15.050 -0.0184 -0.0783 -0.1419
 7318W        W22787  12.000   6.306  15.829  0.1171  0.1491 -0.2358
 7319W        W22788   4.917  10.510  13.416  0.2668 -0.0772 -0.0614
 7320W        W22789   8.754  18.278   5.069 -0.2753  0.2184  0.1672
 7321W        W22790  12.586   7.574   5.250 -0.0752  0.0683  0.0753
 7322W        W22791   0.924  12.497   5.201 -0.2150  0.0093  0.2251
 7323W        W22792  17.613  10.315  11.995  0.0522  0.3499 -0.5143
 7324W        W22793  16.950  16.290   1.050 -0.1738 -0.0331 -0.1260
 7325W        W22794   3.846  10.046   0.292  0.3102 -0.2356  0.1186
 7326W        W22795   3.006   3.061  14.085 -0.1867 -0.1874  0.1538
 7327W        W22796   7.666   9.046  13.912  0.2601 -0.0218  0.0060
 7328W        W22797  17.487  15.408  15.226 -0.1585 -0.0063 -0.0128
 7329W        W22798   4.909   0.297  15.604  0.1189  0.0487 -0.0911
 7330W        W22799  11.777   4.407   5.580  0.2507  0.1141  0.1958
 7331W        W22800   5.969   5.356   5.046 -0.1150 -0.2022 -0.0133
 7332W        W22801  11.592  10.127   3.832  0.0308  0.4175 -0.0052
 7333W        W22802  11.907  13.207  14.090 -0.2800 -0.0015  0.1695
 7334W        W22803   9.445   5.103  11.042  0.0386  0.1155  0.0851
 7335W        W22804   1.937  12.713   5.777  0.2294 -0.2742 -0.2538
 7336W        W22805   1.483   8.794   0.205  0.2152 -0.1184  0.0196
 7337W        W22806  17.937   1.234  12.283 -0.0473 -0.4785  0.1209
 7338W        W22807  11.064  17.166   0.382 -0.3292  0.1946  0.0821
 7339W        W22808   2.822  11.466   5.724 -0.0922  0.2800 -0.1178
 7340W        W22809  13.847   7.176   4.929  0.0000  0.1245  0.1909
 7341W        W22810   3.326   1.449   0.976  0.3227 -0.2183 -0.4049
 7342W        W22811  13.424  17.010   3.787  0.0726 -0.2236 -0.1854
 7343W        W22812   8.005   5.424  12.151 -0.1451 -0.0560 -0.0989
 7344W        W22813  18.075  14.544  14.468 -0.1660 -0.0965  0.0551
 7345W        W22814  16.468   6.998  11.744 -0.0358  0.2000 -0.0647
 7346W        W22815   0.617  17.068   5.246 -0.2338  0.0506 -0.0159
 7347W        W22816  12.230  12.838  14.052  0.1683  0.1156  0.0601
 7348W        W22817   4.810  18.082   0.676  0.4284  0.2238  0.1121
 7349W        W22818   7.666  14.655   2.518  0.0406 -0.3019 -0.0209
 7350W        W22819   1.900  14.926   5.531 -0.6062 -0.1533  0.1345
 7351W        W22820   0.623   5.868  13.142 -0.1156  0.1241  0.2786
 7352W        W22821   3.764  10.346  11.482 -0.0328  0.0507  0.0756
 7353W        W22822  14.570  11.280   1.924 -0.1175 -0.0369  0.2361
 7354W        W22823  11.087   0.940   5.019  0.1302  0.1164  0.2487
 7355W        W22824   4.038  13.651  14.347  0.0732  0.2896 -0.1266
 7356W        W22825   3.772   8.709   4.098  0.0573 -0.0297  0.0275
 7357W        W22826   8.836   4.675   2.957  0.0826 -0.1325  0.1095
 7358W        W22827  13.425  16.233   4.505  0.1977 -0.0602 -0.0196
 7359W        W22828  15.388  12.443   0.653 -0.0390 -0.2463 -0.3430
 7360W        W22829   3.463  12.027   5.307 -0.2315  0.1095 -0.0872
 7361W        W22830   1.565  15.149   1.541  0.0058  0.1867  0.0762
 7362W        W22831  16.664  13.715   5.990  0.1968  0.0648  0.0538
 7363W        W22832   1.443  10.522  16.073  0.0195  0.0901 -0.0747
 7364W        W22833   9.523   4.386   4.247  0.0830 -0.0835 -0.1136
 7365W        W22834   8.112  17.312   5.803 -0.1527  0.1496 -0.1844
 7366W        W22835  14.483   2.298   4.699  0.0928  0.1791  0.0917
 7367W        W22836  16.973  15.956   4.261  0.0936 -0.0203 -0.0580
 7368W        W22837  15.415   2.753   3.998  0.1393  0.0244  0.1317
 7369W        W22838   8.280   2.049  11.633  0.5378  0.1648  0.0516
 7370W        W22839   6.633  12.542   1.523 -0.1720  0.1072  0.0744
 7371W        W22840  16.285  17.907   4.982  0.0432 -0.1180 -0.2478
 7372W        W22841   9.798  17.778   0.838 -0.1214  0.1424 -0.2684
 7373W        W22842  13.640   9.028  14.473  0.0224  0.1577 -0.1056
 7374W        W22843   1.706  13.000  14.801 -0.0169 -0.0145 -0.0216
 7375W        W22844   0.702   0.316   1.243  0.0405 -0.0579  0.3353
 7376W        W22845   5.854   1.911   1.748 -0.2123  0.0694  0.3272
 7377W        W22846  13.067   7.437   5.297 -0.0942 -0.2683  0.1813
 7378W        W22847   8.808   2.282   0.988  0.1482 -0.0834 -0.0446
 7379W        W22848   4.392   8.614   2.998 -0.2149  0.2094 -0.1344
 7380W        W22849  15.657  18.161   2.860 -0.1357 -0.1714  0.0288
 7381W        W22850   7.275   4.411  11.111 -0.2287 -0.1493  0.1358
 7382W        W22851  13.109  15.753   1.406  0.1628 -0.0671 -0.3512
 7383W        W22852   8.786   0.296   3.679  0.1274 -0.1617  0.0511
 7384W        W22853   8.428  14.167  14.012  0.2070 -0.3241 -0.3146
 7385W        W22854  13.261   4.682   2.849  0.0173  0.2050  0.1028
 7386W        W22855   8.352   4.008   3.307 -0.0102  0.1075  0.1351
 7387W        W22856  15.067  14.871  16.037 -0.3753  0.3998 -0.0271
 7388W        W22857   3.197  11.413   0.760 -0.1006 -0.1538 -0.0771
 7389W        W22858  12.881   6.792  13.604  0.0236  0.0078 -0.1338
 7390W        W22859   5.462  16.159  14.005  0.0093 -0.0487 -0.0880
 7391W        W22860   1.615  11.545  11.565 -0.2323  0.0401 -0.2386
 7392W        W22861   9.925   0.218   4.482  0.1555  0.1346 -0.3374
 7393W        W22862   4.379  13.696   4.089 -0.1696 -0.0086  0.2235
 7394W        W22863  13.792  15.996  11.475 -0.2801  0.0440 -0.2627
 7395W        W22864   4.998  13.529  11.322 -0.0619 -0.2818  0.2083
 7396W        W22865  17.994  10.954   4.541  0.1043  0.0866 -0.0298
 7397W        W22866   5.246  17.992  10.855 -0.0898 -0.0418  0.1676
 7398W        W22867   9.219   2.483  14.357 -0.1483  0.3050  0.0726
 7399W        W22868   2.548  17.569  12.753 -0.0377 -0.1477  0.1328
 7400W        W22869  17.532  13.267   4.639 -0.0308 -0.3414  0.2376
 7401W        W22870   4.321   2.574  13.147  0.0824 -0.0878 -0.3752
 7402W        W22871  14.546  10.091  12.145  0.0411 -0.0584  0.1516
 7403W        W22872  17.266   0.992   5.652 -0.0226 -0.2403 -0.0827
 7404W        W22873   3.757   6.046   5.907  0.1575 -0.0354 -0.0855
 7405W        W22874  14.761  11.494  14.415 -0.2942 -0.2263 -0.1039
 7406W        W22875  15.806   4.400   2.096  0.0720  0.1568 -0.0462
 7407W        W22876  18.000   0.766   5.294 -0.2928  0.1619 -0.0497
 7408W        W22877  13.101  11.581  14.981  0.0504 -0.1284  0.0710
 7409W        W22878   5.693   2.534  11.691  0.0874  0.0828  0.1967
 7410W        W22879   5.688  15.902   1.049 -0.2241 -0.0929  0.0329
 7411W        W22880   8.233  13.764  15.635 -0.1095 -0.1030  0.0741
 7412W        W22881   8.657   1.852  16.010 -0.0906  0.0209  0.1840
 7413W        W22882   6.872  10.289   2.699  0.2947  0.1061  0.1093
 7414W        W22883  15.901   8.674  15.897  0.0400  0.1440  0.0203
 7415W        W22884   4.787  15.677   2.661 -0.2334  0.1091 -0.0369
 7416W        W22885   8.571  16.871   4.394 -0.1502  0.1560 -0.0214
 7417W        W22886  11.407   9.610   4.675  0.0074 -0.0691 -0.0618
 7418W        W22887   8.485  10.262   3.177 -0.1553 -0.0159 -0.3070
 7419W        W22888   0.099   4.408  12.367  0.2206 -0.0436  0.1241
 7420W        W22889   9.307   1.905   2.143 -0.1822  0.1063 -0.2069
 7421W        W22890   4.781   8.157   4.915 -0.1308 -0.1446 -0.0618
 7422W        W22891   2.389  14.938   5.579 -0.2243  0.0887  0.1841
 7423W        W22892  13.731  15.376  15.080  0.2316 -0.1326 -0.0422
 7424W        W22893  16.030   9.037  14.751 -0.1467  0.0262 -0.2166
 7425W        W22894  11.998   5.591   2.224  0.0557  0.2495 -0.1035
 7426W        W22895   3.000   9.356  13.485 -0.0483  0.1998  0.1245
 7427W        W22896  12.695   1.942  15.194 -0.1232 -0.0081  0.1066
 7428W        W22897   5.859  14.330   4.729 -0.1202 -0.1874  0.1725
 7429W        W22898  14.019  15.219  12.475  0.2819  0.0785 -0.1381
 7430W        W22899  10.331   6.985  14.377 -0.0657 -0.0416 -0.1588
 7431W        W22900   7.140   9.202   5.267  0.1056 -0.0898  0.1875
 7432W        W22901   0.313  14.817  13.247 -0.1400  0.2772 -0.0636
 7433W        W22902  14.956  11.842  14.716  0.0653 -0.0161 -0.0718
 7434W        W22903   0.049   6.649   0.321  0.3931 -0.0982 -0.1451
 7435W        W22904   4.677  11.574   1.745  0.2836  0.1815 -0.0946
 7436W        W22905  13.366  12.125  11.650 -0.0421 -0.1058  0.1020
 7437W        W22906   9.772   3.685  13.351 -0.3687 -0.1692  0.1777
 7438W        W22907   6.968  14.238  13.597  0.1814  0.1181  0.2192
 7439W        W22908  17.931  10.210  15.699  0.0551 -0.0513 -0.0182
 7440W        W22909   5.334  12.016   4.268 -0.0682  0.2282 -0.2963
 7441W        W22910   0.414   5.766  14.866  0.0276  0.1664  0.1650
 7442W        W22911  14.680   6.811   5.303  0.0606  0.0038 -0.2646
 7443W        W22912   4.764  12.908  11.885 -0.3139  0.2558  0.1377
 7444W        W22913  15.158  15.993   4.568 -0.1315  0.0738 -0.1318
 7445W        W22914   3.092  10.943  16.040  0.1152  0.1819 -0.1433
 7446W        W22915  16.986  13.001  10.149 -0.2740 -0.0020  0.2647
 7447W        W22916   0.782   6.130   3.094  0.2467 -0.0477  0.1393
 7448W        W22917  10.328   6.294   4.880  0.0939 -0.1695  0.1054
 7449W        W22918  11.657  15.910   1.037 -0.0000 -0.1237  0.0775
 7450W        W22919  10.712  16.917  11.190 -0.0453 -0.1471 -0.0643
 7451W        W22920   4.276  15.452  11.622  0.1257  0.0636 -0.1253
 7452W        W22921   1.923  11.830  15.439 -0.5805 -0.2524 -0.0291
 7453W        W22922   6.713  13.340   0.454  0.1435  0.1378  0.0361
 7454W        W22923   5.851  17.880  15.310 -0.1914 -0.0102  0.1855
 7455W        W22924   8.171   4.963   1.559 -0.1565  0.0122  0.0505
 7456W        W22925  15.576   2.291   3.489 -0.2919 -0.1763 -0.0010
 7457W        W22926  17.072  12.346  13.160  0.1421  0.2097 -0.1535
 7458W        W22927  15.269   6.918  12.152 -0.0658  0.0146 -0.0719
 7459W        W22928   3.249  14.171   4.908 -0.1175 -0.0579 -0.0903
 7460W        W22929  13.044  11.827  10.377 -0.0759  0.1365 -0.0077
 7461W        W22930  13.135   2.804   3.799  0.0379  0.0529  0.1065
 7462W        W22931  15.942   7.480   0.103 -0.0476  0.1606 -0.2437
 7463W        W22932   9.824  15.132   4.407  0.3637 -0.2227 -0.2014
 7464W        W22933   3.370   4.834   5.095  0.1978 -0.0942  0.0899
 7465W        W22934   8.888  17.535  13.058 -0.1075 -0.0586  0.2551
 7466W        W22935  10.330  15.090   3.302  0.1628  0.3188  0.2337
 7467W        W22936   7.050   1.228   4.712 -0.0458  0.1035 -0.3677
 7468W        W22937   9.217  13.763  12.455 -0.1139 -0.0897  0.2896
 7469W        W22938   8.851   6.575  14.527  0.1671 -0.4482  0.0246
 7470W        W22939   4.501  11.983  14.928  0.0203 -0.1262  0.0957
 7471W        W22940   5.751  12.776  12.686 -0.1106  0.1866  0.0103
 7472W        W22941   9.687   5.954  13.311  0.3068 -0.1285  0.1827
 7473W        W22942   9.679  17.291  12.344 -0.0255  0.0218  0.0070
 7474W        W22943   4.604   7.771   2.638  0.1031 -0.1022  0.0322
 7475W        W22944  11.214   6.998  11.281  0.1457  0.2833  0.1606
 7476W        W22945  11.785  10.685  12.682  0.1078  0.0406 -0.0649
 7477W        W22946  17.051  14.277   4.646  0.5549 -0.0217 -0.1280
 7478W        W22947  15.031   8.630  15.967 -0.0456 -0.2095 -0.3158
 7479W        W22948  15.005   9.363  10.849 -0.3215  0.0976 -0.0136
 7480W        W22949   9.754  12.529   0.412  0.0229  0.1365 -0.1139
 7481W        W22950  12.338   3.341   3.548  0.0481 -0.3454  0.1251
 7482W        W22951   1.293   6.405   1.750  0.1568 -0.1784 -0.1273
 7483W        W22952  11.842   6.800  14.260  0.4026 -0.0660 -0.1069
 7484W        W22953  15.059  10.131  15.290  0.2598  0.1904 -0.0209
 7485W        W22954  10.562   4.679   0.059  0.1299 -0.1122  0.0106
 7486W        W22955   1.288   2.778  10.201  0.2262 -0.2342 -0.0568
 7487W        W22956   7.117  18.139  15.181  0.1032 -0.1261 -0.0017
 7488W        W22957  17.719  12.978  14.177 -0.0399 -0.0647 -0.1103
 7489W        W22958   2.694   6.491  13.205 -0.0794  0.0476  0.2331
 7490W        W22959  12.101  17.618   0.089  0.2300  0.2186  0.2875
 7491W        W22960   0.284   9.167  10.015 -0.1397 -0.0793  0.1725
 7492W        W22961   8.247   6.291   2.033 -0.2241 -0.0355 -0.0026
 7493W        W22962   9.789   8.023  12.265 -0.0725 -0.0988 -0.1258
 7494W        W22963  16.937   5.613   3.946 -0.1353  0.0587  0.0429
 7495W        W22964  16.893   0.135   0.067  0.1269 -0.0396 -0.2737
 7496W        W22965  13.044  15.098  13.990 -0.1978  0.0252  0.1680
 7497W        W22966   4.253   6.054   4.174 -0.0501 -0.1254  0.2619
 7498W        W22967  18.265  16.937   1.319  0.0328 -0.0061  0.2057
 7499W        W22968   0.514  18.040   0.194  0.0106 -0.2356  0.1645
 7500W        W22969  13.112   8.033  11.171  0.2644  0.3208 -0.1144
 7501W        W22970  14.380   9.945   0.723 -0.0727  0.0244 -0.0299
 7502W        W22971  11.213   8.605  10.468  0.1018 -0.0098  0.0267
 7503W        W22972   4.546  15.898   0.246  0.0744 -0.1878 -0.2517
 7504W        W22973   9.614  18.276   2.427 -0.0190 -0.0848 -0.2204
 7505W        W22974   9.318   7.660   3.144 -0.1673  0.3109 -0.1366
 7506W        W22975   5.217  18.166   3.779  0.4682  0.1505 -0.0750
 7507W        W22976   1.378  18.242  14.640 -0.2625  0.1094  0.3541
 7508W        W22977   3.424   6.814   5.934  0.0908  0.0610  0.1666
 7509W        W22978  11.337   4.143  15.144  0.0108 -0.0389 -0.1235
 7510W        W22979   7.872  18.057   4.729  0.0591 -0.3500  0.5407
 7511W        W22980  16.344  14.095  11.976  0.1483 -0.0133  0.3666
 7512W        W22981   1.444   2.958   5.097  0.0087 -0.0638 -0.2109
 7513W        W22982  15.356   4.400  12.880 -0.2210 -0.1270 -0.2039
 7514W        W22983  13.847  12.016   3.822  0.1804  0.0083  0.2455
 7515W        W22984   0.192  14.176   2.695  0.0129  0.0679 -0.2830
 7516W        W22985  11.769   1.149   0.267 -0.0210 -0.4202  0.0245
 7517W        W22986  14.902   6.743  12.961  0.2416 -0.0328  0.0016
 7518W        W22987   1.233   5.489  11.979 -0.1172 -0.1136 -0.1216
 7519W        W22988  10.902  13.296   0.617  0.2677 -0.0396 -0.0226
 7520W        W22989  12.636   8.977   1.798  0.0094  0.1052 -0.2499
 7521W        W22990   4.364  16.008  10.762 -0.0482  0.4740 -0.0913
 7522W        W22991  11.281   2.666   5.103 -0.1583  0.1396  0.0234
 7523W        W22992   9.989  15.926   3.493  0.1031  0.1280  0.0010
 7524W        W22993  12.738   8.341   5.477 -0.3318  0.3148 -0.3081
 7525W        W22994  15.693  17.035   1.002  0.2747 -0.3696 -0.2760
 7526W        W22995  14.133   5.399  13.328  0.0699  0.1511  0.2953
 7527W        W22996  15.012   3.085  15.503  0.0519 -0.0485 -0.1207
 7528W        W22997  17.334   3.370   2.452  0.0633  0.0590  0.0856
 7529W        W22998  13.379  12.037  13.573 -0.0554 -0.1208 -0.1860
 7530W        W22999   1.356  15.267  14.490 -0.0129  0.1757  0.2550
 7531W        W23000  18.285   9.983  13.904  0.0654 -0.4101 -0.2747
 7532W        W23001   7.565  18.137   1.392 -0.0590 -0.1506 -0.1067
 7533W        W23002   8.747   0.603  13.354  0.0259  0.1369 -0.1212
 7534W        W23003   0.621   4.036   5.892 -0.1288  0.0615  0.0231
 7535W        W23004   8.560   7.481  14.841  0.0770 -0.1658 -0.3013
 7536W        W23005   1.549  16.246   4.029  0.0433  0.1878  0.0139
 7537W        W23006   0.737  18.115   2.491 -0.0985 -0.3952 -0.0574
 7538W        W23007   0.201   3.281  11.534  0.2540 -0.0123  0.1633
 7539W        W23008  15.898  14.734   4.030  0.1312  0.0216 -0.0807
 7540W        W23009  15.635  10.435  12.449  0.0358  0.1079  0.4167
 7541W        W23010   4.181  10.968  13.019 -0.2440  0.1778 -0.1904
 7542W        W23011   6.701  14.912  10.938  0.1781  0.1376 -0.2008
 7543W        W23012  16.963  12.753  11.829 -0.1052  0.0229 -0.0306
 7544W        W23013  10.809   9.302  11.719 -0.4478  0.2592  0.0117
 7545W        W23014  17.021   5.341  16.042  0.0121 -0.1860  0.0376
 7546W        W23015   7.847  10.715  15.552 -0.2193 -0.2692  0.1309
 7547W        W23016  18.108   0.522  14.549  0.0984  0.1650  0.1775
 7548W        W23017   2.330   0.740   0.534 -0.1243  0.0645  0.1688
 7549W        W23018  14.230   4.567  14.633 -0.1751  0.1278  0.0695
 7550W        W23019   8.759   3.379   2.344 -0.2262 -0.2447 -0.0609
 7551W        W23020   9.894  11.936  12.316  0.0492  0.3139  0.1295
 7552W        W23021  14.500   1.723  15.648  0.2201 -0.0925  0.0326
 7553W        W23022  13.048  14.017  11.988  0.1708  0.2665 -0.0251
 7554W        W23023  15.334  15.409  12.850 -0.0494 -0.0798 -0.0935
 7555W        W23024  10.392  13.686   2.096  0.0888  0.1023  0.4231
 7556W        W23025   2.224   3.847  15.361 -0.2025  0.0574 -0.0619
 7557W        W23026  13.573   6.335   5.569 -0.0004  0.0647 -0.3546
 7558W        W23027  14.880  11.811   1.881  0.3208  0.1693 -0.2288
 7559W        W23028  15.726   6.543   5.554  0.0499  0.2096 -0.1631
 7560W        W23029  14.479  13.516  13.137  0.2840  0.1557 -0.0549
 7561W        W23030   8.788   1.246  15.403  0.1145 -0.0496 -0.0381
 7562W        W23031  12.047   0.499   0.617  0.0522  0.0146  0.0724
 7563W        W23032  13.120  10.871   3.863 -0.1190  0.4330  0.1271
 7564W        W23033   4.337  11.141   0.347  0.1281  0.1656 -0.0344
 7565W        W23034  17.771   0.384   2.399 -0.0146  0.2421  0.2446
 7566W        W23035  14.186   1.316  13.550 -0.1934 -0.2159 -0.1944
 7567W        W23036  17.730   2.470   1.977  0.0185 -0.0304  0.2737
 7568W        W23037  14.183   9.225  14.677 -0.0687  0.1329  0.0453
 7569W        W23038   8.921   9.492  13.234  0.2638 -0.2110  0.1078
 7570W        W23039  15.956  14.682   0.991  0.1604 -0.0728 -0.0801
 7571W        W23040  13.464   8.981  11.289  0.2310 -0.1739 -0.1502
 7572W        W23041  15.280   6.264  13.676 -0.1369 -0.0948 -0.1674
 7573W        W23042   8.424   3.131  14.791 -0.0748  0.1534 -0.0510
 7574W        W23043   0.464   9.495  13.662 -0.4889 -0.2064  0.1855
 7575W        W23044   0.644   3.707   0.025 -0.1458  0.3140  0.0393
 7576W        W23045  17.907   7.232   5.364  0.2307 -0.2120  0.0834
 7577W        W23046  15.778  13.812   2.830 -0.0895  0.3093 -0.1700
 7578W        W23047   6.677  12.966  13.900 -0.1764  0.2812  0.0207
 7579W        W23048   0.590  13.939   3.016 -0.0848 -0.0751 -0.1072
 7580W        W23049  14.789   3.561   0.430  0.0465  0.0713  0.2973
 7581W        W23050   9.848   6.727   4.238  0.1751  0.1993 -0.1738
 7582W        W23051   2.899   1.530  12.876  0.1616  0.2802 -0.0307
 7583W        W23052  17.590   8.998  12.911 -0.2419  0.0499 -0.1673
 7584W        W23053   4.891   5.719   2.832 -0.1438 -0.1316  0.1250
 7585W        W23054   6.330   8.941   4.284  0.0752  0.1479 -0.3161
 7586W        W23055  10.613   3.768  15.420 -0.3070  0.0981  0.0444
 7587W        W23056  11.866  15.262   5.215 -0.0205  0.0498  0.3168
 7588W        W23057   0.742   0.005  15.954  0.0606 -0.0220  0.0072
 7589W        W23058  11.348   6.955  11.868  0.3787  0.1411 -0.1753
 7590W        W23059  16.991  11.860  13.423  0.3354 -0.0229  0.1357
 7591W        W23060   8.512   3.800  11.644  0.0621  0.2148 -0.1771
 7592W        W23061   9.438   9.466   3.288 -0.1472  0.1354  0.1372
 7593W        W23062   9.326   6.706  13.160 -0.1796 -0.0447  0.0808
 7594W        W23063   0.754   4.470   4.360 -0.0212 -0.0993 -0.0365
 7595W        W23064   8.377  11.671   4.715 -0.0802 -0.2961  0.1555
 7596W        W23065  15.085   0.486  14.355  0.0468 -0.1350 -0.1548
 7597W        W23066   5.606  17.249  12.410 -0.5056  0.1311  0.1066
 7598W        W23067   5.730   2.262   4.618 -0.4564  0.1938  0.0716
 7599W        W23068   2.083   5.723   3.403 -0.0145  0.1294 -0.2103
 7600W        W23069  10.433   4.012  11.809  0.1844  0.3383 -0.1190
 7601W        W23070   3.525   5.292   0.983  0.2143  0.1881 -0.1652
 7602W        W23071  15.988   1.441   4.048  0.2768  0.2212  0.0961
 7603W        W23072  10.421   4.034   2.317 -0.1125 -0.0468  0.0428
 7604W        W23073   5.227   9.715  14.935  0.1024 -0.0775  0.0436
 7605W        W23074  11.434   1.173   4.766 -0.1197 -0.1108 -0.0635
 7606W        W23075  10.115   5.226   2.861 -0.2388 -0.2140 -0.0881
 7607W        W23076   3.568   8.234   5.442 -0.1209  0.1819  0.0004
 7608W        W23077  15.454   8.175   0.363 -0.0916  0.2466 -0.3424
 7609W        W23078   8.847  13.580  13.211 -0.2143 -0.1284  0.2388
 7610W        W23079  10.830  17.159   4.664 -0.3975  0.0849 -0.0288
 7611W        W23080   4.579  15.339   1.771 -0.1691  0.1662  0.0421
 7612W        W23081  10.584  17.944  12.061 -0.3518  0.2280  0.2749
 7613W        W23082  14.294   6.894   2.807 -0.2322 -0.1515 -0.0071
 7614W        W23083  16.066  11.649   4.664 -0.3826  0.4999  0.2298
 7615W        W23084  10.673  12.805   0.855 -0.1788  0.0127 -0.1996
 7616W        W23085  10.566  17.371   3.990  0.1314  0.3021 -0.1961
 7617W        W23086  18.204   7.509  13.320 -0.0838  0.0178 -0.3315
 7618W        W23087   4.358  15.220  15.107  0.1657 -0.2724  0.0915
 7619W        W23088   0.658  13.345  14.152  0.0992 -0.1509 -0.0263
 7620W        W23089   6.388   5.910   4.940  0.0586 -0.1723 -0.2516
 7621W        W23090  14.231   2.762  12.265  0.2266  0.1261  0.1366
 7622W        W23091  17.941   6.583  11.818 -0.2971  0.0310  0.0243
 7623W        W23092  11.006  16.457  15.589 -0.1514 -0.0505  0.3997
 7624W        W23093  17.545   8.590  14.654 -0.0134 -0.0787  0.3861
 7625W        W23094   7.886   7.998   0.245 -0.2136 -0.2106  0.2820
 7626W        W23095  10.070  15.914   2.864 -0.2855  0.0499 -0.0070
 7627W        W23096  16.217  17.669  12.398 -0.2634  0.2435  0.0522
 7628W        W23097   1.821   5.656   2.001 -0.1169  0.0364 -0.0884
 7629W        W23098   4.747  11.352  12.902  0.2301  0.0445 -0.3794
 7630W        W23099   2.379  16.624  14.212 -0.1459 -0.0108 -0.0138
 7631W        W23100  13.288  17.917   1.116 -0.0372  0.1970 -0.2035
 7632W        W23101   2.617   7.842  14.412 -0.0183 -0.0782  0.3171
 7633W        W23102   4.165  11.979   5.121 -0.0511 -0.0987  0.4355
 7634W        W23103  18.225   4.579  13.114  0.3460 -0.1907 -0.0283
 7635W        W23104  10.229  14.723   1.148  0.0705 -0.1201 -0.2332
 7636W        W23105   5.287  12.513  14.323  0.0815 -0.1497  0.1253
 7637W        W23106  15.877  14.129  13.893 -0.0766  0.1963  0.1859
 7638W        W23107   1.331  16.253   1.195  0.2878  0.0880 -0.3062
 7639W        W23108   5.694  17.932   3.561  0.0976  0.0476 -0.1016
 7640W        W23109  12.651   3.443   3.166 -0.2553 -0.3446  0.2419
 7641W        W23110  13.591   5.715  14.481  0.2753  0.0385  0.0417
 7642W        W23111   6.527   3.172  12.953  0.3200  0.0248 -0.2085
 7643W        W23112   1.115  14.804  14.634  0.0840  0.1599 -0.0076
 7644W        W23113  14.688  12.286   4.638 -0.1151  0.3879  0.1474
 7645W        W23114   5.783  11.802   3.888 -0.1155  0.1124  0.3696
 7646W        W23115   5.354   7.867  12.899  0.0648 -0.0029 -0.1264
 7647W        W23116   1.426   3.511  13.543 -0.0429  0.1992 -0.1119
 7648W        W23117   5.625   3.519   0.525  0.1887  0.2484  0.2518
 7649W        W23118   8.391   1.481  13.239  0.0252  0.2081 -0.1532
 7650W        W23119  16.453  10.963  15.327 -0.0444  0.2373 -0.3507
 7651W        W23120  13.360  15.631  13.156 -0.0626 -0.0098 -0.3095
 7652W        W23121  15.644   5.370   1.045 -0.2728 -0.1021 -0.0459
 7653W        W23122  16.256   0.912   3.156 -0.0327  0.0221 -0.1063
 7654W        W23123   2.999  16.053   4.586 -0.1902  0.0997  0.1004
 7655W        W23124   7.641  10.224   2.974  0.1657 -0.2010 -0.1093
 7656W        W23125  14.320  12.112  11.373  0.0784 -0.0294 -0.1494
 7657W        W23126  10.995   0.260   1.719 -0.3799 -0.0947  0.0255
 7658W        W23127  15.767   4.266   3.310  0.0156 -0.0121  0.1178
 7659W        W23128   6.704  18.103  15.515 -0.1965 -0.0396 -0.1167
 7660W        W23129  10.582   0.757   3.867  0.0122 -0.0743  0.2792
 7661W        W23130   1.634   2.929  11.562 -0.0258 -0.1589  0.3086
 7662W        W23131  15.263  16.198  14.456 -0.1749  0.3755 -0.0834
 7663W        W23132  12.920   3.967  15.430  0.1088  0.2120 -0.0428
 7664W        W23133   6.723   1.115   0.331  0.2843  0.2888  0.0987
 7665W        W23134   3.170   9.904   5.525  0.1277  0.0659 -0.0285
 7666W        W23135  12.745   5.488   3.125 -0.0933 -0.0756  0.1966
 7667W        W23136  15.121   1.229  13.181 -0.0154 -0.2353  0.0859
 7668W        W23137  11.671   4.213  14.695  0.2345  0.1218  0.3588
 7669W        W23138  17.090  14.147  14.150 -0.2384 -0.1155  0.2284
 7670W        W23139   9.441  17.552   4.979 -0.1618  0.1457  0.4223
 7671W        W23140   1.393  17.809   0.398 -0.1540  0.1556  0.1930
 7672W        W23141  11.599   8.111  13.340  0.0570  0.2840 -0.0501
 7673W        W23142  12.324   0.676   2.541  0.1933  0.0103 -0.1754
 7674W        W23143   2.698   2.864  13.571  0.0842 -0.0697 -0.0257
 7675W        W23144   7.359   0.658   2.040 -0.0190 -0.2808  0.2898
 7676W        W23145  16.884   2.704   3.057 -0.0759 -0.0595 -0.0470
 7677W        W23146  10.145   5.976   5.641  0.0598 -0.1802  0.0158
 7678W        W23147  13.927   9.520  13.892  0.0091 -0.1650 -0.1132
 7679W        W23148   9.699  17.842  11.594 -0.1364 -0.0087  0.1096
 7680W        W23149  13.909  16.543  14.275  0.4399 -0.0839  0.0176
 7681W        W23150   5.603   3.532  14.237  0.2219  0.3324 -0.3598
 7682W        W23151   4.508   0.680   5.063  0.2798  0.0353 -0.1800
 7683W        W23152   3.197  12.242   3.802 -0.0647 -0.2961 -0.0533
 7684W        W23153  17.106  12.616   4.482  0.1083  0.1060  0.0014
 7685W        W23154  15.071  11.830  12.525  0.0729 -0.3236 -0.0525
 7686W        W23155   7.344   4.530   3.252  0.0708  0.1671  0.0562
 7687W        W23156   0.121  14.195   5.388  0.2553  0.2695  0.2275
 7688W        W23157   8.568  14.077   4.226  0.1762  0.1974 -0.0121
 7689W        W23158   9.807   3.114   0.982  0.0951 -0.3934  0.1373
 7690W        W23159  14.072   1.125   0.137  0.0310  0.0116  0.2847
 7691W        W23160   1.226  10.345   0.968  0.1268 -0.6013  0.1360
 7692W        W23161   8.532   0.430  15.798 -0.0036 -0.0357 -0.1205
 7693W        W23162   5.101  16.869  13.133 -0.2889 -0.4629 -0.0664
 7694W        W23163  16.874   5.270   2.922  0.0061 -0.3807  0.1939
 7695W        W23164  11.931  12.117   5.169  0.0409  0.0464 -0.1209
 7696W        W23165  16.373   9.988  15.737 -0.0295 -0.0995 -0.4463
 7697W        W23166  14.394   0.965   5.063  0.0402 -0.0524  0.2677
 7698W        W23167  18.109   0.858   4.644  0.1365 -0.3460 -0.1243
 7699W        W23168   1.392   1.871   4.277  0.2134 -0.1053  0.0449
 7700W        W23169   9.408   0.403  10.653 -0.0038  0.4039 -0.1365
 7701W        W23170  11.064  12.420   2.257 -0.0601 -0.1971 -0.2608
 7702W        W23171  14.351   7.614   1.979  0.0691 -0.0379  0.0730
 7703W        W23172  15.791   1.442   0.134  0.0332 -0.0745 -0.4079
 7704W        W23173  11.981   2.601  12.420 -0.1901 -0.5090 -0.0595
 7705W        W23174   0.882  13.132   6.070 -0.0186 -0.2117  0.2955
 7706W        W23175   9.265  11.059  10.971  0.0518  0.1861 -0.0216
 7707W        W23176   6.652  14.635  14.263  0.1251 -0.1923  0.0855
 7708W        W23177   4.918  10.282  11.940 -0.2470 -0.2103 -0.0137
 7709W        W23178  10.030  12.584  15.962  0.2619 -0.2673  0.2321
 7710W        W23179   0.650  13.112  11.850  0.2157 -0.1019  0.2443
 7711W        W23180   9.816   6.128  15.002 -0.1218 -0.1259  0.2467
 7712W        W23181   7.295   2.077   3.775  0.1408  0.0671 -0.0426
 7713W        W23182  10.665   2.019   0.507 -0.2952  0.0050 -0.1277
 7714W        W23183  10.296   9.508   0.338 -0.1659 -0.1638 -0.2065
 7715W        W23184   9.150  16.546   1.078  0.0385 -0.3069  0.1925
 7716W        W23185  13.093  10.317   5.602  0.0421  0.2756  0.0508
 7717W        W23186   5.461  14.131   3.997  0.0722 -0.0017 -0.1398
 7718W        W23187   1.913  10.132   2.183  0.1055 -0.0303 -0.1811
 7719W        W23188   2.379   5.145  15.977 -0.1053 -0.2301  0.4077
 7720W        W23189  15.579   3.767   3.673 -0.1194 -0.2968  0.2145
 7721W        W23190   2.769  15.110  14.035  0.1733 -0.2796  0.0153
 7722W        W23191  18.150   3.791  13.039 -0.3484  0.1571 -0.3493
 7723W        W23192   3.399   8.082  13.942  0.0909  0.0816  0.0565
 7724W        W23193   1.348  16.097   4.811  0.2548  0.0439 -0.0643
 7725W        W23194  11.315  11.065  13.066  0.1957  0.0169  0.0782
 7726W        W23195  10.822   6.545   2.945 -0.1883 -0.1243 -0.2624
 7727W        W23196   3.628   0.460   2.204 -0.0393 -0.0566  0.0608
 7728W        W23197  16.193   6.180   3.738 -0.0487 -0.0777  0.2805
 7729W        W23198   4.406   2.786   2.878 -0.1790 -0.2615  0.1057
 7730W        W23199  16.332  17.192  11.320 -0.1674  0.1637 -0.0541
 7731W        W23200  16.921  18.273  12.855  0.1709  0.3499 -0.0527
 7732W        W23201   3.527   8.708   5.506 -0.0729 -0.5047 -0.1661
 7733W        W23202  12.462   6.838  11.383 -0.0025 -0.1611  0.3160
 7734W        W23203  15.992   3.355   2.071 -0.0743  0.2861  0.0728
 7735W        W23204   8.964   5.926   0.575 -0.0090 -0.1069 -0.1068
 7736W        W23205  15.647   9.995  11.929 -0.2623  0.1239 -0.0557
 7737W        W23206  15.000   5.892  11.973 -0.0687  0.0249 -0.0334
 7738W        W23207   8.053   2.238   0.288  0.2195  0.0800 -0.0083
 7739W        W23208   2.144  17.906  12.610 -0.1542 -0.0130  0.0020
 7740W        W23209   3.518  15.272   5.106 -0.1231  0.2318 -0.3443
 7741W        W23210  13.112   5.769  13.238  0.0144 -0.3052 -0.1116
 7742W        W23211   5.083   2.926   2.028 -0.3320  0.0553 -0.0182
 7743W        W23212  11.223  10.145  13.254 -0.2154 -0.4376  0.2549
 7744W        W23213   4.254  17.370  12.961 -0.0913  0.2036 -0.2310
 7745W        W23214  13.665   8.301  12.466 -0.3710 -0.2792 -0.1250
 7746W        W23215  16.957  13.710  12.746  0.1790  0.0500 -0.1236
 7747W        W23216   6.248  11.223  13.198  0.2174 -0.0881 -0.1837
 7748W        W23217   7.942  10.729   2.607 -0.0213  0.2357  0.1235
 7749W        W23218  12.984   7.186  13.870  0.0128 -0.0685 -0.0751
 7750W        W23219   6.572  12.416   0.983 -0.0214 -0.2502  0.0282
 7751W        W23220   9.510  13.477   0.972 -0.2188 -0.1332 -0.1134
 7752W        W23221   4.728   6.255  12.267  0.1269 -0.0477 -0.0895
 7753W        W23222   4.468  12.043   0.631 -0.2774 -0.0968 -0.0139
 7754W        W23223   1.948  15.107   4.217 -0.1760  0.0139  0.2422
 7755W        W23224   6.810  17.908   2.057  0.0704 -0.1731 -0.1373
 7756W        W23225  11.309   9.847   0.585 -0.2903  0.3003 -0.3115
 7757W        W23226   4.508  15.430  12.937 -0.2851  0.0564 -0.2033
 7758W        W23227   2.532  14.048  15.726 -0.0583 -0.1298  0.0494
 7759W        W23228  12.040  17.205  13.474 -0.0316 -0.1372  0.0198
 7760W        W23229   8.718   4.829  11.597 -0.3691  0.0026 -0.1298
 7761W        W23230   3.702  11.939   4.845 -0.1200 -0.0343 -0.3216
 7762W        W23231   1.082  10.321   3.663 -0.3073 -0.2034 -0.2804
 7763W        W23232  10.970   5.867   0.647  0.2601 -0.0427 -0.0304
 7764W        W23233   0.216   5.702  14.196  0.0411  0.2622 -0.0298
 7765W        W23234  16.208   3.792  15.508  0.0130  0.1791 -0.0984
 7766W        W23235  11.771  18.167  14.604  0.5490 -0.2053 -0.1515
 7767W        W23236   7.727   4.251   4.820 -0.2544  0.0339 -0.0165
 7768W        W23237   8.870   8.850  10.712 -0.1221  0.3757 -0.1788
 7769W        W23238  12.555  17.338   3.665  0.0886 -0.0759 -0.2354
 7770W        W23239   1.955   9.772   1.062 -0.0644 -0.3258  0.2982
 7771W        W23240   2.817  14.469   4.994 -0.0082 -0.0486  0.1406
 7772W        W23241  15.369  14.924   3.397  0.4378 -0.1377  0.1566
 7773W        W23242  10.165  16.687  11.995  0.0957  0.3420 -0.1023
 7774W        W23243   3.254  14.886   1.790 -0.3568 -0.0771  0.1159
 7775W        W23244  13.256  14.643   2.833  0.0234  0.1320  0.2537
 7776W        W23245  16.661   7.758   1.167 -0.0860  0.2656  0.0949
 7777W        W23246  17.710   3.706  15.276  0.2398  0.0896  0.4259
 7778W        W23247   9.396   7.346   2.232 -0.2363 -0.2528 -0.0844
 7779W        W23248   7.263   8.361   3.443  0.3360  0.1724 -0.4406
 7780W        W23249  14.154  15.811  15.713 -0.0600 -0.3081  0.0213
 7781W        W23250   2.049  10.145   3.584  0.1246  0.0084  0.2457
 7782W        W23251  17.908   4.279  14.130 -0.1212 -0.1174  0.0537
 7783W        W23252   9.322   7.290   3.527  0.0892 -0.0733  0.0371
 7784W        W23253  18.237   3.615  11.791 -0.5543  0.0173 -0.0473
 7785W        W23254   3.662  15.982  10.598 -0.0792  0.1229  0.1053
 7786W        W23255   4.028   8.016   0.257  0.3590 -0.1489  0.1064
 7787W        W23256   3.597  13.350  13.449 -0.1951 -0.0994 -0.1655
 7788W        W23257   5.686  13.024   5.288 -0.2133 -0.4069 -0.1380
 7789W        W23258  16.917  11.346  11.410  0.0674  0.1961  0.1194
 7790W        W23259   1.968  15.077  12.564 -0.2290  0.0395  0.2803
 7791W        W23260  14.457   6.725  12.699  0.0841 -0.0151  0.1577
 7792W        W23261   6.858   9.335  13.310  0.0472 -0.2763  0.2203
 7793W        W23262  17.585  17.256   5.539  0.0826  0.0081  0.3471
 7794W        W23263   3.709   9.370  11.040  0.0704  0.1396 -0.0701
 7795W        W23264   4.790  16.189  10.987 -0.0700  0.0836 -0.1609
 7796W        W23265  14.107  10.390   2.429 -0.1083 -0.2458 -0.2928
 7797W        W23266  14.366  10.918  13.170 -0.0626 -0.2426 -0.1537
 7798W        W23267  16.843   4.389  15.226 -0.0286  0.1380  0.3434
 7799W        W23268   2.281  10.775  14.159  0.4193 -0.0583 -0.2835
 7800W        W23269   7.487  13.180   1.357 -0.0929 -0.1783 -0.0681
 7801W        W23270   8.881   8.688   3.272 -0.1677 -0.1963 -0.1589
 7802W        W23271   1.292  16.189  13.066  0.2588 -0.2487 -0.4331
 7803W        W23272   9.592   8.556   4.713 -0.5525 -0.1765 -0.3336
 7804W        W23273   5.269   0.400   2.582 -0.0751  0.1060 -0.1095
 7805W        W23274   0.289  17.320  13.249  0.0106 -0.3898 -0.0708
 7806W        W23275   3.116   8.504  11.117  0.2419 -0.0238  0.0623
 7807W        W23276  14.194  17.061  13.993  0.0085  0.2793 -0.1408
 7808W        W23277   1.717  14.442  12.355 -0.1786 -0.2301  0.0813
 7809W        W23278   3.550  17.132  11.300 -0.1294 -0.0993  0.0687
 7810W        W23279  11.860  15.353  10.954  0.2891  0.2367  0.2336
 7811W        W23280  16.477   9.389   3.643  0.0297 -0.0362 -0.2907
 7812W        W23281  13.135   6.989   0.250 -0.0901  0.2542  0.1684
 7813W        W23282  14.435  16.130  14.118  0.3908 -0.0355  0.3200
 7814W        W23283  15.224  12.637   3.357 -0.0662 -0.2882  0.1540
 7815W        W23284  12.993  16.288   0.879  0.0433  0.2133  0.0365
 7816W        W23285   5.487   2.731  15.400  0.2004 -0.3912  0.1326
 7817W        W23286  17.839   9.818   1.404 -0.0729 -0.0847  0.2298
 7818W        W23287   4.981  12.456   5.044  0.2112  0.0793  0.0241
 7819W        W23288   6.441  14.744  15.150  0.0241 -0.2672  0.0643
 7820W        W23289  16.274   3.975   6.242 -0.0436  0.1222 -0.0469
 7821W        W23290   6.152  12.230   4.460  0.3512  0.2819 -0.1638
 7822W        W23291  12.881  17.619  15.468 -0.1366  0.1207  0.0304
 7823W        W23292   1.066  10.446   4.163 -0.1577 -0.1368  0.3127
 7824W        W23293   0.065   2.482   2.436  0.1404  0.3084  0.2048
 7825W        W23294   4.869  15.330   3.407 -0.2415  0.4330  0.2883
 7826W        W23295   2.145   3.597  11.357 -0.0657 -0.0910 -0.1143
 7827W        W23296  13.840   2.108  15.040  0.0199  0.3555  0.0916
 7828W        W23297  14.629   5.314  11.322 -0.2199 -0.0142  0.0055
 7829W        W23298  17.082   7.314   0.939 -0.4201 -0.0316 -0.1079
 7830W        W23299  16.517   2.881  13.209 -0.0143 -0.3364  0.0106
 7831W        W23300  10.109  15.446  13.894  0.1021 -0.2692  0.1539
 7832W        W23301   9.069   6.794   1.628  0.2104 -0.1896 -0.3185
 7833W        W23302  13.921   1.186   5.143  0.0553 -0.2314  0.0224
 7834W        W23303  13.432   1.836   2.663 -0.1993 -0.4503 -0.0565
 7835W        W23304  11.620   8.030   2.115  0.0446 -0.5235  0.2853
 7836W        W23305  12.742  16.414  14.110  0.0050 -0.2843  0.2245
 7837W        W23306  13.154  17.693  14.570 -0.1235  0.1826  0.0504
 7838W        W23307  17.378  17.213   4.535  0.2918 -0.0374 -0.1279
 7839W        W23308  12.689   2.081   3.400  0.1268 -0.0207 -0.1450
 7840W        W23309   1.561   8.056  13.931 -0.0268  0.0678 -0.1556
 7841W        W23310   2.498  15.605   0.479  0.0185 -0.0788  0.4185
 7842W        W23311   9.244   7.840  15.297  0.0869 -0.0913  0.0729
 7843W        W23312   2.911   1.139  12.550  0.3088  0.0460  0.3119
 7844W        W23313  18.104   5.257   5.018 -0.0199  0.0098 -0.0272
 7845W        W23314  11.447   3.652   0.174 -0.1292 -0.3518  0.0301
 7846W        W23315  10.607   1.209  11.422  0.0190  0.1897 -0.0367
 7847W        W23316   4.049  13.559  14.828  0.1760  0.0200 -0.0248
 7848W        W23317  14.345  13.152  11.551  0.1197 -0.0895 -0.0870
 7849W        W23318   2.132   1.006   1.844 -0.0372 -0.0234  0.0516
 7850W        W23319   4.555  15.198   0.908 -0.1689  0.0091 -0.2209
 7851W        W23320   2.887  13.060   4.726 -0.2132  0.0908  0.1204
 7852W        W23321   1.243   7.233   5.238  0.3313 -0.1825  0.1025
 7853W        W23322   7.584  10.047  11.174  0.0115 -0.0802 -0.2886
 7854W        W23323   7.883  17.708   2.877 -0.0475 -0.0819 -0.2770
 7855W        W23324   7.558   0.493   4.940 -0.0643 -0.1598 -0.0675
 7856W        W23325   5.821   5.009   1.556  0.1563 -0.2803  0.0762
 7857W        W23326  10.692   9.408  12.644  0.0122 -0.1959 -0.0712
 7858W        W23327  13.079  15.319   3.440 -0.1377  0.0416 -0.0902
 7859W        W23328  17.004  13.214   5.552  0.0798  0.0196  0.1976
 7860W        W23329   0.339  10.522  15.121 -0.0708  0.4824  0.0028
 7861W        W23330   2.887   4.695  15.531 -0.1208  0.1682  0.1540
 7862W        W23331  13.852   7.500   3.531 -0.4077  0.2560 -0.1208
 7863W        W23332   8.261   3.667  14.703  0.1116  0.0883 -0.0108
 7864W        W23333  13.674  15.069   3.247  0.3449  0.1982  0.2585
 7865W        W23334   6.250   5.064   3.047  0.0239 -0.1694 -0.2013
 7866W        W23335  12.512   3.410   1.507  0.2150  0.3099  0.0064
 7867W        W23336   5.067   4.752   2.035 -0.1225  0.0874 -0.0547
 7868W        W23337  15.782   9.176  11.186 -0.2453 -0.2404 -0.3776
 7869W        W23338  14.595   7.330   2.843 -0.0131  0.1181 -0.0407
 7870W        W23339   8.512  17.892  15.202  0.3007 -0.0038 -0.2670
 7871W        W23340   2.644  16.554  13.441 -0.3079  0.2348 -0.0273
 7872W        W23341   5.548   3.195   2.063 -0.1978  0.1936 -0.1364
 7873W        W23342   9.622   8.251  12.686  0.0779  0.2887  0.0367
 7874W        W23343   8.093  13.603   6.001  0.0892  0.4532 -0.1523
 7875W        W23344  13.115  13.240  11.090  0.1323  0.1769  0.1931
 7876W        W23345  18.014   4.601   3.579 -0.1795 -0.3057 -0.1413
 7877W        W23346   7.206  12.430  10.806 -0.1327  0.0596 -0.2816
 7878W        W23347  11.019   5.521  15.861 -0.1148  0.1032 -0.3614
 7879W        W23348   1.161   7.807  13.726  0.0871  0.0296 -0.5515
 7880W        W23349   3.325   5.756   3.030  0.1111  0.0148  0.2258
 7881W        W23350   2.339  12.221  14.921  0.3192  0.0946  0.1165
 7882W        W23351  15.480  15.229  16.111  0.1598 -0.1627 -0.1687
 7883W        W23352  16.155   6.330   4.244  0.1046 -0.0022  0.0566
 7884W        W23353  13.991  10.315   5.721 -0.1804 -0.2565 -0.0818
 7885W        W23354   1.281  10.033   0.009 -0.1435  0.1208  0.1641
 7886W        W23355  10.982   3.191  15.548 -0.0884 -0.0978  0.0852
 7887W        W23356  12.555   2.435  15.365 -0.4825  0.1774 -0.1439
 7888W        W23357   0.721   9.514  15.534  0.1405 -0.0690  0.1755
 7889W        W23358  13.191  17.073  14.780 -0.3099 -0.1444  0.2306
 7890W        W23359   5.733  11.581  12.691 -0.1966 -0.0233  0.2236
 7891W        W23360   4.535  15.372  13.454 -0.1445 -0.1122 -0.1378
 7892W        W23361   9.834  14.986   0.456 -0.1214  0.1193  0.3551
 7893W        W23362   2.064   5.463   2.682 -0.1993  0.1038  0.0958
 7894W        W23363  16.697   3.997   0.857 -0.0637 -0.2489 -0.0415
 7895W        W23364   4.425  11.371   4.052  0.2669 -0.0045  0.1529
 7896W        W23365   8.784   8.368  13.926  0.0321  0.3635 -0.1987
 7897W        W23366  13.285  15.814   5.293 -0.1436 -0.0200 -0.4819
 7898W        W23367   9.004   0.602  15.466  0.1258 -0.0982 -0.0590
 7899W        W23368   7.212  12.752   5.086  0.2142 -0.0293  0.1330
 7900W        W23369  10.727  16.041  13.641 -0.1913 -0.0203  0.0799
 7901W        W23370  18.093  11.299   5.541 -0.1991 -0.0294  0.1125
 7902W        W23371   4.746  10.365  11.417 -0.3737  0.3073  0.0278
 7903W        W23372   6.284  17.471  11.174 -0.0408 -0.3456  0.3007
 7904W        W23373  10.659   7.005   4.412 -0.2184 -0.4007  0.3106
 7905W        W23374   2.940   7.318  12.223 -0.0344 -0.2567  0.0896
 7906W        W23375   5.769   3.426  10.706 -0.1801  0.2027  0.0021
 7907W        W23376   0.412   0.018  11.370  0.2037  0.1814  0.0180
 7908W        W23377   6.275   6.613  12.957  0.0332  0.1673  0.2392
 7909W        W23378  15.726  17.291  10.474  0.3680  0.2221  0.2474
 7910W        W23379  14.635  10.617  12.784 -0.1083  0.3933  0.2387
 7911W        W23380   6.561   6.445  12.527  0.0817 -0.1105  0.0270
 7912W        W23381   4.936  12.069  15.677 -0.2681 -0.0137 -0.1858
 7913W        W23382   6.087   4.637  10.978 -0.0418  0.3452 -0.2233
 7914W        W23383  15.989  16.969   5.814  0.0295 -0.0614  0.1171
 7915W        W23384   7.704  15.889   1.154 -0.1173  0.1226 -0.0774
 7916W        W23385  15.373  10.557  11.061 -0.1561  0.2815 -0.0941
 7917W        W23386   8.803  13.126   0.011  0.0929 -0.0447 -0.0697
 7918W        W23387   0.716   7.672  12.979  0.0001  0.0059 -0.0191
 7919W        W23388   5.117   5.965  15.266  0.2333 -0.1490 -0.2396
 7920W        W23389   2.153   3.571   1.537 -0.0804  0.0829 -0.1277
 7921W        W23390   1.398   2.320  15.431  0.0477  0.1275  0.1810
 7922W        W23391   4.756   2.059   5.403  0.1392  0.0765 -0.1034
 7923W        W23392  17.710  14.387   3.727 -0.2203  0.2464 -0.0370
 7924W        W23393   1.560   2.410  11.448 -0.1132 -0.0801  0.0423
 7925W        W23394  16.315   5.266   1.991 -0.0108 -0.3675  0.0213
 7926W        W23395   2.334   0.714  11.380 -0.4653  0.1485  0.3545
 7927W        W23396  15.183   1.292  12.241  0.3012  0.0324  0.2454
 7928W        W23397  14.394  16.938   1.497  0.2411 -0.2456 -0.1047
 7929W        W23398   6.423  17.432  12.139 -0.1587 -0.0861 -0.1044
 7930W        W23399  14.087   1.082   2.291 -0.1089 -0.1443  0.0043
 7931W        W23400   6.394  13.967  15.912  0.3340  0.0875  0.0977
 7932W        W23401  15.341   4.604  12.262  0.2128 -0.3456 -0.2479
 7933W        W23402   8.604  10.727  14.979 -0.1627 -0.0397 -0.3073
 7934W        W23403   9.398  15.448  15.205  0.0470  0.2500 -0.1679
 7935W        W23404   3.212  14.410   2.578 -0.3631 -0.3943  0.0155
 7936W        W23405   0.400  11.891   0.760  0.2686 -0.2839 -0.1631
 7937W        W23406  14.278  15.910   2.726  0.1412 -0.3955  0.0631
 7938W        W23407  13.240   6.665  15.888 -0.0979  0.1290 -0.1087
 7939W        W23408   0.045  14.448  12.357 -0.0111 -0.0999 -0.2451
 7940W        W23409  14.884   0.351  11.600  0.1061 -0.1923 -0.3220
 7941W        W23410   3.684   8.859  13.416 -0.0657 -0.2328 -0.0620
 7942W        W23411  15.650  10.805  13.453  0.3402 -0.1629 -0.1459
 7943W        W23412   2.764  16.100   2.091 -0.1365  0.0088  0.2308
 7944W        W23413   3.357  15.967  10.122 -0.0990 -0.0135  0.0582
 7945W        W23414   3.121   8.122   5.641  0.0375 -0.0981  0.0696
 7946W        W23415  10.344  16.683  14.677 -0.2027 -0.0304 -0.0053
 7947W        W23416  14.078   4.850   1.187 -0.0574 -0.2832 -0.0065
 7948W        W23417   9.380   4.668   4.686  0.0950 -0.0758  0.1378
 7949W        W23418   9.939  16.477   1.079 -0.1622 -0.0120 -0.0292
 7950W        W23419   8.145  15.499  14.138  0.1956 -0.1749  0.0669
 7951W        W23420  13.565  17.449  14.798 -0.1625  0.0554 -0.0497
 7952W        W23421  11.601   1.209  15.845  0.1034  0.0288  0.1881
 7953W        W23422  17.805   8.787  14.217  0.3221  0.1341 -0.1751
 7954W        W23423  13.297   2.677   0.951  0.0250  0.0359 -0.1358
 7955W        W23424   0.521  16.345  13.502 -0.0689 -0.0854 -0.4292
 7956W        W23425  18.181   6.937   1.533 -0.2224 -0.2916  0.1259
 7957W        W23426  13.246   1.945  11.910 -0.0009 -0.0221  0.0498
 7958W        W23427   1.293   9.226   1.200  0.0781 -0.1260 -0.0458
 7959W        W23428   7.019  17.876  10.786  0.0843 -0.0064  0.2935
 7960W        W23429  12.714   9.600  12.295  0.0348 -0.2146  0.1935
 7961W        W23430  10.879   1.842   1.704  0.1367 -0.0361  0.0611
 7962W        W23431  15.437   9.176  11.583  0.3565  0.3387  0.2570
 7963W        W23432   6.639  16.370   3.585  0.0661 -0.1086 -0.3554
 7964W        W23433   7.759   4.967  12.821  0.1959  0.0373 -0.1957
 7965W        W23434   7.801  16.907   5.594  0.2294 -0.0998  0.1094
 7966W        W23435   2.621   2.749  14.044 -0.1430  0.0388 -0.2133
 7967W        W23436   8.957   9.289   2.899 -0.1800  0.3904  0.1509
 7968W        W23437   8.767   3.606  12.494 -0.2441  0.0514 -0.0979
 7969W        W23438   5.688   6.228   9.791 -0.1223  0.0672 -0.0472
 7970W        W23439   8.461   2.831  15.713 -0.0034  0.2780 -0.1794
 7971W        W23440   6.398   6.990   1.013  0.0375 -0.0713 -0.1110
 7972W        W23441   1.977   7.029  15.695 -0.1012 -0.0119  0.4143
 7973W        W23442  10.696   0.853   5.381 -0.0325  0.0092 -0.0319
 7974W        W23443   9.976   6.806   5.446 -0.2165  0.1310  0.0910
 7975W        W23444   6.621  15.792  11.176  0.1167 -0.1311 -0.0107
 7976W        W23445   2.403   6.247   1.577 -0.1428  0.3149  0.2137
 7977W        W23446   0.420   9.813   4.259 -0.0995 -0.2172 -0.2182
 7978W        W23447  11.726   0.004  10.842 -0.1732  0.0650 -0.1174
 7979W        W23448  17.563  12.262  13.537 -0.3762  0.4443 -0.1957
 7980W        W23449   3.982  16.853   3.690 -0.2212  0.1575  0.0755
 7981W        W23450   3.635  10.752  13.000  0.1247 -0.0728  0.3263
 7982W        W23451   8.396   4.651   1.109  0.3869 -0.2992 -0.0128
 7983W        W23452   3.900  15.521   2.341  0.2641 -0.1096  0.1149
 7984W        W23453   5.597  12.375  12.969  0.0085 -0.1939 -0.3014
 7985W        W23454   3.170   8.716  15.784  0.1985 -0.1624  0.0104
 7986W        W23455   4.578  18.232  12.209  0.2124 -0.0150  0.1583
 7987W        W23456   0.944  10.147   2.200 -0.1361 -0.1807 -0.1149
 7988W        W23457  14.869   8.356  13.806  0.3483  0.3208  0.2359
 7989W        W23458  16.086   0.952   1.914  0.0577 -0.0340 -0.2846
 7990W        W23459  14.117  18.153   3.397 -0.0874 -0.2506  0.0864
 7991W        W23460  15.460  16.053   0.928  0.1661  0.0266 -0.0873
 7992W        W23461  11.173  10.873   4.841  0.2149  0.0557  0.0616
 7993W        W23462   1.021   1.692   3.258 -0.3566  0.2742 -0.3567
 7994W        W23463   8.819  16.496  16.095 -0.0162 -0.0726 -0.1782
 7995W        W23464   3.715   8.809   2.142  0.0974  0.0625  0.1939
 7996W        W23465   1.102   1.855   0.386 -0.1620 -0.1323  0.1927
 7997W        W23466   2.752  13.736  12.986  0.1256  0.2104 -0.3149
 7998W        W23467   5.894   0.780  15.028  0.1383  0.0009 -0.0023
 7999W        W23468  14.718   1.610   2.895  0.0161  0.1249  0.0418
 8000W        W23469  15.326   4.142   2.152  0.0156 -0.0943 -0.3213
 8001W        W23470  12.920   5.593  15.992 -0.0141 -0.1291 -0.0497
 8002W        W23471  14.878   7.810  11.392  0.1132  0.6541  0.0121
 8003W        W23472   7.645  16.541  15.758 -0.0762  0.1355  0.2411
 8004W        W23473   3.868  13.787   3.827 -0.1644  0.1040  0.1289
 8005W        W23474   5.298  15.940  13.178  0.0461 -0.0141 -0.0277
 8006W        W23475  12.105   7.351   0.910 -0.2188  0.0850 -0.0633
 8007W        W23476  10.227   4.954   3.934  0.3443 -0.1733 -0.1329
 8008W        W23477   2.070   8.324  11.698 -0.2254 -0.5232  0.0641
 8009W        W23478  17.573   4.828  13.584  0.3163 -0.0728 -0.2912
 8010W        W23479  13.494   1.381  11.817  0.0340  0.1121  0.3440
 8011W        W23480  15.482   9.726   1.712 -0.1081  0.3495 -0.2950
 8012W        W23481  10.508  10.868   4.366 -0.0031  0.2446 -0.0004
 8013W        W23482  17.974   7.002  14.518  0.1253 -0.1552  0.0990
 8014W        W23483   6.048  11.238  15.117 -0.1468 -0.2145 -0.1522
 8015W        W23484  12.549   2.946   5.909 -0.2954  0.2523  0.1070
 8016W        W23485   1.458  11.671  12.408  0.1472  0.2486 -0.0510
 8017W        W23486   6.620   3.849   0.326 -0.1426 -0.2984  0.2750
 8018W        W23487   5.197   8.479  10.661 -0.1178 -0.1252 -0.0195
 8019W        W23488   3.875   4.430  13.130 -0.1409 -0.1736 -0.2795
 8020W        W23489   7.401  11.313  13.751 -0.0006 -0.1511 -0.2597
 8021W        W23490   8.352   0.159   3.958  0.0542  0.2432  0.3303
 8022W        W23491  10.617  18.246   0.836 -0.3059  0.1130  0.2267
 8023W        W23492  10.840  17.700   0.505 -0.0737  0.0297  0.1010
 8024W        W23493   2.239   1.384  10.747  0.0264 -0.1836 -0.1534
 8025W        W23494   0.912  10.424  11.457 -0.1021  0.0677  0.2234
 8026W        W23495   1.041  17.790   1.581 -0.2769 -0.2530  0.1215
 8027W        W23496   5.132  12.494   3.624  0.1632  0.0722 -0.1590
 8028W        W23497  14.793   7.356   2.352 -0.2119  0.2223 -0.1059
 8029W        W23498   5.737   9.652   1.140 -0.5138 -0.0153  0.0180
 8030W        W23499  13.809  18.085  12.831  0.0590  0.1111 -0.1390
 8031W        W23500   2.583  13.875   0.841  0.2279  0.2219 -0.0556
 8032W        W23501   2.688  10.510  15.205 -0.1522 -0.0546 -0.0265
 8033W        W23502  17.077  14.526   2.726  0.4317  0.0559 -0.1014
 8034W        W23503  11.228  10.784  12.637 -0.0473  0.0124 -0.0006
 8035W        W23504  10.585   6.063   4.403 -0.0581  0.0390  0.0520
 8036W        W23505   6.244   1.372  13.381  0.2139 -0.1280  0.1294
 8037W        W23506  13.355  10.191  15.055 -0.1106  0.1570  0.2684
 8038W        W23507  14.191   7.099   5.882 -0.2171 -0.0263  0.0383
 8039W        W23508  11.086   5.717  11.436  0.2236  0.0014  0.1048
 8040W        W23509   3.719   6.781   5.068  0.0628  0.1917 -0.3337
 8041W        W23510  15.296   5.133   1.971  0.2159  0.1706  0.0834
 8042W        W23511  17.504  13.258   0.063 -0.0511 -0.4166  0.3544
 8043W        W23512   3.143  17.434   5.770  0.1636 -0.1972 -0.2141
 8044W        W23513   5.941   8.386   1.228 -0.0165 -0.0104  0.3104
 8045W        W23514  13.464   7.913   5.336 -0.0859  0.3132 -0.1817
 8046W        W23515   5.277   8.167   0.961  0.0971  0.1053  0.0729
 8047W        W23516   2.220   9.035   2.243  0.1268  0.4180  0.0735
 8048W        W23517  18.244   9.746  12.435 -0.0013 -0.1922 -0.1436
 8049W        W23518  14.290  15.203  13.817  0.0348  0.0957  0.1543
 8050W        W23519   1.407   7.309  11.152 -0.2162  0.1601 -0.1145
 8051W        W23520   2.349   3.888   4.428 -0.0698 -0.0862 -0.3171
 8052W        W23521  12.205   5.746  11.078  0.4080  0.0958  0.4312
 8053W        W23522   5.337  10.230   0.705 -0.3380 -0.1000  0.2973
 8054W        W23523   3.682   0.537   3.944  0.0092 -0.2199 -0.0547
 8055W        W23524   0.093   4.937   3.472 -0.1095  0.1627  0.6799
 8056W        W23525  17.379   6.845  12.618  0.0543 -0.0102 -0.1861
 8057W        W23526   5.379   9.492  13.644  0.0158 -0.0402 -0.4885
 8058W        W23527  11.575  16.069   4.216 -0.2040  0.1066 -0.3830
 8059W        W23528  17.789  12.130   0.217  0.0962 -0.0678  0.0231
 8060W        W23529   1.811   6.493  15.544  0.1353 -0.2819  0.2510
 8061W        W23530  16.690  14.254   1.576 -0.2316 -0.0144  0.3951
 8062W        W23531   5.956   8.190   1.715  0.2470 -0.0133  0.1646
 8063W        W23532  18.283  10.189   2.932  0.0230 -0.1579  0.1356
 8064W        W23533  15.923   7.965  12.267  0.1491 -0.0574  0.0686
 8065W        W23534   6.740  10.065  13.925 -0.0088  0.1802  0.0596
 8066W        W23535   9.026  13.155   1.437 -0.3094  0.0236 -0.1489
 8067W        W23536  10.077  10.149  13.104  0.4039 -0.2831  0.3044
 8068W        W23537   2.827   7.377   4.175 -0.0064  0.0584 -0.0817
 8069W        W23538  12.885   2.686  13.695  0.1399 -0.3759 -0.0931
 8070W        W23539  13.046  11.107   4.406  0.2841 -0.0402 -0.0217
 8071W        W23540   3.205   3.369   4.173 -0.0457  0.2067  0.1215
 8072W        W23541  14.600  13.586   4.524 -0.1572  0.3329 -0.1439
 8073W        W23542  13.042  11.714   3.429  0.0177 -0.0207 -0.0406
 8074W        W23543  16.719   7.401   3.504  0.1309  0.2612  0.0945
 8075W        W23544  13.500   3.653  11.351  0.0746 -0.0465  0.0568
 8076W        W23545  18.187  16.161  11.443  0.3921 -0.1519  0.0105
 8077W        W23546  17.854  17.128  14.886  0.2317  0.2999 -0.2901
 8078W        W23547   4.076   2.424   4.849 -0.2186 -0.0946  0.1163
 8079W        W23548  12.723   1.345  15.418 -0.1790  0.0097 -0.0362
 8080W        W23549   8.453   7.908   0.363  0.2265 -0.1800 -0.2201
 8081W        W23550   0.672   8.381   1.995 -0.1288 -0.0179  0.0461
 8082W        W23551   0.742  11.903   0.280 -0.0931  0.2921  0.1642
 8083W        W23552   6.485  15.772  14.019 -0.0292 -0.2405 -0.1431
 8084W        W23553  13.789  11.065  15.241 -0.1516  0.1360  0.3483
 8085W        W23554  11.777   4.928   5.392  0.0433  0.0535 -0.0362
 8086W        W23555  16.529   6.902   0.344 -0.1023  0.3404 -0.4558
 8087W        W23556   7.161  10.422  14.068 -0.1083  0.0072 -0.0153
 8088W        W23557   1.223  11.449  11.886  0.2375 -0.1859  0.0195
 8089W        W23558   6.067  17.004  11.524 -0.0438 -0.1732  0.0433
 8090W        W23559   0.651   1.736  13.670  0.2952  0.0075  0.0610
 8091W        W23560   7.878  17.215   2.819  0.0790 -0.1630 -0.2076
 8092W        W23561  17.443  15.827   3.436  0.2049 -0.2347  0.5005
 8093W        W23562   2.462   1.360  16.093  0.2765  0.1634 -0.2561
 8094W        W23563   1.532   3.136  14.125 -0.0649  0.1945 -0.0622
 8095W        W23564   2.743  14.560  12.669 -0.0676  0.0746  0.2634
 8096W        W23565   5.756   9.670  15.068 -0.3316 -0.0751 -0.2410
 8097W        W23566   2.509   0.411   3.561 -0.0033  0.2740  0.1158
 8098W        W23567   8.211  17.493   0.371  0.0589  0.0958  0.1706
 8099W        W23568   2.206   2.798  11.702 -0.0230 -0.1363 -0.2476
 8100W        W23569   2.410  12.277  10.882 -0.1535  0.1686 -0.0765
 8101W        W23570   6.165   0.888  13.192  0.1560 -0.2234  0.2343
 8102W        W23571   2.442   8.286  15.430 -0.0939  0.0229  0.2371
 8103W        W23572   4.199   3.866   0.103  0.1793  0.1880  0.2694
 8104W        W23573   0.131  14.924  11.763  0.2211  0.0197  0.4463
 8105W        W23574   5.934   2.844   1.125  0.1667 -0.2542  0.2841
 8106W        W23575  15.806   1.027   0.429  0.2823  0.2837  0.1048
 8107W        W23576   1.288   4.115   4.557  0.0863 -0.1992 -0.3671
 8108W        W23577   8.137  11.899  11.710 -0.1642 -0.2392  0.1569
 8109W        W23578  10.822   9.767  11.920  0.0618  0.0982  0.1338
 8110W        W23579   3.005   6.623  11.465 -0.0225 -0.2782  0.0376
 8111W        W23580  11.448  16.314   4.669  0.0510  0.2565 -0.0225
 8112W        W23581   3.438  11.946  14.205  0.0088 -0.2961 -0.4117
 8113W        W23582  12.095   4.112  12.873  0.0152 -0.1988 -0.1342
 8114W        W23583  12.316  12.908   3.892 -0.2377  0.2043  0.4612
 8115W        W23584   8.212   9.013   2.586  0.0088 -0.0680  0.1531
 8116W        W23585  13.127   0.149  14.954 -0.0496 -0.0353 -0.2057
 8117W        W23586   1.377   0.756   1.736 -0.3008  0.0653  0.0119
 8118W        W23587   2.262   8.294   0.042 -0.1107  0.0493  0.0688
 8119W        W23588   4.117   9.677   4.644  0.0609  0.1670  0.3699
 8120W        W23589  13.210   8.965   2.966  0.2790  0.1135  0.0353
 8121W        W23590  16.285  13.938   4.308 -0.0510  0.2968 -0.1694
 8122W        W23591  16.747  10.758   4.679  0.1408 -0.0561 -0.3355
 8123W        W23592   2.966   4.230  15.452 -0.1027 -0.0686  0.1136
 8124W        W23593   9.171  10.548  11.667  0.4274 -0.1561 -0.0050
 8125W        W23594  16.974   3.098   0.898 -0.0302  0.2009  0.0732
 8126W        W23595   6.961   6.609   1.769  0.0624 -0.1484 -0.0212
 8127W        W23596   2.647   4.024   1.769 -0.2850  0.0994 -0.1022
 8128W        W23597  14.838   4.828  13.881 -0.1084 -0.2793 -0.0518
 8129W        W23598   3.985  16.492   5.317  0.1350  0.4736 -0.0474
 8130W        W23599   2.558   8.795   0.632 -0.1350  0.0253 -0.1685
 8131W        W23600   0.166  12.351   0.839 -0.1004  0.0889 -0.2728
 8132W        W23601  17.079   1.715  11.434 -0.0660 -0.0230  0.1341
 8133W        W23602  13.820  15.181   5.247 -0.1809  0.0124 -0.2079
 8134W        W23603  15.882   3.499  14.433  0.3769 -0.4715  0.1775
 8135W        W23604  15.231   8.771   2.509 -0.2131 -0.1939 -0.0557
 8136W        W23605   1.979   4.150   4.074  0.4414 -0.0581  0.0926
 8137W        W23606   4.381  12.071  14.398  0.0100  0.0868  0.1060
 8138W        W23607  10.319  12.937  12.951 -0.0765  0.2059  0.0023
 8139W        W23608   5.725   1.596   0.707  0.0739  0.1400 -0.2361
 8140W        W23609  11.870   4.689   3.527  0.0512 -0.0302  0.1164
 8141W        W23610  10.916   8.831   2.362  0.2453 -0.0161 -0.0170
 8142W        W23611   4.880  11.224   3.898 -0.1313 -0.0934 -0.1845
 8143W        W23612   6.170   5.283   0.667 -0.1583  0.3216 -0.2376
 8144W        W23613   2.860   9.821  13.555 -0.2773 -0.0207  0.0902
 8145W        W23614  14.459   1.890   3.907 -0.0614 -0.1435  0.1728
 8146W        W23615   8.812   0.856   4.953  0.1060  0.0060  0.0291
 8147W        W23616   9.038   4.112   0.567  0.1515  0.1134  0.2682
 8148W        W23617  11.420   9.191   2.558 -0.4405  0.0754 -0.3240
 8149W        W23618  12.336   8.415  13.842  0.2076 -0.1516 -0.1871
 8150W        W23619   9.427   6.932  13.846  0.2166 -0.1418  0.1975
 8151W        W23620  14.933   0.010  14.395  0.0694  0.1870 -0.2148
 8152W        W23621   8.608   6.664   1.840  0.1067 -0.1573 -0.2851
 8153W        W23622   3.792   0.416   1.699  0.0159 -0.1248  0.2664
 8154W        W23623  15.852   9.614  15.464  0.0290 -0.0267  0.2343
 8155W        W23624  13.272  11.033   2.848 -0.1531 -0.0150 -0.0071
 8156W        W23625  13.316   7.227  11.440 -0.3027 -0.1369 -0.0319
 8157W        W23626  14.870   1.885  12.836 -0.1858  0.0021 -0.2324
 8158W        W23627   4.620   9.541  10.799 -0.3085 -0.1531  0.1339
 8159W        W23628   4.656   5.819  10.760  0.2004 -0.1575  0.0110
 8160W        W23629   2.921  16.019   1.193  0.2253  0.2664  0.1495
 8161W        W23630  10.708   1.096   2.984  0.0726  0.0134 -0.2171
 8162W        W23631   0.905  17.151  11.759  0.3642 -0.0550 -0.0597
 8163W        W23632  12.422  12.518  14.418  0.1544 -0.2059  0.3115
 8164W        W23633  10.974  15.440  14.575  0.2711  0.0490 -0.0168
 8165W        W23634   5.209  15.663  11.810 -0.0894  0.2456  0.0139
 8166W        W23635   2.713  11.938   5.601  0.0161 -0.1545  0.3570
 8167W        W23636   6.120   7.914   1.305 -0.2829 -0.1511 -0.0303
 8168W        W23637   8.035   8.829  14.796 -0.1268 -0.0039 -0.0069
 8169W        W23638   6.845   4.732  12.677 -0.1966 -0.3301 -0.2690
 8170W        W23639   2.513   0.289  12.453  0.1446  0.1549 -0.4262
 8171W        W23640   7.367   0.472   3.593 -0.0753 -0.1214 -0.1416
 8172W        W23641  16.489   5.250   0.022 -0.0060 -0.1129 -0.1219
 8173W        W23642   6.295   4.752   3.457  0.2653 -0.0795  0.1153
 8174W        W23643   5.840   8.766  12.690 -0.1216 -0.1599  0.0004
 8175W        W23644   7.716  12.705  11.643 -0.0568  0.0148  0.0707
 8176W        W23645   8.827  11.430   0.061  0.1257  0.1893 -0.1139
 8177W        W23646   9.094  12.938   0.439 -0.0163 -0.4227  0.0926
 8178W        W23647  13.949   4.629  14.209  0.0969  0.0294 -0.1827
 8179W        W23648   1.147   1.931  15.193 -0.0771 -0.1429  0.0847
 8180W        W23649   5.784   3.164   3.416  0.2609 -0.3747 -0.1529
 8181W        W23650  15.145   1.301   5.171  0.0672 -0.0463  0.2342
 8182W        W23651   4.323   2.820   2.372  0.1276 -0.1142 -0.0129
 8183W        W23652   0.740   0.809   1.495 -0.2522  0.0799 -0.1063
 8184W        W23653   4.586   7.066  14.617 -0.3601  0.0344 -0.5178
 8185W        W23654  11.291  13.335  15.372  0.1694 -0.0761  0.2177
 8186W        W23655   3.690  14.190  10.910 -0.2599  0.1577 -0.1584
 8187W        W23656   9.109   0.218   2.801 -0.4258 -0.2391  0.0665
 8188W        W23657   4.309  16.315   0.029  0.3926 -0.1236  0.2210
 8189W        W23658  12.685  10.609   5.253 -0.1410  0.1753  0.0643
 8190W        W23659  13.753   1.735   1.770 -0.3276  0.0293 -0.0158
 8191W        W23660   4.462  10.541  12.113 -0.1389  0.2083  0.0152
 8192W        W23661  13.817  13.870  15.832 -0.1760 -0.6131 -0.2499
 8193W        W23662  12.996  17.150   1.348  0.0698 -0.1071 -0.1932
 8194W        W23663  17.910   1.909  13.292  0.3010  0.3698  0.2661
 8195W        W23664  17.384  12.073  15.535 -0.1735  0.0737 -0.0265
 8196W        W23665  11.861  12.630  11.220 -0.0071 -0.1264  0.1271
 8197W        W23666   1.344  18.140   5.254 -0.0460 -0.0560  0.0173
 8198W        W23667   3.788  13.673   5.175  0.0855  0.1119 -0.1475
 8199W        W23668  12.951   7.470  15.992 -0.0900  0.0063  0.0367
 8200W        W23669   2.734  17.689  11.103 -0.0880 -0.1305  0.2858
 8201W        W23670   8.439   1.588   5.239  0.3603  0.1482  0.1384
 8202W        W23671  15.992  13.225  14.627 -0.0697 -0.0449  0.2215
 8203W        W23672   2.120  12.457   1.171 -0.1579 -0.0485 -0.0275
 8204W        W23673   3.480   3.776  14.559 -0.0249  0.0338  0.1564
 8205W        W23674   9.202   1.357  11.514 -0.1709 -0.2128 -0.2156
 8206W        W23675   2.378   6.298   0.003  0.1095 -0.0227 -0.1645
 8207W        W23676   9.104  12.536   3.354 -0.1354  0.2119  0.2416
 8208W        W23677   2.995   9.363   1.838  0.1651  0.1316  0.0896
 8209W        W23678   6.632  10.485  14.729 -0.2256 -0.1213  0.0131
 8210W        W23679  16.120   1.885  13.818 -0.0222 -0.0022 -0.3857
 8211W        W23680   2.460  10.584  11.172  0.3558 -0.1669 -0.1964
 8212W        W23681   3.297   5.745   0.913  0.0683  0.0969  0.1329
 8213W        W23682  14.550  15.174  15.112  0.0195  0.1895 -0.0663
 8214W        W23683  12.551  10.791   3.776  0.1082  0.0237  0.0342
 8215W        W23684  11.965   6.515  12.809  0.2065 -0.1565  0.1166
 8216W        W23685   5.145   1.516   3.623 -0.1296  0.2415  0.1728
 8217W        W23686   2.028   9.959   4.252  0.4566  0.0902 -0.1380
 8218W        W23687   6.810   8.203   3.227 -0.2979  0.0141  0.1641
 8219W        W23688   3.825  15.599  11.471 -0.0329  0.2075 -0.2721
 8220W        W23689   0.165  13.600   4.641 -0.0424  0.1420 -0.0464
 8221W        W23690   4.861   1.160  12.327 -0.4301  0.3148  0.3053
 8222W        W23691   9.180  11.445   3.237  0.3529 -0.2097 -0.0890
 8223W        W23692  18.277  12.104   0.039  0.0418 -0.5989 -0.5188
 8224W        W23693  11.262   3.470  11.851  0.3732  0.3055 -0.3224
 8225W        W23694  11.081   7.625   3.547 -0.0440 -0.0134  0.2709
 8226W        W23695   4.330   4.827   3.554  0.2904 -0.0998  0.0430
 8227W        W23696  17.277   4.125   3.058 -0.0241  0.1543  0.2062
 8228W        W23697  12.203  12.117   0.397  0.4005 -0.2443 -0.2629
 8229W        W23698   6.120   8.517   2.049 -0.1494  0.1182  0.6158
 8230W        W23699  15.449  17.965   5.109  0.0677  0.1988  0.3055
 8231W        W23700   9.799  11.063   0.768  0.4360  0.1401  0.1981
 8232W        W23701   6.438   2.870  12.034  0.2619 -0.2596  0.0170
 8233W        W23702  14.098  14.735  12.508  0.1697  0.0832 -0.0401
 8234W        W23703  13.586   2.066   2.128 -0.1095 -0.0561  0.3373
 8235W        W23704   7.817  17.798   4.136 -0.0650 -0.1531  0.0104
 8236W        W23705  15.444  11.020  15.054  0.1922 -0.1265  0.1622
 8237W        W23706  16.184   5.147  13.403  0.1279 -0.2484 -0.0399
 8238W        W23707  11.675   3.765   4.034 -0.1010  0.3379 -0.0230
 8239W        W23708   4.379  16.831  11.468  0.1874  0.1555  0.1810
 8240W        W23709   7.837  14.806   0.571 -0.1402  0.2771 -0.0443
 8241W        W23710  10.037   6.911   1.505 -0.2741  0.1867  0.0984
 8242W        W23711   0.954   7.777   4.464  0.1561  0.2468 -0.0530
 8243W        W23712   5.077  16.340  16.090 -0.1916  0.1190 -0.2868
 8244W        W23713  13.843   1.315   4.413  0.1374  0.0624 -0.0660
 8245W        W23714  17.958  13.394  15.887 -0.0240 -0.0565 -0.1455
 8246W        W23715  13.438   6.628  13.338  0.3458  0.1772  0.0266
 8247W        W23716   0.704   5.704   0.957 -0.1434 -0.3251  0.1448
 8248W        W23717   9.630   7.584   0.882  0.2169  0.3317 -0.1057
 8249W        W23718   6.290   3.284  14.770  0.0251 -0.0355 -0.0959
 8250W        W23719   8.745   3.309   2.965 -0.1186  0.1149  0.0063
 8251W        W23720  14.165   9.720   1.174 -0.2036 -0.2126 -0.2714
 8252W        W23721   8.789   2.812  14.830 -0.1489 -0.4679 -0.0983
 8253W        W23722   8.204  11.962   0.537 -0.3676 -0.0522  0.0200
 8254W        W23723   2.755  15.877   3.525 -0.1495 -0.1937  0.2372
 8255W        W23724  17.006  10.112   3.044 -0.0889 -0.1521  0.3224
 8256W        W23725   8.033  15.141  12.619  0.1728 -0.0529 -0.0899
 8257W        W23726  10.587  17.740   4.437 -0.3597  0.1314 -0.0121
 8258W        W23727   1.098   4.634  15.124  0.2778  0.3845 -0.0605
 8259W        W23728   1.455  16.027  10.478 -0.5099 -0.0049 -0.2637
 8260W        W23729   9.748  14.612   4.578 -0.1448 -0.0816  0.0820
 8261W        W23730  10.039   5.854   1.229  0.0025 -0.1821  0.1894
 8262W        W23731   2.323   6.666   2.648 -0.0045 -0.4882  0.2503
 8263W        W23732   1.169  17.995   0.948 -0.1060 -0.1237  0.0743
 8264W        W23733  17.460   0.766   4.034 -0.1403 -0.2274 -0.2243
 8265W        W23734   2.509  17.126   4.360  0.1232  0.3848 -0.1939
 8266W        W23735  10.964   9.496  15.608 -0.0230  0.0980 -0.3825
 8267W        W23736   9.988   8.503  11.040 -0.0856  0.1593 -0.2108
 8268W        W23737   1.999  11.007  12.862 -0.1139 -0.1307 -0.0281
 8269W        W23738  18.084   6.981  10.066  0.4050 -0.0840  0.0931
 8270W        W23739  16.329  10.362   0.584 -0.0425 -0.3380  0.1952
 8271W        W23740   2.817   4.233  12.417 -0.0441  0.0470  0.3132
 8272W        W23741   4.493   3.597  15.896  0.1901  0.2479 -0.1102
 8273W        W23742   2.170  12.880   3.922 -0.0890 -0.4849  0.1503
 8274W        W23743   4.621  12.231  11.273 -0.1290 -0.1461  0.1047
 8275W        W23744  10.492  13.833  16.078  0.3035  0.1828 -0.0547
 8276W        W23745   4.008   6.541  13.499  0.0059  0.1205 -0.1054
 8277W        W23746   7.519  12.082  16.090 -0.0618 -0.0207 -0.1180
 8278W        W23747  17.246  10.809  15.747  0.3185  0.0286  0.2261
 8279W        W23748  13.960  15.882  11.998 -0.0861 -0.0693  0.2126
 8280W        W23749   6.198  13.663   3.005 -0.0812 -0.0978 -0.1005
 8281W        W23750   8.038  16.121   1.451 -0.3386  0.1435  0.1845
 8282W        W23751  18.205  10.369   5.053  0.2283 -0.1693 -0.1282
 8283W        W23752   9.282  12.432  14.775  0.0890  0.0077  0.0811
 8284W        W23753   0.588  17.854  11.277  0.4566 -0.1227 -0.1409
 8285W        W23754  10.458  10.301  13.377 -0.1117  0.1241 -0.3272
 8286W        W23755   4.281  13.194   2.100 -0.1509  0.3814  0.2584
 8287W        W23756   1.358   3.634  14.122 -0.0660  0.4057  0.2134
 8288W        W23757   4.304   5.202   4.350  0.0465 -0.0707 -0.1978
 8289W        W23758   5.375   7.087  15.747  0.3012  0.0335 -0.3184
 8290W        W23759   7.274   9.478  15.580 -0.0212 -0.2187 -0.0586
 8291W        W23760   6.872   5.280   2.430 -0.0494  0.0172  0.0432
 8292W        W23761   8.253   9.674   0.569 -0.2428 -0.4315  0.0981
 8293W        W23762  13.754  15.001   4.698 -0.1905 -0.0347 -0.0630
 8294W        W23763   6.186  10.046  12.515  0.1082  0.0563 -0.1710
 8295W        W23764   4.216   9.636   2.156  0.1308  0.0655  0.1823
 8296W        W23765  11.279   2.621   0.185 -0.2070  0.1574  0.1968
 8297W        W23766   2.729  10.113   4.783 -0.3629  0.0617 -0.1369
 8298W        W23767  12.124   2.490   1.631 -0.0424 -0.3171 -0.2235
 8299W        W23768  16.207  11.259  11.977 -0.0959 -0.1696 -0.0176
 8300W        W23769   6.407  10.880  14.985  0.3141  0.0507 -0.1252
 8301W        W23770  16.314  13.300   3.257  0.1770  0.0750  0.1568
 8302W        W23771   8.086   5.681   1.435  0.2193 -0.0385  0.2297
 8303W        W23772  15.589   4.560  11.751 -0.1168  0.0801  0.2242
 8304W        W23773   3.887  11.745  14.305 -0.1961 -0.0866  0.0291
 8305W        W23774   7.980   3.015   2.062  0.1332  0.0997 -0.0990
 8306W        W23775   2.381   1.882   1.746 -0.0045  0.3110 -0.0684
 8307W        W23776  16.665   2.449  12.739  0.0317  0.0849  0.1212
 8308W        W23777   4.529   6.050  15.248 -0.0221 -0.0926 -0.1739
 8309W        W23778   4.118   9.715   1.635 -0.2175 -0.1038 -0.0179
 8310W        W23779  13.176   2.301   3.847  0.0788 -0.1237  0.0331
 8311W        W23780   0.471   7.846   4.232 -0.1055 -0.1312  0.1347
 8312W        W23781  15.014  13.687  15.062  0.1382  0.0357  0.0229
 8313W        W23782  11.304  11.311   1.062 -0.0494  0.3405 -0.1406
 8314W        W23783   6.537  13.082   0.078  0.4331 -0.3489  0.0259
 8315W        W23784   6.175  14.448  16.070  0.0615  0.1398  0.2609
 8316W        W23785   9.493   4.916   3.418 -0.0293 -0.1914  0.0743
 8317W        W23786   0.586  15.435   1.351 -0.1425 -0.0724 -0.1334
 8318W        W23787   7.276   4.379   4.748 -0.0408 -0.0729  0.0010
 8319W        W23788   3.938   1.260  15.230 -0.0990 -0.2858  0.0773
 8320W        W23789   8.893   6.284  13.672  0.0935  0.0864  0.2126
 8321W        W23790  13.297  13.062  12.429 -0.2740 -0.0997  0.2759
 8322W        W23791   8.776   0.524  11.837 -0.1741  0.1768  0.1431
 8323W        W23792  16.133   6.153   0.651 -0.1378 -0.2071  0.0170
 8324W        W23793  13.678   1.053  10.731  0.0582  0.3745 -0.0085
 8325W        W23794  16.889   7.128   1.743 -0.3412  0.1659 -0.0252
 8326W        W23795   0.274  18.268   1.557  0.0888  0.0891 -0.0256
 8327W        W23796  15.304   2.150   2.524  0.0631  0.0228 -0.1436
 8328W        W23797  10.889  15.763  12.334 -0.1850  0.3059  0.0572
 8329W        W23798  13.137   5.353  11.222 -0.0805  0.1208 -0.2492
 8330W        W23799   7.403  16.749  11.583 -0.3814 -0.1961  0.1324
 8331W        W23800   8.372   5.318  14.724  0.1045  0.1451 -0.1435
 8332W        W23801   0.270  17.574  15.215 -0.0734 -0.0732 -0.1335
 8333W        W23802  14.761   4.085  14.219  0.0157  0.2456  0.0507
 8334W        W23803   2.747   3.819   3.191  0.2971 -0.0251 -0.1255
 8335W        W23804   4.394   0.537   0.573  0.1085 -0.0363  0.0716
 8336W        W23805  10.920   5.775   2.801 -0.0872 -0.3177 -0.1579
 8337W        W23806   8.213   1.209  13.866  0.0581 -0.0236 -0.2985
 8338W        W23807   0.399   8.910  15.010 -0.1254  0.0495 -0.1475
 8339W        W23808   4.759   5.007  14.022  0.1361  0.3745  0.1232
 8340W        W23809   8.471   7.820   5.370  0.0700 -0.0582  0.2138
 8341W        W23810   8.901  12.143   3.652 -0.1817  0.4046  0.0339
 8342W        W23811   6.327   9.524   1.669  0.1593 -0.0134  0.1562
 8343W        W23812  10.399  18.060   2.734 -0.1208 -0.0755  0.0590
 8344W        W23813  13.456   5.435  10.325 -0.2033  0.1327  0.0856
 8345W        W23814   3.327  13.395   4.544  0.0835  0.2519  0.1537
 8346W        W23815   6.035  14.908   0.026 -0.0516 -0.3070 -0.0581
 8347W        W23816  17.578  14.626  15.421  0.0193 -0.0659 -0.2290
 8348W        W23817   9.892  15.577   4.221 -0.1568  0.2773  0.0697
 8349W        W23818   1.900  16.022   3.491  0.0439 -0.0769 -0.0086
 8350W        W23819   9.040   3.332   3.990 -0.1806  0.1235 -0.0109
 8351W        W23820  13.780  14.959  15.496 -0.0866  0.1797 -0.0621
 8352W        W23821   4.764   5.574   3.388 -0.3321 -0.0392 -0.2492
 8353W        W23822   4.129  14.063   3.529  0.1205 -0.1676  0.1024
 8354W        W23823   7.638  17.654   1.350  0.4094  0.1068 -0.1498
 8355W        W23824   2.656  17.648  11.699 -0.1158 -0.0385  0.0775
 8356W        W23825   1.198   3.411   5.035 -0.4786  0.3064 -0.0894
 8357W        W23826  14.132  17.330   1.066 -0.1011  0.3768  0.1583
 8358W        W23827  11.947   7.041  16.022 -0.3119  0.0068 -0.2476
 8359W        W23828   1.816   8.727   1.963 -0.3408  0.1597 -0.1832
 8360W        W23829   5.793   3.725  13.553  0.4649  0.2458 -0.0179
 8361W        W23830   3.441  11.203   2.101  0.0395 -0.1429 -0.0397
 8362W        W23831   9.716  16.922  14.084 -0.1530 -0.1516 -0.1660
 8363W        W23832   2.182   7.809  15.447  0.0950 -0.0918  0.1157
 8364W        W23833   7.026  12.208  10.355 -0.0693  0.0617 -0.1908
 8365W        W23834  15.161   6.379  11.464 -0.2528  0.0279  0.1115
 8366W        W23835  17.233   2.766   0.535 -0.1509 -0.1836 -0.2131
 8367W        W23836   9.023  11.621  10.791 -0.1020  0.0553 -0.2828
 8368W        W23837  12.313  16.034  14.218 -0.0176  0.0067 -0.5234
 8369W        W23838   7.829   2.920   0.697 -0.0131 -0.1616 -0.1069
 8370W        W23839   0.926   2.971   3.552 -0.0400  0.1102 -0.0186
 8371W        W23840  12.867   1.171   1.437  0.2166 -0.0913 -0.0843
 8372W        W23841   5.159   7.751  13.393  0.0137  0.0083 -0.3041
 8373W        W23842  16.268  17.802   2.226  0.2725 -0.3143 -0.1266
 8374W        W23843  16.196  16.764  12.211  0.2207  0.1418  0.2916
 8375W        W23844  16.796  16.371  11.072  0.0501  0.0120 -0.0428
 8376W        W23845  10.065  16.751   4.649  0.0410  0.2994  0.4011
 8377W        W23846   4.390   3.810  14.810 -0.2985 -0.2470 -0.2137
 8378W        W23847   3.532  11.541   4.594 -0.1788 -0.2832 -0.1412
 8379W        W23848  13.726  18.171  13.503  0.0637  0.2470 -0.2656
 8380W        W23849  10.111   7.073   4.989 -0.1014 -0.0449 -0.1265
 8381W        W23850   2.824   8.226  10.485  0.0348  0.4514  0.0815
 8382W        W23851   9.111   2.015   3.039 -0.3307 -0.3425 -0.0348
 8383W        W23852   7.139  11.878   3.861 -0.0570  0.1726  0.0517
 8384W        W23853  16.309  13.823   1.507 -0.5692 -0.1049  0.3256
 8385W        W23854   3.201  16.369   5.689 -0.1708  0.2401  0.1313
 8386W        W23855   5.683   5.288  15.391  0.0596 -0.1538  0.1189
 8387W        W23856  10.245   4.286   0.847  0.3010  0.1662  0.1354
 8388W        W23857  14.101  11.147  13.807 -0.0630  0.2279 -0.0448
 8389W        W23858   2.374  12.763   4.822 -0.0966 -0.6186  0.1562
 8390W        W23859  17.750  10.745  15.618 -0.5318  0.0463 -0.2364
 8391W        W23860  14.413  13.992  13.085  0.2479  0.1210  0.1120
 8392W        W23861  16.139  15.680  14.720 -0.2282  0.1314  0.0657
 8393W        W23862  15.921  17.691  10.565 -0.1083 -0.0732 -0.2010
 8394W        W23863  10.759  17.842  13.063 -0.4146 -0.0911 -0.2522
 8395W        W23864  13.518   7.817  12.135 -0.0896  0.1657 -0.3873
 8396W        W23865   1.463   3.226   2.697  0.3059 -0.2933  0.3135
 8397W        W23866  10.594  13.444   2.943  0.0474 -0.1969  0.0532
 8398W        W23867   3.681   0.150  13.040 -0.1133  0.1404  0.1912
 8399W        W23868   2.011   8.620   5.950 -0.0194  0.1535 -0.3078
 8400W        W23869   7.441   7.754   2.070 -0.1025 -0.2130 -0.2068
 8401W        W23870  11.349   4.741   5.369  0.2013  0.1743 -0.3593
 8402W        W23871   6.202  12.723   1.642 -0.2522 -0.1074  0.1294
 8403W        W23872  12.454  13.379  15.236 -0.0710 -0.1618  0.2779
 8404W        W23873   9.259  11.129  12.230 -0.0891 -0.2181  0.1224
 8405W        W23874   9.341  14.870   1.643  0.3744  0.0671  0.0878
 8406W        W23875   5.242   1.656   0.936  0.1481  0.0496 -0.2966
 8407W        W23876  11.478  12.095   4.422 -0.1787  0.1085  0.5431
 8408W        W23877   9.009   8.781   2.786  0.1164  0.3830 -0.1006
 8409W        W23878   9.947   5.389  10.917  0.1699 -0.3840  0.0109
 8410W        W23879   5.335   2.487  15.860 -0.0035  0.1957 -0.0682
 8411W        W23880   0.100  15.805   4.245 -0.0932  0.1160 -0.1767
 8412W        W23881   9.554  14.056  13.538  0.1787  0.0166 -0.2232
 8413W        W23882   5.041  10.694   0.606  0.0481 -0.0009  0.1643
 8414W        W23883   1.445  16.893   3.370  0.3680 -0.2421 -0.3007
 8415W        W23884   6.183   8.902  15.364 -0.0668 -0.1373  0.0296
 8416W        W23885   3.959  11.515   4.877 -0.2070 -0.0426 -0.2622
 8417W        W23886  16.111  16.748   0.570 -0.0870  0.1207 -0.0689
 8418W        W23887   3.955  15.578  10.549 -0.1365 -0.0292 -0.0283
 8419W        W23888   6.904   4.868   3.715  0.0156  0.1033 -0.3819
 8420W        W23889   1.646   2.048   2.305  0.2973 -0.2960 -0.0669
 8421W        W23890  16.436  14.358   2.143 -0.2131 -0.0985  0.1228
 8422W        W23891   3.630  14.729  15.787 -0.0295 -0.2367  0.0921
 8423W        W23892   1.545  11.504  14.093  0.0775  0.1545 -0.2387
 8424W        W23893  15.449   5.716   3.158 -0.1876 -0.0224  0.0942
 8425W        W23894   3.699  15.545   4.087 -0.1164 -0.1956  0.0537
 8426W        W23895  11.712   8.966  12.753 -0.1778  0.0378 -0.0150
 8427W        W23896   8.096   6.709   5.082 -0.0444  0.0627 -0.0826
 8428W        W23897   5.075  13.442   2.264  0.2491  0.0312  0.2085
 8429W        W23898   5.749  17.194   1.710 -0.0310  0.0675 -0.1112
 8430W        W23899   4.286  10.000  12.187  0.1479  0.1070  0.2464
 8431W        W23900  16.323   9.637   2.316 -0.2393 -0.3041 -0.0440
 8432W        W23901  10.117   6.465   3.472  0.1489  0.1378 -0.0029
 8433W        W23902   7.939  17.659  11.633 -0.0963 -0.1490  0.0147
 8434W        W23903  12.074  15.413   2.542  0.1854  0.0126  0.1339
 8435W        W23904  12.169   2.266   2.089 -0.1053  0.0200 -0.0159
 8436W        W23905   8.331  11.162  14.287  0.0628  0.0002  0.0105
 8437W        W23906   4.520   0.895   4.139  0.1387 -0.1217 -0.3204
 8438W        W23907  10.473  17.108  12.283 -0.1159  0.3818  0.3076
 8439W        W23908  12.584  10.673   0.089 -0.1137 -0.1552 -0.0713
 8440W        W23909  13.321   0.132  10.899 -0.0972  0.0064  0.2015
 8441W        W23910  10.174  14.723   1.656  0.4140  0.0689  0.2699
 8442W        W23911   1.195   6.546   4.075  0.1094 -0.1867  0.3262
 8443W        W23912  15.296  15.213   0.454 -0.0141  0.1946 -0.3136
 8444W        W23913   3.543   2.179   3.634  0.1330 -0.1040 -0.3078
 8445W        W23914   9.346   6.106   0.231  0.1801  0.1493 -0.1769
 8446W        W23915  18.283   9.953   3.814  0.1752 -0.4470  0.0604
 8447W        W23916  10.228  10.665  10.662  0.0565  0.1950 -0.0904
 8448W        W23917   6.204  13.437  15.959  0.2916  0.1307  0.0732
 8449W        W23918   2.953  10.701  15.574 -0.0252 -0.3083  0.0031
 8450W        W23919  13.327  16.240   6.126 -0.2416 -0.1182 -0.0006
 8451W        W23920  16.779  18.165   1.046  0.0279  0.0116  0.1510
 8452W        W23921   0.016   0.309   2.473  0.0401 -0.1706  0.0445
 8453W        W23922  10.072  11.778  14.418 -0.0430  0.0458  0.2853
 8454W        W23923  11.348   3.908   2.241 -0.1989  0.2441 -0.0658
 8455W        W23924  16.247   6.429   5.226  0.1076  0.0157  0.0578
 8456W        W23925   0.556   7.895  10.712  0.0110 -0.1806  0.1007
 8457W        W23926  10.171   5.378   4.273 -0.3335  0.0906  0.1439
 8458W        W23927  13.349   7.586   2.576  0.0486  0.2222 -0.3565
 8459W        W23928  17.917  14.736   1.023 -0.2580  0.1440 -0.1126
 8460W        W23929  11.155   1.761   0.694  0.1189 -0.0864 -0.3901
 8461W        W23930  10.805   2.441  12.666 -0.4558  0.0539  0.2146
 8462W        W23931   1.425  11.993   5.317  0.0603 -0.0894 -0.0846
 8463W        W23932  11.211   1.006  13.482  0.0114  0.0460  0.2792
 8464W        W23933   0.817   2.063  12.014  0.0827 -0.0607  0.0389
 8465W        W23934  17.655  14.739  14.711  0.0879 -0.1237  0.3941
 8466W        W23935  11.729  17.350  12.003  0.0135  0.0175  0.2207
 8467W        W23936  17.143   3.623  14.158 -0.2054  0.0879 -0.0530
 8468W        W23937  17.262   1.911   0.955  0.3888 -0.1411 -0.3315
 8469W        W23938   8.074  17.039  15.193 -0.0355  0.1376 -0.1437
 8470W        W23939   2.407   7.837  11.644  0.0926 -0.1980  0.1672
 8471W        W23940   3.943  10.501   4.242  0.1421 -0.1693 -0.0694
 8472W        W23941  15.181  17.229   1.270 -0.0490  0.5017  0.3628
 8473W        W23942  15.577   7.814  15.433 -0.1541 -0.1419  0.0946
 8474W        W23943   9.555   0.579  15.484  0.0342 -0.0064 -0.3234
 8475W        W23944   8.138   4.520   2.202  0.1221  0.1350  0.1594
 8476W        W23945  13.680  17.688   2.340  0.0072  0.0344  0.0028
 8477W        W23946   4.236   2.720  10.568 -0.0888 -0.2534 -0.0044
 8478W        W23947  11.774  16.976  11.229 -0.3207  0.0825  0.2080
 8479W        W23948  12.149   3.927   0.275  0.4819  0.0993  0.0034
 8480W        W23949  11.226   3.199   3.806  0.1179 -0.0977 -0.1536
 8481W        W23950  11.037   8.820  11.607 -0.0301 -0.1879  0.2034
 8482W        W23951  11.161   2.190   5.086 -0.0966 -0.1343 -0.1888
 8483W        W23952  14.593   4.554   6.146  0.0304  0.2640  0.0791
 8484W        W23953   4.120   1.351  14.442  0.1150  0.1013 -0.0983
 8485W        W23954  13.469   0.087   2.760  0.3940 -0.0703 -0.1541
 8486W        W23955  14.316   5.880  14.965 -0.2975  0.0399 -0.1638
 8487W        W23956  16.495   0.249  12.666 -0.0920  0.1145  0.1113
 8488W        W23957   7.685  14.916  10.955  0.2382  0.0555 -0.1384
 8489W        W23958   1.507   5.632  15.660  0.5020 -0.0066 -0.1691
 8490W        W23959   0.491   8.048  11.465 -0.0527  0.0282  0.1651
 8491W        W23960   3.887  11.768  12.382  0.1888  0.0459 -0.1686
 8492W        W23961   7.521  16.647   0.113  0.0710 -0.0821 -0.1664
 8493W        W23962   1.830  17.067  12.368  0.0903 -0.1944 -0.1045
 8494W        W23963   5.042  13.698   5.280 -0.0310  0.0148 -0.2610
 8495W        W23964   9.085  13.863   6.073  0.1601 -0.2161 -0.0930
 8496W        W23965  17.975  11.421   4.354 -0.3708 -0.3484  0.1008
 8497W        W23966   8.133   9.181  15.526  0.1049 -0.0968  0.0620
 8498W        W23967   0.173   3.931   2.990 -0.1971  0.0609  0.2080
 8499W        W23968  12.118  11.792   2.201 -0.2551  0.0359 -0.1445
 8500W        W23969   9.576   4.614  11.254  0.0221 -0.0013 -0.2538
 8501W        W23970   3.796   8.250   1.667 -0.0481  0.0690  0.2578
 8502W        W23971  12.229   1.925  14.451 -0.0366  0.0426 -0.0763
 8503W        W23972   9.760   6.991  12.448  0.2526 -0.0646  0.1472
 8504W        W23973  13.032   5.522   2.346  0.1402  0.1485  0.1862
 8505W        W23974   8.037   9.796  13.581 -0.0569  0.1428 -0.0098
 8506W        W23975   6.454  17.247   2.553 -0.2302  0.1497 -0.1283
 8507W        W23976   8.027   6.193  13.435  0.1084  0.1870 -0.0549
 8508W        W23977  12.716   3.228   3.830  0.0867  0.1003  0.0274
 8509W        W23978   5.038   6.619  14.671 -0.0103  0.1145 -0.0210
 8510W        W23979   5.806  15.863  13.425  0.0762  0.1308 -0.1796
 8511W        W23980  15.785  15.004  10.407  0.2192  0.0023 -0.0906
 8512W        W23981   5.982   2.391   1.508 -0.0922 -0.2809  0.1393
 8513W        W23982   5.490  14.637   1.843  0.1909 -0.0355  0.0356
 8514W        W23983   8.362   8.253   5.163 -0.0375  0.0060  0.3122
 8515W        W23984   3.896   2.885   4.861 -0.0424 -0.1182 -0.2084
 8516W        W23985  13.003   9.414  15.265  0.0646  0.0433  0.0915
 8517W        W23986  14.455   9.586  14.060  0.0121  0.1094  0.2680
 8518W        W23987  13.832   5.263   0.012 -0.1777 -0.0003 -0.1463
 8519W        W23988  10.854  10.658   1.544 -0.1040  0.1757 -0.2048
 8520W        W23989   3.072   2.010  13.536 -0.0143 -0.2169 -0.1157
 8521W        W23990  17.821   6.591   0.918 -0.0783  0.0602 -0.1565
 8522W        W23991  13.423  18.196   2.237  0.1575 -0.1779 -0.0638
 8523W        W23992   6.238  13.994   0.827  0.0013 -0.4051 -0.0975
 8524W        W23993  17.961  15.180  12.716  0.0883  0.0349 -0.0580
 8525W        W23994  16.893   9.564  12.532  0.1465  0.3436 -0.0536
 8526W        W23995   5.016  16.953   2.594  0.0461 -0.0863 -0.0216
 8527W        W23996  18.242   7.945   4.266  0.0379  0.0456  0.1088
 8528W        W23997   0.847   1.548  11.983  0.0323 -0.0395 -0.1646
 8529W        W23998  12.563   9.252   4.202  0.2599  0.0524 -0.0878
 8530W        W23999   4.938   7.563   4.421  0.2388  0.1556 -0.7369
 8531W        W24000  17.517   2.663  13.332  0.1201 -0.0892 -0.0866
 8532W        W24001   2.072   2.136  12.584  0.0270  0.1166  0.2450
 8533W        W24002   4.601   3.522  10.770 -0.0379 -0.0237  0.0623
 8534W        W24003   0.223   9.823   0.691 -0.1408 -0.0002 -0.1300
 8535W        W24004   3.198  16.240   0.526 -0.0488  0.0429 -0.1436
 8536W        W24005   8.437  14.754   1.559  0.1229 -0.0859 -0.1683
 8537W        W24006  18.068  16.201  14.811 -0.0258  0.1782 -0.2301
 8538W        W24007   1.201   4.719   3.162  0.1205  0.0766  0.0485
 8539W        W24008   0.841  10.484  10.078  0.0787  0.0728 -0.3731
 8540W        W24009   4.566   8.360  15.046 -0.0950  0.0730 -0.0835
 8541W        W24010  13.135  12.605  11.032  0.0377  0.0441  0.2878
 8542W        W24011   4.603  12.241  13.397  0.0965 -0.2436  0.3549
 8543W        W24012  18.186  17.458  14.096  0.0664 -0.0482 -0.2651
 8544W        W24013   7.496  16.427   4.918 -0.2824 -0.0280  0.0092
 8545W        W24014   8.280   4.771  14.669 -0.0823 -0.0180 -0.1785
 8546W        W24015  10.787   0.337   5.663  0.0938  0.2468  0.4842
 8547W        W24016   7.549   0.777  15.000 -0.0210 -0.3786 -0.2216
 8548W        W24017  10.667   5.155  15.952  0.5392  0.0208  0.2378
 8549W        W24018  11.029   4.315  12.320  0.1649 -0.2365  0.0140
 8550W        W24019   1.412  10.181  15.562 -0.4273 -0.0661  0.2521
 8551W        W24020   6.175  13.782  11.936 -0.0636 -0.1841 -0.4626
 8552W        W24021   1.367  15.030   5.499 -0.0499  0.0725 -0.1780
 8553W        W24022  14.760  15.698  15.037  0.0127  0.0297  0.1159
 8554W        W24023  13.381  15.821  14.751  0.0248 -0.0718 -0.1211
 8555W        W24024  12.218  11.733  15.605  0.0994  0.0612 -0.2996
 8556W        W24025   1.164   3.671   0.069 -0.2716 -0.0615  0.0454
 8557W        W24026   7.999   2.017  14.284  0.1647 -0.0072 -0.1040
 8558W        W24027  14.594  11.991   5.523  0.1675 -0.3026  0.1229
 8559W        W24028  15.302   3.170  15.117  0.0148  0.1915 -0.0494
 8560W        W24029  10.252   4.473  14.874  0.2036  0.1900  0.0295
 8561W        W24030  16.305  10.365   5.289  0.0412  0.3164 -0.0559
 8562W        W24031   9.927  10.327  15.074  0.0583  0.1339 -0.2424
 8563W        W24032   6.734   2.157   3.009 -0.0354 -0.1770  0.1662
 8564W        W24033  13.974   2.969  12.673 -0.0869  0.2965  0.2650
 8565W        W24034  18.247   8.528  11.203  0.1471  0.1078 -0.2639
 8566W        W24035   9.875   7.268   2.368 -0.1621  0.0382  0.0300
 8567W        W24036   8.307   3.245  13.063  0.0174  0.2491  0.1286
 8568W        W24037  11.414   5.343  16.099  0.0368  0.0059 -0.0776
 8569W        W24038   4.158  14.203   4.010  0.0368 -0.0070 -0.1919
 8570W        W24039   4.027  14.768  12.900 -0.0875 -0.2874 -0.2048
 8571W        W24040   2.012  18.004   4.673 -0.1447 -0.1491  0.0438
 8572W        W24041   0.576  13.593   0.763 -0.3167  0.1520  0.2005
 8573W        W24042   4.513   8.918  11.924 -0.2742  0.0908 -0.0209
 8574W        W24043   9.356   5.800  12.094  0.2276  0.0090  0.1730
 8575W        W24044  11.584  15.807  11.614  0.1474 -0.0233 -0.2824
 8576W        W24045   5.409   2.174  15.194 -0.0363  0.3044  0.0266
 8577W        W24046  11.661   1.592   6.204 -0.1258  0.1537 -0.0844
 8578W        W24047   5.239   9.147  15.792  0.2212  0.0379  0.0941
 8579W        W24048   6.540   3.827  11.001  0.1961  0.1946  0.0846
 8580W        W24049  11.884  17.285   4.479 -0.0437  0.0748 -0.3070
 8581W        W24050   6.484   7.871   9.925  0.0528  0.0313  0.3031
 8582W        W24051  17.308   8.643  14.127 -0.0261  0.1116 -0.2311
 8583W        W24052   2.037   5.974   0.715  0.0102 -0.1643 -0.1421
 8584W        W24053   1.728   9.720   3.369  0.1961  0.3299 -0.3015
 8585W        W24054   2.461  11.303  11.948  0.1899 -0.3630 -0.2487
 8586W        W24055  10.394   5.679   3.091 -0.0019 -0.0355 -0.2153
 8587W        W24056  18.118  17.625  16.048  0.1362 -0.0366 -0.0841
 8588W        W24057   0.754  15.241  16.002 -0.0030 -0.1203  0.0490
 8589W        W24058  14.635  13.196   4.848 -0.0148 -0.2902 -0.0897
 8590W        W24059  14.716   3.581  13.562 -0.1886 -0.0343  0.1860
 8591W        W24060  16.729  14.563   3.148 -0.2096  0.3082 -0.1854
 8592W        W24061   6.631  13.961   3.194  0.2200  0.0928 -0.1211
 8593W        W24062   8.455   7.516  13.637 -0.2149 -0.0519  0.1382
 8594W        W24063   6.352   0.717  12.281  0.0509 -0.0813 -0.0296
 8595W        W24064   6.515  12.163  13.375 -0.1251 -0.1271 -0.0537
 8596W        W24065  13.983   7.929  12.445 -0.0367 -0.0911  0.4253
 8597W        W24066  16.584  10.076  10.117 -0.0443  0.3290 -0.1123
 8598W        W24067  13.593  11.867  11.257  0.0256  0.1705 -0.1545
 8599W        W24068  12.516   9.282   5.831 -0.0489 -0.2470 -0.0594
 8600W        W24069   5.779   1.488  11.210 -0.4494  0.2251 -0.1840
 8601W        W24070   4.673   4.409   5.131 -0.2005  0.0288 -0.0566
 8602W        W24071  15.681   2.792  13.256 -0.0499  0.0731  0.0325
 8603W        W24072   0.103   2.715  13.505 -0.0758  0.0040  0.0811
 8604W        W24073   5.860   5.373  14.111 -0.0660  0.1436  0.1890
 8605W        W24074   9.083  15.216   5.130  0.1356 -0.1164 -0.3792
 8606W        W24075   0.587  10.658  14.314 -0.1547 -0.1269  0.1255
 8607W        W24076  16.072  14.514  14.533  0.0384 -0.0558 -0.0016
 8608W        W24077  13.773  12.339  12.937  0.1083  0.1640  0.3555
 8609W        W24078  10.751   3.535  10.976  0.2242  0.0722  0.2599
 8610W        W24079  14.922  13.717   1.191 -0.0964 -0.1570  0.1585
 8611W        W24080   8.314   8.164  11.172 -0.1229 -0.0042  0.0942
 8612W        W24081  12.311   4.478   4.226  0.4124  0.4988  0.3554
 8613W        W24082   7.411  12.275  11.690 -0.0466  0.2201  0.5528
 8614W        W24083  13.647   5.710   5.861 -0.2104  0.0591 -0.0909
 8615W        W24084  12.524  11.998   4.330 -0.0409  0.0005  0.0401
 8616W        W24085   8.181   8.241   3.685 -0.1135 -0.2291  0.0093
 8617W        W24086  14.746  15.159  14.185 -0.3378  0.2312  0.0543
 8618W        W24087  17.646   9.775  14.654 -0.0706 -0.2643 -0.0957
 8619W        W24088   8.464   3.451  12.054  0.2197 -0.0466 -0.0289
 8620W        W24089  13.521   4.004   2.046 -0.1847  0.3305  0.3626
 8621W        W24090   9.666  14.247  11.270  0.1058  0.4126 -0.1150
 8622W        W24091  13.326   6.857  13.794 -0.1991 -0.2928  0.1968
 8623W        W24092  10.536   9.064   3.687  0.2813 -0.1361  0.0699
 8624W        W24093  16.214   6.429   0.258  0.0880 -0.0962 -0.0631
 8625W        W24094  16.958   9.515  15.416  0.2575 -0.0522  0.0116
 8626W        W24095  17.529   1.924   5.491  0.2803 -0.2144 -0.3086
 8627W        W24096  12.762   3.131   4.787 -0.0825  0.3128 -0.1892
 8628W        W24097   7.850   5.084   3.784  0.1086  0.0635  0.0583
 8629W        W24098  10.431   3.402   4.927  0.2227 -0.0796 -0.0721
 8630W        W24099   8.484   9.600  10.888  0.1707 -0.0373  0.1782
 8631W        W24100  13.274   4.945   4.089 -0.2571  0.1073 -0.1817
 8632W        W24101   5.571  16.655  13.851 -0.1829 -0.0760 -0.2126
 8633W        W24102   6.194   9.085   1.400 -0.1895 -0.1005 -0.4389
 8634W        W24103   7.623   4.423   2.246 -0.1062 -0.0935  0.0271
 8635W        W24104  17.212  15.612  12.604  0.0628  0.1321 -0.3672
 8636W        W24105  16.496  14.089  15.275  0.3708 -0.3554 -0.1096
 8637W        W24106   9.516   7.007  16.088  0.2601 -0.1369 -0.1707
 8638W        W24107  10.164   2.932  11.169  0.2480 -0.0133  0.1187
 8639W        W24108  10.546  15.161  15.298  0.0017  0.2608  0.4763
 8640W        W24109  16.757  16.754   0.330  0.2601  0.1150 -0.3096
 8641W        W24110   1.301   4.116  13.932 -0.1596 -0.0161  0.2194
 8642W        W24111   4.227   9.823  14.017 -0.0113 -0.0185 -0.0493
 8643W        W24112   2.556  17.475   2.020  0.1346  0.0890 -0.0570
 8644W        W24113   6.697   5.407   2.890  0.0682  0.0680 -0.0097
 8645W        W24114   6.413   1.232  14.027  0.1687  0.1725  0.1023
 8646W        W24115   1.769   3.679  15.378  0.2386 -0.2064 -0.2397
 8647W        W24116   8.871   6.241   1.942 -0.0387 -0.3866  0.0324
 8648W        W24117  11.048  15.852  11.532  0.0989 -0.0217 -0.1610
 8649W        W24118  13.145  10.549   4.467 -0.2243  0.1888  0.0775
 8650W        W24119   2.028   1.186   0.256  0.0600  0.2802  0.0124
 8651W        W24120  15.616  15.770   2.863 -0.2370  0.3062 -0.1963
 8652W        W24121   8.338  11.707   1.323  0.4584 -0.3357 -0.1505
 8653W        W24122  10.787   2.390  11.236 -0.1407 -0.1406  0.1446
 8654W        W24123   4.643   5.795   5.516  0.3285  0.1361  0.3500
 8655W        W24124  14.040   8.477   0.877  0.1197  0.0953  0.0638
 8656W        W24125  17.701   6.179  15.321 -0.0087 -0.0823  0.0747
 8657W        W24126  13.462   2.569  13.673  0.0122  0.2779  0.0427
 8658W        W24127   0.568  14.161  14.359  0.1129  0.0943  0.0643
 8659W        W24128   7.975   7.654  10.226 -0.3047  0.1950  0.0390
 8660W        W24129  16.557   5.385   4.435  0.1136 -0.0375  0.2397
 8661W        W24130  16.707  16.227   5.139 -0.1989 -0.0377  0.0158
 8662W        W24131  17.495  16.994  12.167 -0.2630 -0.1203  0.0782
 8663W        W24132  12.814  13.728  14.290 -0.3073  0.1754  0.0372
 8664W        W24133   3.112   7.904   4.683 -0.0991  0.1808 -0.4081
 8665W        W24134   3.999  14.702  14.593  0.2050 -0.1561 -0.1331
 8666W        W24135  10.258  14.467   6.227 -0.0307  0.2204  0.3315
 8667W        W24136  11.219  12.578  13.949  0.0080 -0.0061  0.3717
 8668W        W24137   8.265  10.599   0.521 -0.1078  0.2179 -0.2990
 8669W        W24138   5.860   1.527   2.135  0.0824  0.0197  0.1929
 8670W        W24139   3.816   4.869   3.531  0.0915 -0.0901 -0.1897
 8671W        W24140  11.087   8.947  12.081 -0.0330  0.0463 -0.1756
 8672W        W24141   6.794  16.123  13.549  0.0396  0.1248 -0.0253
 8673W        W24142   7.528  12.363   2.324  0.1446 -0.0711 -0.2358
 8674W        W24143  13.540  13.277  13.262  0.0028  0.2198  0.0189
 8675W        W24144   5.397   9.806   2.795  0.0253 -0.0432 -0.0660
 8676W        W24145  11.964  10.932  11.169  0.1759  0.0147 -0.1440
 8677W        W24146   2.351   6.218  12.611  0.1000  0.0241 -0.0830
 8678W        W24147  13.108   4.162   3.244 -0.1516  0.0630 -0.1338
 8679W        W24148   1.875   4.111  12.916 -0.0448 -0.1183 -0.4402
 8680W        W24149   0.575  15.471  14.893 -0.1126 -0.3051  0.3443
 8681W        W24150   2.569   3.001  15.384  0.1418 -0.1897  0.1806
 8682W        W24151  14.121   2.042  15.967  0.0390  0.1332 -0.3852
 8683W        W24152  13.470   8.465  14.410  0.1102 -0.1820  0.4070
 8684W        W24153  12.165  14.591   0.086  0.1295  0.1746 -0.3290
 8685W        W24154   5.422   0.429  14.175 -0.0590 -0.1617  0.2091
 8686W        W24155  12.728  13.059   3.610 -0.4939 -0.0484 -0.1866
 8687W        W24156   4.785   5.187  14.704  0.1474 -0.0528 -0.0136
 8688W        W24157  16.459  10.738   2.178 -0.3867  0.3248 -0.2102
 8689W        W24158   3.928   5.861  12.856  0.0905 -0.0486  0.3147
 8690W        W24159   5.676  17.483  10.855  0.0712 -0.0470  0.0368
 8691W        W24160   1.004   4.518  14.149 -0.0120  0.2477  0.2607
 8692W        W24161  12.525   7.621   3.391 -0.2434 -0.0616  0.2879
 8693W        W24162  16.867  13.523   5.017  0.2575  0.1189 -0.1675
 8694W        W24163  17.408  14.246  11.105 -0.2324 -0.1259 -0.0382
 8695W        W24164   4.564  12.242   3.662 -0.0858 -0.1102 -0.0584
 8696W        W24165  17.135   6.581  13.468 -0.0407  0.0458 -0.2922
 8697W        W24166   0.230  11.918  11.379  0.1564  0.3309  0.1484
 8698W        W24167   8.816   5.016   1.088  0.0707  0.1354  0.2085
 8699W        W24168  12.157   8.100  13.452 -0.2609  0.1467  0.0186
 8700W        W24169  12.261  10.609  15.299  0.1775 -0.0589  0.0737
 8701W        W24170  17.100   4.429  10.530  0.1310 -0.0967 -0.0425
 8702W        W24171   5.952  11.547  11.961 -0.0887 -0.0888  0.0407
 8703W        W24172   2.657  10.839  10.708  0.3221 -0.3467  0.0417
 8704W        W24173  10.757  12.315   2.665 -0.0743 -0.0942  0.0231
 8705W        W24174   5.454  12.803   0.877  0.2393 -0.0037 -0.2438
 8706W        W24175   3.316  13.277   0.707 -0.0559 -0.4393 -0.1178
 8707W        W24176  10.615   6.830  11.304  0.1884  0.0129 -0.1483
 8708W        W24177   0.953  17.479   5.357  0.0262 -0.0393 -0.1056
 8709W        W24178   5.085  13.691   0.598 -0.1098 -0.0468  0.6432
 8710W        W24179  16.517  14.074  11.419 -0.1441  0.3783  0.0587
 8711W        W24180   6.406  15.422   5.126  0.0201  0.0300  0.1574
 8712W        W24181  11.863   5.298   0.863  0.2158 -0.3549  0.0801
 8713W        W24182   2.061  13.375  12.326  0.1745  0.0516  0.0235
 8714W        W24183  15.568   5.998   4.599  0.1038  0.0726 -0.1688
 8715W        W24184   5.388  14.030  12.993  0.1524 -0.0327  0.1720
 8716W        W24185   2.735  10.235   5.439 -0.0983 -0.0145  0.1321
 8717W        W24186   9.753   4.429   3.238 -0.2163  0.4242  0.0434
 8718W        W24187   4.119  12.251   4.645 -0.0897 -0.2241 -0.1690
 8719W        W24188  15.923   2.179  15.633 -0.0967  0.3281  0.0050
 8720W        W24189  17.052   9.183  14.984 -0.1387 -0.0875 -0.0548
 8721W        W24190  13.224   4.802  12.951 -0.2709  0.2130  0.1060
 8722W        W24191  18.233  12.770   2.237  0.0220 -0.1754  0.1230
 8723W        W24192   4.442  10.568   4.857  0.1187  0.0393 -0.3141
 8724W        W24193   9.428  17.717   5.845 -0.1337  0.1853  0.0511
 8725W        W24194  11.552   8.960  13.762 -0.2884 -0.1634 -0.2442
 8726W        W24195  14.328  17.790   4.303 -0.2356 -0.1930 -0.2687
 8727W        W24196   7.701  16.556  15.007 -0.2216  0.1876 -0.0875
 8728W        W24197   6.172   7.798  10.938  0.2054  0.2352  0.1715
 8729W        W24198  13.219  12.659   4.247 -0.0531 -0.0407  0.2132
 8730W        W24199  12.274   2.840   0.477 -0.3166  0.3543  0.2272
 8731W        W24200   9.538   4.993  14.037  0.3116 -0.2059 -0.2250
 8732W        W24201   7.195  15.210  12.595 -0.2506  0.0080 -0.1014
 8733W        W24202  12.753  12.374   4.607  0.2267  0.0470  0.1138
 8734W        W24203   7.621   0.416   2.432  0.2230 -0.2940  0.0295
 8735W        W24204  17.498  15.979   4.217 -0.1340  0.2057  0.1157
 8736W        W24205  13.877   8.373   5.159  0.1063 -0.0507  0.0908
 8737W        W24206  17.314  18.202  15.998  0.0337  0.0682 -0.1943
 8738W        W24207   1.794  11.405   5.955 -0.1323 -0.0687 -0.0375
 8739W        W24208   4.661  14.115   3.959 -0.1366  0.1792 -0.0511
 8740W        W24209  12.502  16.593   3.083  0.1662  0.0537 -0.1636
 8741W        W24210   4.280   6.629  12.594  0.0698 -0.2046 -0.2587
 8742W        W24211  10.514  14.214   1.239  0.2243 -0.2119  0.0795
 8743W        W24212  10.726   8.936   0.114  0.2659  0.2883 -0.0447
 8744W        W24213   3.821  17.013  13.320  0.2273  0.2045 -0.2293
 8745W        W24214   5.140  13.706  13.610 -0.0398 -0.0838  0.1614
 8746W        W24215   1.124   9.637   0.387  0.3161  0.0443  0.0611
 8747W        W24216   9.271   5.810   1.436  0.0966 -0.2169  0.2579
 8748W        W24217  13.639   9.956  13.273 -0.0372  0.0411  0.0581
 8749W        W24218  14.803   3.543  15.560  0.2169 -0.2492 -0.0507
 8750W        W24219   6.233   7.519   1.887  0.0034 -0.1119 -0.0164
 8751W        W24220   2.741   4.653   2.545  0.1662 -0.0123  0.0314
 8752W        W24221   0.848   7.379  11.356  0.1323  0.0381  0.1652
 8753W        W24222   1.615  17.946   4.323 -0.4668  0.0264  0.0564
 8754W        W24223  11.818  18.107   1.503  0.0049  0.2325  0.0554
 8755W        W24224  13.603   2.308   2.966  0.3166 -0.2396 -0.0342
 8756W        W24225  14.640  10.982  15.259  0.4972 -0.2157 -0.3435
 8757W        W24226  14.006  18.100  14.301 -0.1982  0.3581 -0.2933
 8758W        W24227   5.863   3.024  15.095 -0.2001  0.2823 -0.1732
 8759W        W24228   9.319  12.262  13.115  0.2345 -0.0075 -0.0516
 8760W        W24229  13.328   4.262   5.923 -0.0755 -0.3160  0.0190
 8761W        W24230   0.922  11.921  13.817 -0.1310 -0.2372  0.0630
 8762W        W24231   6.943  16.782  14.291  0.1790 -0.1100 -0.2002
 8763W        W24232   4.485   2.143   3.864  0.0232  0.0149 -0.2919
 8764W        W24233   3.210  15.888   3.358  0.0689  0.2463  0.2489
 8765W        W24234  14.767   5.520  12.316 -0.0345  0.0231  0.0969
 8766W        W24235   5.393  15.509   3.401 -0.0995  0.3893 -0.2633
 8767W        W24236  15.030  15.786  11.072  0.4302 -0.0602  0.0156
 8768W        W24237   9.530   5.888   2.387 -0.0955  0.0603  0.2287
 8769W        W24238  11.745   5.433  11.992 -0.0450  0.2269  0.0841
 8770W        W24239   2.952  10.621  11.090 -0.3089  0.1466  0.1332
 8771W        W24240   6.746   8.887  13.022 -0.1705  0.0674  0.0016
 8772W        W24241   0.558  17.686   5.751 -0.1920 -0.0673  0.0675
 8773W        W24242   6.784  15.769   4.861  0.1595 -0.1166  0.0134
 8774W        W24243   4.228   0.678  11.444  0.3211 -0.2503 -0.2268
 8775W        W24244   5.458   9.007  13.516  0.2599 -0.1265  0.0817
 8776W        W24245  18.240  13.797   3.435  0.2602  0.0753  0.3783
 8777W        W24246   6.757   2.543   1.989  0.1289  0.2052  0.0705
 8778W        W24247  12.984   9.746   2.193 -0.0021  0.1635 -0.0143
 8779W        W24248  11.686  10.847   4.931 -0.1668  0.0551  0.0340
 8780W        W24249   1.407   5.348   5.101 -0.2724  0.0864 -0.1401
 8781W        W24250  13.754   9.181  10.891 -0.2200  0.3538  0.0788
 8782W        W24251   0.935   2.047  15.635  0.3854 -0.1216  0.2123
 8783W        W24252   4.769   2.113   5.949  0.0514 -0.1749 -0.0152
 8784W        W24253  14.508   5.017   2.651  0.1191  0.2445 -0.0708
 8785W        W24254  10.890  11.317  14.090 -0.1475  0.2740 -0.0649
 8786W        W24255   7.062   3.377  15.669  0.0371 -0.5169 -0.1991
 8787W        W24256  11.444  18.088   6.257 -0.1258  0.1686 -0.0681
 8788W        W24257   3.528  13.814  15.945  0.1201  0.1185 -0.0928
 8789W        W24258   9.657   8.178  13.205 -0.1179  0.0004 -0.1379
 8790W        W24259  14.732   6.676   0.390 -0.1732 -0.0337 -0.1497
 8791W        W24260  16.103   4.802   5.852 -0.0105  0.0640  0.4014
 8792W        W24261  16.527   4.263  15.709 -0.0201 -0.3283 -0.1821
 8793W        W24262   5.891   2.604  14.162  0.0543  0.1444 -0.4953
 8794W        W24263  11.316   0.644  12.819 -0.1782  0.4542  0.2425
 8795W        W24264  13.082   5.712  15.546 -0.2606 -0.0855  0.1188
 8796W        W24265   6.069  12.528  15.086 -0.0692  0.4067  0.2490
 8797W        W24266  15.737  15.186  10.951  0.1938  0.0623  0.2121
 8798W        W24267   3.738  17.095  14.121  0.0165  0.0665 -0.1719
 8799W        W24268   0.628   4.010   2.871 -0.2445 -0.0877 -0.0240
 8800W        W24269   6.552   7.919  13.988 -0.2456  0.1956  0.0329
 8801W        W24270  15.639  17.996   5.609 -0.3570 -0.0094 -0.0590
 8802W        W24271  14.557  12.953  11.947  0.0822  0.0260 -0.1425
 8803W        W24272  16.038   8.727   2.876 -0.1941 -0.3595  0.2602
 8804W        W24273  13.489  11.250   5.050  0.0459  0.2898  0.0029
 8805W        W24274   5.873  16.202   3.925  0.2990 -0.2439 -0.2575
 8806W        W24275  12.714   9.265   2.773 -0.2820  0.2599  0.0338
 8807W        W24276   1.912  15.472   5.520  0.1745 -0.0659  0.1568
 8808W        W24277  10.128  16.290   1.830 -0.0518 -0.1969 -0.2759
 8809W        W24278   4.678   6.275   0.236  0.0476  0.1639 -0.1894
 8810W        W24279  12.948  10.770  15.833  0.1529 -0.3516 -0.1583
 8811W        W24280  13.487  14.120   1.961 -0.2154 -0.2607  0.1140
 8812W        W24281   5.118  11.558   2.531  0.0079  0.2559  0.1321
 8813W        W24282  16.672  17.755  14.376  0.3648  0.1275 -0.1517
 8814W        W24283   1.007  17.315  14.366 -0.1894 -0.2398  0.0416
 8815W        W24284  15.334   4.633  15.694  0.2823 -0.1034  0.4538
 8816W        W24285  16.162   2.569  13.292 -0.1048  0.0103  0.2362
 8817W        W24286   2.202  10.251  15.598 -0.0722 -0.1589 -0.1389
 8818W        W24287   7.176   6.246  12.944  0.0020 -0.2147  0.0002
 8819W        W24288  11.745   3.667   0.584  0.1206 -0.3218 -0.0593
 8820W        W24289   8.286  17.251   3.106 -0.2285  0.1461 -0.2691
 8821W        W24290   6.104   2.162  11.718  0.0077  0.2483 -0.2123
 8822W        W24291  10.102   3.213  14.298  0.0804 -0.2350 -0.3000
 8823W        W24292   6.287   0.703   1.722  0.1460 -0.0064 -0.1605
 8824W        W24293  15.102   0.005   5.439 -0.2122 -0.0697 -0.1731
 8825W        W24294   4.204  13.198   5.632  0.1074  0.1992 -0.2192
 8826W        W24295   0.388   7.907   0.537 -0.0010 -0.2454  0.1411
 8827W        W24296   2.752  18.197   6.222  0.2993  0.0850  0.1413
 8828W        W24297   7.638  11.406  12.939 -0.0091  0.1763 -0.2010
 8829W        W24298  14.571  12.710   4.791  0.2779 -0.2085 -0.2266
 8830W        W24299   7.135  17.711  13.079 -0.0571  0.1127 -0.2912
 8831W        W24300  13.210  12.142   2.543  0.0630  0.1456  0.0048
 8832W        W24301  12.306   2.841   1.345  0.3796  0.1486  0.0250
 8833W        W24302  14.533  16.685   3.092 -0.0265 -0.0879 -0.2027
 8834W        W24303  12.283  18.230  13.467 -0.2434  0.1170 -0.0521
 8835W        W24304   8.852   0.346  11.329  0.0658  0.2259  0.0269
 8836W        W24305  15.412  17.562   2.736 -0.0765  0.0687 -0.0065
 8837W        W24306   9.858   1.341   0.458 -0.0733  0.0505  0.0922
 8838W        W24307   0.599  14.076   0.938 -0.2050  0.0302 -0.0045
 8839W        W24308   2.365  15.179   2.446  0.2130 -0.0898  0.1574
 8840W        W24309  10.361   4.719  13.804  0.1522 -0.1640 -0.1741
 8841W        W24310   0.446   1.752  11.049 -0.1323  0.1620  0.0621
 8842W        W24311   8.390  13.595  10.863  0.2158 -0.0629 -0.3519
 8843W        W24312   2.423   2.252  11.785 -0.2095 -0.1028  0.0485
 8844W        W24313   6.766   0.457  11.260 -0.1401  0.0379  0.1643
 8845W        W24314   3.538   1.682  14.904  0.1442 -0.0306 -0.1069
 8846W        W24315   3.183   2.299  15.724  0.0855 -0.2181  0.1403
 8847W        W24316   6.257   6.968   4.310 -0.0737  0.1390 -0.1268
 8848W        W24317  16.428  13.674   5.118  0.2422  0.0293  0.1060
 8849W        W24318  13.990  12.845  15.631 -0.2476 -0.1037 -0.1101
 8850W        W24319   9.085   0.986  12.588  0.0188  0.2786 -0.1690
 8851W        W24320   8.759   6.447   2.358 -0.1320 -0.2625 -0.4156
 8852W        W24321   8.188  17.244  16.010 -0.1959 -0.1464  0.0481
 8853W        W24322  13.458   2.805  15.584 -0.2182 -0.0704 -0.3332
 8854W        W24323   3.898  14.992  15.465  0.2418 -0.1484  0.0168
 8855W        W24324  17.653   3.881   3.594  0.2121  0.0922  0.1589
 8856W        W24325   0.211  17.366  10.421 -0.0407  0.1045  0.0110
 8857W        W24326   6.838   3.786  14.635 -0.1604 -0.2009  0.1797
 8858W        W24327   0.707   8.162  13.074 -0.0964  0.1356  0.1188
 8859W        W24328   4.468  14.994   2.665  0.0478 -0.1617 -0.1845
 8860W        W24329   4.500  13.920   0.673  0.0117 -0.2245  0.1514
 8861W        W24330   8.889   0.879   4.409  0.2720 -0.0396  0.0033
 8862W        W24331   1.125   3.805   4.089 -0.0092 -0.4086  0.1355
 8863W        W24332  10.869   5.692  12.078  0.2201 -0.1233  0.2972
 8864W        W24333  14.798   2.717   1.885  0.3200 -0.0907  0.4861
 8865W        W24334   0.079   0.255   5.497  0.0965  0.1560 -0.1222
 8866W        W24335  10.462  12.995  13.452 -0.0414  0.2378 -0.3189
 8867W        W24336   8.060   0.426   0.173  0.1459 -0.0640  0.0106
 8868W        W24337   9.292  10.436  13.286  0.0051 -0.0683  0.1296
 8869W        W24338  15.869  16.351   5.076  0.0507 -0.0710  0.1114
 8870W        W24339   1.691  15.842  12.779  0.2763 -0.1396 -0.0148
 8871W        W24340  12.772   5.586  10.907  0.0049  0.0992  0.2065
 8872W        W24341  14.618   2.686  13.507  0.0372 -0.3136 -0.2143
 8873W        W24342  14.959  16.272  13.091 -0.1635  0.0567  0.1909
 8874W        W24343  12.960   1.679   1.111 -0.0982  0.0296 -0.0764
 8875W        W24344  18.249  13.580  11.988  0.0336  0.0687  0.1821
 8876W        W24345   8.737   5.500   0.732 -0.0159  0.1920 -0.0143
 8877W        W24346   8.369  12.026   5.118  0.3100 -0.1411 -0.1064
 8878W        W24347  13.540  11.070   4.245  0.2440  0.2596 -0.3044
 8879W        W24348  16.056   3.290  14.895 -0.1596 -0.3178 -0.0542
 8880W        W24349  14.114  10.575  12.734  0.0230  0.1971 -0.0209
 8881W        W24350   6.094   0.838  14.189 -0.3039  0.1625 -0.1747
 8882W        W24351   3.753   6.067  15.994 -0.0753 -0.1792 -0.0732
 8883W        W24352  13.025   7.877   0.546 -0.4966 -0.4537  0.0571
 8884W        W24353  13.865   6.888   2.424  0.2531 -0.0174  0.1933
 8885W        W24354   1.871   2.068  15.566  0.1060 -0.2713 -0.0711
 8886W        W24355  17.889   2.430   3.908 -0.0912 -0.0085 -0.0623
 8887W        W24356  11.085   2.434   5.511  0.2483 -0.0867  0.1380
 8888W        W24357   8.344   4.675  15.830  0.0166 -0.0212 -0.5222
 8889W        W24358  13.160  14.872  14.479 -0.1204  0.1151  0.0885
 8890W        W24359  17.288   7.592  15.932 -0.0697 -0.0965  0.0012
 8891W        W24360  14.788  13.938  15.958  0.0483 -0.2756  0.1864
 8892W        W24361  15.369   9.336  13.058 -0.1422 -0.0936 -0.3293
 8893W        W24362   8.584  15.030   4.070 -0.2436 -0.1300 -0.0637
 8894W        W24363  11.960  13.513  12.760 -0.1878 -0.0723  0.0485
 8895W        W24364   4.040   1.191  13.116  0.1781 -0.1154  0.1015
 8896W        W24365   6.620   8.816  11.936 -0.0576  0.1153 -0.3314
 8897W        W24366  13.061   3.313  14.347 -0.1585  0.1611 -0.2296
 8898W        W24367   9.340   6.335   3.187  0.1381  0.1960  0.1194
 8899W        W24368   2.482   1.450   2.671 -0.1718  0.0970 -0.2118
 8900W        W24369   2.340   7.448  13.656 -0.1665 -0.2567 -0.1959
 8901W        W24370   8.909  12.260  12.192 -0.0009 -0.0265  0.0948
 8902W        W24371   9.461   1.159   0.175  0.0939 -0.0460  0.0325
 8903W        W24372  11.497  13.759  15.152 -0.1485 -0.1435  0.0168
 8904W        W24373  13.257   8.286  12.178 -0.6251 -0.0121  0.0941
 8905W        W24374  14.408  13.405  13.643  0.1990 -0.1970 -0.1726
 8906W        W24375  14.984  15.098  12.722  0.2122 -0.4918 -0.1643
 8907W        W24376   6.310  11.985   1.028  0.0354 -0.1953 -0.0604
 8908W        W24377   1.182  12.260  15.618  0.1875 -0.1607 -0.2082
 8909W        W24378   2.542  11.050   1.471 -0.0557  0.2892  0.2085
 8910W        W24379   3.404   7.564  11.362  0.0210  0.3270 -0.4726
 8911W        W24380  13.218   7.463   2.104  0.0568 -0.2230  0.0588
 8912W        W24381  14.227  15.407  14.770 -0.1434 -0.1651  0.0965
 8913W        W24382  14.132   6.798   0.344 -0.1675  0.0312 -0.1280
 8914W        W24383  13.875   9.994   2.123 -0.2082 -0.1032  0.1630
 8915W        W24384  13.663   6.334  15.906 -0.2007  0.2992  0.0313
 8916W        W24385   6.678   7.631  15.978  0.1909 -0.0706  0.2002
 8917W        W24386  18.071   3.915  13.791  0.0949 -0.4125 -0.1466
 8918W        W24387  13.793  13.102   2.922  0.1120 -0.0428 -0.0767
 8919W        W24388  11.454   5.456  15.612  0.0227  0.1863  0.0916
 8920W        W24389  17.859   3.360   0.445  0.0311  0.2278  0.1967
 8921W        W24390   8.416   5.279  10.148 -0.2602  0.1617  0.0614
 8922W        W24391   0.665   3.690  13.527 -0.0069 -0.0993  0.1090
 8923W        W24392   7.002   0.828   3.797  0.1966  0.0705  0.1118
 8924W        W24393  16.587  17.131  14.867 -0.3723 -0.1108 -0.0662
 8925W        W24394   4.883   2.716   2.625  0.1191 -0.3010 -0.0176
 8926W        W24395  15.252  14.600  15.225  0.1278 -0.1925  0.1591
 8927W        W24396   6.807   8.260   2.651  0.5795 -0.1980 -0.1962
 8928W        W24397   5.365   4.907   9.701  0.3411 -0.2644  0.0808
 8929W        W24398   8.530   9.500  12.705 -0.1139  0.0571 -0.0401
 8930W        W24399   4.950   2.744   4.835 -0.0132  0.2104  0.0398
 8931W        W24400  10.972  16.425   1.584  0.0459  0.1169 -0.0590
 8932W        W24401   9.470  14.509   5.446 -0.1109 -0.0886  0.1103
 8933W        W24402  14.705   8.721  15.316  0.1093 -0.1743  0.0968
 8934W        W24403   8.366  14.584  11.534 -0.1867 -0.0605  0.0468
 8935W        W24404  15.050   4.355   0.589  0.3227 -0.0569  0.0751
 8936W        W24405   4.115   5.296   2.684 -0.1089 -0.1252 -0.4087
 8937W        W24406   3.232   1.206   1.814 -0.1873  0.0138 -0.1401
 8938W        W24407  14.746   5.882  14.088  0.1374  0.2293 -0.2626
 8939W        W24408  10.067   9.281   0.962 -0.1555  0.2358  0.0017
 8940W        W24409  14.484   3.243   2.261 -0.3262  0.1267  0.1487
 8941W        W24410   3.224   0.662  15.380  0.1922 -0.0426  0.0156
 8942W        W24411  11.116   6.654  13.121  0.2576 -0.1067  0.0950
 8943W        W24412  12.876   2.957  15.214 -0.0738  0.1360 -0.0799
 8944W        W24413   7.401  10.494  12.308  0.5923  0.2135  0.4315
 8945W        W24414   8.444  13.580   5.098 -0.0915  0.0816  0.0337
 8946W        W24415  12.680  15.091   4.780  0.2097 -0.3083 -0.0556
 8947W        W24416  15.239   1.795  13.231  0.0223  0.0533 -0.3148
 8948W        W24417  12.668   1.781   0.025  0.0967  0.3727  0.0076
 8949W        W24418   2.524   2.540   0.763  0.3764  0.1858  0.0748
 8950W        W24419  14.752   7.052   4.533  0.0638  0.1711 -0.1578
 8951W        W24420   7.102  15.040  11.215  0.0035 -0.0162  0.2218
 8952W        W24421   3.447   5.059   2.569  0.1057  0.1748 -0.0986
 8953W        W24422   8.684   5.302  12.865 -0.1556  0.0011  0.2535
 8954W        W24423   3.812   2.271   3.130  0.1610  0.0330 -0.0403
 8955W        W24424   3.260   8.528   1.321 -0.5274 -0.0264  0.1262
 8956W        W24425   3.318   6.356   2.124  0.0312 -0.1966  0.0367
 8957W        W24426   7.681  10.679  11.237 -0.4019 -0.0953 -0.1198
 8958W        W24427   4.003  14.351  11.978 -0.0209 -0.1577  0.1393
 8959W        W24428   0.141   9.405   4.511 -0.3800 -0.3303  0.0496
 8960W        W24429  13.766  13.198  12.831  0.0315 -0.2835  0.0906
 8961W        W24430  16.842   5.669   2.531 -0.1691  0.0323  0.0174
 8962W        W24431  17.760   5.424  12.347  0.0795 -0.0748  0.0844
 8963W        W24432   0.878  14.186  12.583 -0.2656  0.2038  0.3258
 8964W        W24433  15.465  16.687  14.494 -0.0868  0.0815  0.0941
 8965W        W24434  17.531  12.207   2.076  0.1158 -0.2503 -0.1271
 8966W        W24435   2.831   2.853   0.550 -0.3052  0.0446  0.1538
 8967W        W24436  16.384   1.437  13.910  0.0064 -0.0459 -0.2942
 8968W        W24437  15.806   6.830  14.069 -0.2645  0.0017  0.1790
 8969W        W24438   4.529  17.807  12.909 -0.1382  0.0914 -0.1552
 8970W        W24439  15.890  17.463   6.538  0.3167 -0.2569  0.0856
 8971W        W24440   5.654   3.508  15.067  0.1837  0.1833 -0.1372
 8972W        W24441  17.629  13.504   5.050  0.1611 -0.3411 -0.0132
 8973W        W24442   3.352  10.080   4.626 -0.2713  0.0774  0.2278
 8974W        W24443  16.925   5.383  12.018  0.0751  0.0672  0.0521
 8975W        W24444  16.278  10.433   2.869  0.0907 -0.1451  0.1032
 8976W        W24445  17.072   3.570   1.086 -0.0231  0.0600 -0.2725
 8977W        W24446  13.247   0.415   0.204 -0.1393  0.0704 -0.3915
 8978W        W24447   3.661  15.676  13.077  0.0901 -0.0878  0.0281
 8979W        W24448   6.923   2.694   3.810  0.3125  0.1477 -0.5688
 8980W        W24449  10.864   6.570   4.503 -0.0755 -0.0573  0.1079
 8981W        W24450  10.764  16.834  15.493 -0.0283  0.1422  0.0735
 8982W        W24451  11.340   5.724  11.840  0.2492  0.0740  0.1948
 8983W        W24452   9.458  11.664   3.661  0.0684 -0.0353 -0.1192
 8984W        W24453  11.709   0.623  11.892 -0.2741  0.3438 -0.1398
 8985W        W24454  16.263   3.589  13.032  0.1928 -0.0462  0.0159
 8986W        W24455   9.493   5.228  14.926 -0.1673  0.0450 -0.2932
 8987W        W24456  10.528   6.064   1.409  0.0569 -0.2500 -0.4669
 8988W        W24457   7.164   0.247   0.655 -0.1435  0.1959  0.1041
 8989W        W24458  14.548   3.925   2.356  0.1016 -0.1097 -0.4942
 8990W        W24459  14.110   5.124   5.298  0.0546  0.2782 -0.1512
 8991W        W24460  10.621   4.231  11.346 -0.1686 -0.0530 -0.2304
 8992W        W24461   8.192  15.699   1.643 -0.1368  0.3189 -0.2030
 8993W        W24462   2.604   0.046   4.814 -0.0197  0.4023  0.0158
 8994W        W24463   2.906   8.727  14.380  0.2330 -0.0372 -0.1086
 8995W        W24464  16.696   7.856   0.280 -0.1210 -0.0662  0.1330
 8996W        W24465  15.984   2.704  14.055  0.0761 -0.2387 -0.1123
 8997W        W24466  16.622  15.375  13.750  0.2055  0.3002  0.1061
 8998W        W24467  17.190  16.744   2.259  0.2924  0.2079  0.0300
 8999W        W24468  16.615  11.501  15.443 -0.0987 -0.0283 -0.0983
 9000W        W24469   0.663  13.475  10.898  0.1208  0.1135 -0.0474
 9001W        W24470  17.653   0.290   3.300  0.3065 -0.3637 -0.1008
 9002W        W24471  10.945  10.972  15.828  0.0390 -0.0215  0.1712
 9003W        W24472  15.936  16.024  14.295 -0.4682 -0.0970 -0.1719
 9004W        W24473  14.252  13.129  10.260 -0.3410  0.2021  0.2202
 9005W        W24474   4.086   0.054   0.363 -0.0992 -0.4481  0.1132
 9006W        W24475  11.088  14.520  12.209  0.1118  0.0622  0.1841
 9007W        W24476  15.445  10.208   4.225  0.3476 -0.1166  0.2563
 9008W        W24477   8.529   8.875   1.592  0.1442 -0.0068  0.0244
 9009W        W24478  11.251  16.364   0.461 -0.0334 -0.1424 -0.0381
 9010W        W24479   0.360  16.909  11.050 -0.1232 -0.0694 -0.2425
 9011W        W24480  14.592   5.563  14.538 -0.0259 -0.1060  0.0075
 9012W        W24481  16.250   7.671   3.320  0.2659  0.1370 -0.0047
 9013W        W24482   5.730   8.935   1.216  0.3474 -0.0744 -0.1822
 9014W        W24483  15.918  18.048  11.618  0.0022 -0.0790 -0.1546
 9015W        W24484   2.552   2.089   5.677  0.0549 -0.0959 -0.4185
 9016W        W24485  15.813   3.560   1.463 -0.0837  0.0431  0.0125
 9017W        W24486   1.468  16.058  11.910  0.1676 -0.2351  0.0321
 9018W        W24487  16.823   8.176  13.874  0.0805 -0.0510 -0.0530
 9019W        W24488  16.377   4.101   5.003  0.0234 -0.0689  0.2111
 9020W        W24489  11.592  13.511  10.217 -0.1038  0.1593 -0.2676
 9021W        W24490   7.966   0.888  11.601 -0.1375  0.4080 -0.0070
 9022W        W24491  16.982   1.587  12.834  0.0110 -0.0279 -0.0438
 9023W        W24492   7.089  14.665   4.210 -0.2752 -0.1605  0.2515
 9024W        W24493   6.865  12.901   0.992  0.1235  0.1824 -0.0229
 9025W        W24494  14.999  17.253  15.888  0.0176 -0.0361  0.3520
 9026W        W24495   2.520  16.296   1.043  0.1359 -0.0573 -0.2316
 9027W        W24496  16.285   0.446  15.241 -0.2560 -0.3229  0.0791
 9028W        W24497   9.972   0.483  15.907 -0.3658  0.3972 -0.0509
 9029W        W24498   2.564   0.814  11.846  0.2817 -0.2158  0.2366
 9030W        W24499   1.078  15.988  14.111 -0.0733  0.1135 -0.3476
 9031W        W24500   0.664  15.824  13.814 -0.1072 -0.1248  0.3095
 9032W        W24501  17.306  17.310  13.597  0.0126 -0.1992 -0.1442
 9033W        W24502   3.521   3.491   5.008  0.2100  0.0665  0.3102
 9034W        W24503  11.684   5.865  15.812 -0.2866  0.1056 -0.1434
 9035W        W24504  11.674   5.275  11.539 -0.4117  0.0109 -0.1326
 9036W        W24505   3.261  17.401   1.650 -0.0647 -0.0008  0.0319
 9037W        W24506   3.218  15.006  14.165  0.0168 -0.2419  0.1520
 9038W        W24507   2.521   6.112  12.136 -0.0920 -0.0440  0.1829
 9039W        W24508   4.363  11.786   4.625  0.2702  0.0089 -0.0479
 9040W        W24509   3.253  16.323  13.458 -0.0150  0.0268 -0.0366
 9041W        W24510   3.560  14.562  12.025  0.2256 -0.1162 -0.0478
 9042W        W24511   0.854   0.039  14.005  0.0362  0.0943  0.3866
 9043W        W24512   1.514   7.187   2.799 -0.0359  0.1271 -0.1145
 9044W        W24513  13.579   5.483   2.574 -0.2796  0.3510  0.0833
 9045W        W24514   1.771  17.106   1.843 -0.1370 -0.2941 -0.1236
 9046W        W24515   2.639  17.587   1.205 -0.0298 -0.0177 -0.3704
 9047W        W24516   3.610   9.691   4.716 -0.0052  0.1726 -0.0258
 9048W        W24517   3.010  13.389   2.823  0.0708  0.1896 -0.1456
 9049W        W24518  16.665   7.785  14.280  0.0315  0.0006  0.0188
 9050W        W24519  17.622   4.918  15.329  0.0348  0.1434 -0.0108
 9051W        W24520   8.009  15.332  15.045  0.1259  0.0259 -0.1681
 9052W        W24521  11.692  17.456   6.170  0.1549 -0.0672 -0.0667
 9053W        W24522   1.279   8.029   5.672  0.2625 -0.2665 -0.2441
 9054W        W24523   4.836   0.446   3.738 -0.0849 -0.1026  0.0224
 9055W        W24524  14.606  12.145  11.852  0.0799  0.1367  0.0167
 9056W        W24525   7.315  10.378  11.482 -0.0522  0.0672  0.2224
 9057W        W24526  11.056  10.402  11.177 -0.1039  0.2910 -0.1946
 9058W        W24527  13.372  10.181   2.056 -0.0750  0.4414 -0.2137
 9059W        W24528  13.048  11.039   0.850 -0.2316  0.0411 -0.1640
 9060W        W24529   0.749  13.413  13.239  0.2319  0.1320 -0.3542
 9061W        W24530  12.160  16.202  10.598 -0.1418  0.3071  0.1774
 9062W        W24531   1.313   2.459   5.080  0.1465  0.1566 -0.0440
 9063W        W24532   0.015   1.657  15.609 -0.2591 -0.2506  0.2340
 9064W        W24533  17.905  14.154   5.565 -0.4672 -0.0265 -0.2696
 9065W        W24534  13.243   5.685   4.408  0.1413 -0.0511 -0.1924
 9066W        W24535   1.695  10.566  14.301  0.1738  0.1278  0.3273
 9067W        W24536   2.723  16.317   3.986 -0.0659  0.1360 -0.0904
 9068W        W24537  12.442  14.134   0.025  0.0348 -0.1404  0.0839
 9069W        W24538   0.558  10.141  11.709 -0.1354  0.1372  0.2330
 9070W        W24539   5.146   9.958   5.833  0.0478 -0.1111  0.1226
 9071W        W24540  16.308   7.958   2.260 -0.2458 -0.1207 -0.0743
 9072W        W24541   7.894  15.952   0.345 -0.2384 -0.1716  0.0003
 9073W        W24542  12.440  14.819   4.430  0.0125  0.0388  0.1527
 9074W        W24543   4.545   4.409   2.761  0.1809  0.0106  0.0914
 9075W        W24544   5.537   6.546   0.683 -0.2004 -0.0758 -0.0389
 9076W        W24545  15.096  10.698   1.749  0.2755  0.0721 -0.1016
 9077W        W24546   4.405   1.716   3.044 -0.0780  0.1230  0.2167
 9078W        W24547  17.598   3.356  13.880  0.0238 -0.0390 -0.1136
 9079W        W24548  17.775   6.372  15.766 -0.1251  0.1556 -0.0312
 9080W        W24549  18.180  12.712   4.256 -0.0310 -0.3028 -0.0024
 9081W        W24550   7.621  10.836   4.710  0.0283  0.1377 -0.2693
 9082W        W24551   4.625  12.854   1.499  0.0283  0.0513 -0.0025
 9083W        W24552   5.652   2.922   9.299  0.0146  0.0796  0.2275
 9084W        W24553   9.852  14.454   0.832  0.1637 -0.0421  0.3498
 9085W        W24554   8.385   5.408  13.287 -0.1825  0.2867  0.0511
 9086W        W24555   3.120   6.300   3.870  0.0064  0.0984  0.0685
 9087W        W24556   0.591   2.190   5.657  0.0892  0.0366  0.6900
 9088W        W24557   1.795  11.355   0.971  0.1754  0.0166 -0.0805
 9089W        W24558  10.822  11.220   3.425  0.2973 -0.0929  0.0339
 9090W        W24559   7.524   9.059   1.112 -0.0020 -0.0404  0.2399
 9091W        W24560   4.867   6.813   4.062  0.1953 -0.1845  0.2509
 9092W        W24561  10.449  17.013   2.796 -0.1112 -0.1668  0.0822
 9093W        W24562  13.135   5.554   6.164  0.0623 -0.0517  0.1806
 9094W        W24563  17.191   0.995   5.144  0.3018  0.0373  0.0801
 9095W        W24564  14.455   3.401   4.077  0.0507  0.1747  0.2070
 9096W        W24565   6.290   7.349   4.703  0.3935 -0.0766  0.1655
 9097W        W24566   1.227  12.817   4.671  0.0328 -0.3590 -0.0814
 9098W        W24567  13.073  16.388   1.361  0.0957  0.0671  0.1624
 9099W        W24568  17.302   9.843  14.052 -0.3096 -0.0365 -0.3407
 9100W        W24569   6.621  15.269  11.348 -0.0320  0.0596  0.0086
 9101W        W24570  16.561  17.221   1.232  0.0342  0.2521  0.0898
 9102W        W24571  14.730  12.917   4.352 -0.4535  0.0120  0.1579
 9103W        W24572  14.704   5.778  15.283 -0.1469 -0.1420  0.4070
 9104W        W24573   8.847  17.297  15.753 -0.5237 -0.0524 -0.3992
 9105W        W24574  15.912  16.020   5.844  0.0518  0.1867  0.0854
 9106W        W24575  17.453   0.985  12.165 -0.0416  0.0601 -0.0616
 9107W        W24576  17.917   2.455   6.034  0.1232 -0.3209  0.1845
 9108W        W24577  18.223  12.281  10.669 -0.2014 -0.0212 -0.1387
 9109W        W24578   4.760   7.242   3.569  0.0155  0.0845  0.1177
 9110W        W24579  11.150  12.295  13.230  0.0385 -0.3344  0.1091
 9111W        W24580  11.818   7.974  10.721  0.0429 -0.0168  0.0432
 9112W        W24581   7.928  12.623   1.059 -0.1138  0.0569  0.2465
 9113W        W24582   1.802   5.922  14.795  0.2407  0.1168 -0.0837
 9114W        W24583   6.819   7.883  13.217  0.1896  0.0759 -0.2223
 9115W        W24584  11.366   8.255   1.229 -0.0267  0.4435  0.1229
 9116W        W24585   8.513  11.028   4.227 -0.1209  0.0910  0.0848
 9117W        W24586  12.767  11.568   4.479  0.3512  0.0425 -0.0049
 9118W        W24587  13.664   8.892   2.179  0.0591  0.0918  0.0373
 9119W        W24588  15.188   7.089   1.939 -0.3863 -0.4280  0.0199
 9120W        W24589   0.852  16.045   4.671 -0.2218 -0.0310 -0.0416
 9121W        W24590   2.045   8.925   3.709 -0.1791  0.1075  0.0351
 9122W        W24591  18.195  11.202  15.612 -0.2877 -0.1209  0.1530
 9123W        W24592   5.807  15.814   4.444  0.1162  0.2839 -0.1277
 9124W        W24593  10.761   7.666  15.353 -0.0113  0.1338 -0.2613
 9125W        W24594   0.792   2.701  12.026  0.1978  0.0237  0.0272
 9126W        W24595  17.265   5.624   2.833 -0.2717  0.3076  0.1214
 9127W        W24596   5.439   0.977  12.576  0.0226  0.0691 -0.2134
 9128W        W24597   7.527   4.359  15.398 -0.0549 -0.1216 -0.3215
 9129W        W24598   5.658   5.662  13.775  0.0402  0.0239  0.0554
 9130W        W24599  14.805  11.915   4.142  0.0005  0.0779 -0.1725
 9131W        W24600  12.543  15.883  13.814 -0.1168  0.1750  0.5065
 9132W        W24601  10.385  13.148  14.023 -0.3323 -0.0263  0.1069
 9133W        W24602  17.410   4.045   4.867  0.0703 -0.1299 -0.0833
 9134W        W24603   3.952  11.935  11.098 -0.0226 -0.0709  0.2369
 9135W        W24604   4.897  16.241   1.840 -0.0867 -0.0341 -0.1861
 9136W        W24605   3.887   0.073   3.961 -0.0704 -0.2131 -0.0441
 9137W        W24606   5.788   7.172   4.653  0.1009  0.1672  0.1337
 9138W        W24607   9.539   2.793   4.022 -0.0847 -0.3513 -0.0498
 9139W        W24608   8.002  12.666  12.702 -0.1662  0.1032 -0.3679
 9140W        W24609   4.580  17.123   4.785  0.1609 -0.1630  0.1028
 9141W        W24610   8.125   0.271   0.865  0.1139 -0.0272  0.0720
 9142W        W24611  16.733  16.492  12.111 -0.0705 -0.0524  0.0907
 9143W        W24612   4.470   3.153  13.996  0.0837 -0.0055 -0.3490
 9144W        W24613   9.716   3.787   4.368 -0.0472 -0.4204 -0.0832
 9145W        W24614   5.165   6.977  11.000 -0.0090 -0.2917 -0.0850
 9146W        W24615   6.805   9.249  15.568  0.0252  0.1681 -0.0314
 9147W        W24616   5.390   7.406   9.728  0.0435  0.0546 -0.1297
 9148W        W24617   6.404   5.964  13.716 -0.1590 -0.0299  0.0554
 9149W        W24618   7.346   6.491   3.269  0.1955 -0.2774  0.2307
 9150W        W24619  17.936   9.378   0.267  0.2370 -0.1521  0.0786
 9151W        W24620   1.349  13.443  12.553  0.0730 -0.2296 -0.0084
 9152W        W24621   5.217   5.266  14.994 -0.0692 -0.0489 -0.0364
 9153W        W24622   0.494  16.513   3.409 -0.0847 -0.0154 -0.3511
 9154W        W24623   7.743  10.065   3.849 -0.4852  0.1068  0.0269
 9155W        W24624   9.741   7.308  13.693 -0.0865  0.1191  0.0013
 9156W        W24625   8.668   7.479   1.437  0.0192  0.0069  0.0421
 9157W        W24626   0.734  12.364  11.980  0.1122  0.1499 -0.2195
 9158W        W24627  12.624  11.010  12.842  0.0415  0.0219 -0.2737
 9159W        W24628   9.184   6.127   0.957  0.0568  0.0089  0.3788
 9160W        W24629  13.349  16.301   3.771  0.1003 -0.1677  0.2012
 9161W        W24630  10.986   7.157  13.236  0.3698 -0.3420 -0.1328
 9162W        W24631   8.376   5.878  10.862 -0.1117  0.3225 -0.1107
 9163W        W24632   5.919  17.028  15.891 -0.1486 -0.0557 -0.2384
 9164W        W24633   5.274   6.549   1.531 -0.0426  0.1331  0.4165
 9165W        W24634   1.359  16.665  13.522  0.0274 -0.1694  0.0136
 9166W        W24635   2.699   8.352   0.356 -0.0689  0.2957  0.2967
 9167W        W24636  14.375   4.502  16.002 -0.0367  0.1356  0.0707
 9168W        W24637  10.878  17.410  11.070 -0.1026  0.2895  0.0478
 9169W        W24638  17.487   6.526   3.135  0.2917 -0.3433 -0.0117
 9170W        W24639   4.859  17.492  14.585  0.1139  0.1141 -0.6211
 9171W        W24640   3.820  12.396   5.114  0.3238 -0.2823  0.2749
 9172W        W24641  12.237   6.629   0.060 -0.0429  0.1122  0.0523
 9173W        W24642  15.329   3.641  14.298  0.0500 -0.3857  0.1627
 9174W        W24643   9.182  11.001  10.097  0.0352 -0.0298 -0.0957
 9175W        W24644  12.027  14.144   0.383  0.0415 -0.0735  0.1648
 9176W        W24645  17.785   5.459   2.930 -0.0412  0.1572  0.0452
 9177W        W24646   3.617   0.636  12.856  0.0869 -0.1020 -0.1783
 9178W        W24647   7.396  15.084   4.257  0.1563 -0.0131  0.0573
 9179W        W24648   6.415  11.069   0.898 -0.0258  0.0381  0.0375
 9180W        W24649  13.532  10.650  15.231 -0.0496  0.2757 -0.0419
 9181W        W24650   8.198   0.337  10.635 -0.0185  0.0153  0.2432
 9182W        W24651  16.334  12.011  11.052 -0.0138  0.0026  0.1246
 9183W        W24652  17.768  13.019  14.769 -0.0210 -0.3029 -0.1354
 9184W        W24653   6.785  17.490  11.763 -0.0576  0.2150 -0.0528
 9185W        W24654   4.285  10.835   4.444  0.0675  0.3061 -0.0833
 9186W        W24655   0.923   7.449  11.896 -0.1498  0.1066 -0.3393
 9187W        W24656  11.826   4.951   4.883  0.1729 -0.1742  0.2071
 9188W        W24657   2.120   0.848   3.022 -0.1396  0.0345 -0.2836
 9189W        W24658   8.611   0.311   3.176 -0.1327 -0.0698 -0.0273
 9190W        W24659  12.962   8.545   1.385  0.1491 -0.1836  0.1160
 9191W        W24660   4.233  10.483  15.986  0.0644  0.2234 -0.1442
 9192W        W24661   1.973   5.546  15.831 -0.1456  0.1806 -0.1968
 9193W        W24662   7.362   1.349  14.255  0.0163 -0.0641 -0.0104
 9194W        W24663  16.013   9.386   0.838 -0.2331 -0.0905 -0.2903
 9195W        W24664   5.797   6.549  12.286  0.2018 -0.0303 -0.0628
 9196W        W24665   9.330   5.714   2.830 -0.1687 -0.0707  0.1693
 9197W        W24666  12.607   9.148  15.055 -0.0785  0.0457 -0.1917
 9198W        W24667  17.811   7.446   4.277 -0.1005 -0.5523  0.0172
 9199W        W24668   9.519   8.479  15.814  0.5654 -0.1080 -0.0007
 9200W        W24669  11.032   8.115  12.696  0.1532  0.0036  0.2469
 9201W        W24670   2.558   4.243   3.993 -0.0872  0.0847 -0.2333
 9202W        W24671   1.507   6.724   1.172 -0.1270 -0.1051  0.1503
 9203W        W24672   2.807   5.988  13.033 -0.2100  0.0306  0.0534
 9204W        W24673  17.942  14.669  15.901 -0.0567  0.0550  0.0073
 9205W        W24674  14.285  12.550  11.571  0.3671  0.0880  0.3520
 9206W        W24675  10.196   0.863   0.566 -0.0833  0.0190  0.4682
 9207W        W24676   8.334  10.202  12.365  0.4491  0.0689  0.0182
 9208W        W24677   7.950   4.749   3.450 -0.2565  0.1350  0.0717
 9209W        W24678  10.393  13.845  14.393  0.0962 -0.3497  0.0931
 9210W        W24679   7.863  10.250   5.499  0.4655 -0.1351 -0.0695
 9211W        W24680   6.384   9.226  12.012  0.0482  0.2185 -0.0035
 9212W        W24681  13.734   7.332   5.990 -0.1172  0.1386  0.1563
 9213W        W24682  13.555   0.718   2.527 -0.3262 -0.0232 -0.2460
 9214W        W24683  11.641   2.298  12.221  0.1730 -0.0396  0.0998
 9215W        W24684   6.409   3.235  12.414 -0.0890 -0.0470 -0.2255
 9216W        W24685   2.190   0.140  11.320 -0.2119 -0.3829 -0.3744
 9217W        W24686   4.045   0.253  15.186  0.2154 -0.1843  0.0992
 9218W        W24687   2.226  11.327   2.778  0.3899  0.0717 -0.1616
 9219W        W24688   2.757  12.481   4.953 -0.1335  0.4218  0.0182
 9220W        W24689   1.758   3.139  12.735 -0.0457  0.0047 -0.0626
 9221W        W24690  11.299   4.360   2.524 -0.3130 -0.0302  0.1529
 9222W        W24691   2.338   7.592   4.508 -0.0190 -0.2865 -0.1274
 9223W        W24692   5.664  11.363  14.727 -0.0374 -0.4525 -0.1030
 9224W        W24693  13.815   8.013  16.098  0.2466  0.0181  0.0518
 9225W        W24694   9.029   8.166   3.996  0.1567 -0.0883  0.0057
 9226W        W24695  13.705   5.139  13.347 -0.0857 -0.2656 -0.1193
 9227W        W24696  17.410  17.825  14.687 -0.0731 -0.2633  0.1180
 9228W        W24697  16.955  11.215   3.528  0.2183  0.1688  0.0772
 9229W        W24698   1.368   4.965   0.654  0.2246  0.3546  0.2554
 9230W        W24699   5.019  12.180  12.947 -0.0164 -0.0498 -0.0770
 9231W        W24700   8.273  14.584   4.172 -0.1034 -0.0920 -0.0174
 9232W        W24701   8.461   9.305   5.391  0.2338 -0.0310 -0.1334
 9233W        W24702  11.840   7.629  11.185 -0.2158 -0.0273 -0.1860
 9234W        W24703  17.541   4.609  15.741  0.1204 -0.3265  0.1005
 9235W        W24704  11.909   8.176   2.576 -0.1270  0.0713 -0.0678
 9236W        W24705  15.083   2.545  12.009 -0.2725 -0.0039 -0.1011
 9237W        W24706  16.490   4.958   2.832  0.0756 -0.0299  0.4691
 9238W        W24707   3.494  12.161   4.444  0.1252 -0.2148 -0.0926
 9239W        W24708   5.182   6.883  15.066  0.0671  0.0876 -0.0360
 9240W        W24709  15.557   9.235   5.711 -0.1850 -0.1648  0.0284
 9241W        W24710  13.462  10.799   0.042 -0.0934 -0.2596 -0.1612
 9242W        W24711  16.029  11.049  13.820 -0.2386  0.0774 -0.0225
 9243W        W24712   5.761  10.871   1.627 -0.0544 -0.0936  0.0512
 9244W        W24713  13.018  17.291  14.339  0.0619 -0.1741  0.0052
 9245W        W24714  16.588   4.790  14.352 -0.1856  0.0677 -0.2638
 9246W        W24715   8.216  12.008  15.830 -0.1159 -0.2249  0.1605
 9247W        W24716  12.236  16.396  15.537  0.0082 -0.1066 -0.0622
 9248W        W24717   2.080  15.772   5.080  0.1953 -0.0919  0.0254
 9249W        W24718   0.441  18.105   3.808  0.1098  0.0081 -0.2763
 9250W        W24719  14.150  14.252   5.193 -0.4308 -0.3263 -0.1237
 9251W        W24720  12.565   5.934  13.487  0.0272 -0.3631  0.3678
 9252W        W24721   7.323   6.552   2.347  0.2209 -0.0516 -0.1235
 9253W        W24722   7.527   2.413   1.377  0.0743 -0.1906 -0.0421
 9254W        W24723  11.419  15.573  11.111  0.2924  0.0898  0.1710
 9255W        W24724   8.185   5.389   0.518 -0.0932 -0.1062 -0.1358
 9256W        W24725   2.530  13.402   4.785  0.0062  0.1659  0.3232
 9257W        W24726   6.356   6.972  10.591 -0.2241  0.1607  0.2686
 9258W        W24727  12.693  11.155   1.529 -0.1946 -0.2175  0.0949
 9259W        W24728   9.058   7.203  12.023 -0.1305  0.0828  0.0176
 9260W        W24729   2.299  17.093   5.058 -0.1141  0.0487  0.0925
 9261W        W24730   8.469   5.425  12.360  0.2041  0.0497 -0.2624
 9262W        W24731   3.164  11.165   3.345 -0.1518  0.1482  0.0385
 9263W        W24732  13.741  12.547   1.874  0.0775  0.0307 -0.1618
 9264W        W24733  15.351   8.181  13.751  0.1082 -0.0303 -0.2885
 9265W        W24734   2.991  13.956  16.075 -0.1459 -0.0441  0.1888
 9266W        W24735   5.057  10.784   1.499  0.0505  0.0243 -0.0688
 9267W        W24736  15.097   8.675  14.651 -0.2138  0.5862 -0.1051
 9268W        W24737  12.969   9.807  14.407 -0.1740  0.0215 -0.1679
 9269W        W24738  13.716   7.957   5.887 -0.0172  0.3155 -0.1606
 9270W        W24739  13.120  12.620   5.384 -0.0047  0.0287 -0.0991
 9271W        W24740  11.687  17.243  10.800  0.0016 -0.0460  0.1708
 9272W        W24741   8.747  10.272   5.272  0.1889 -0.6597 -0.0166
 9273W        W24742  15.648   3.725  15.381 -0.1690  0.0797  0.1265
 9274W        W24743   0.937   8.200  10.780  0.2907 -0.0621  0.1729
 9275W        W24744  16.960   3.412  14.671  0.3491  0.1686 -0.1668
 9276W        W24745   5.020   7.841   0.532 -0.3142  0.4541 -0.0498
 9277W        W24746  17.436  15.203  12.762  0.0647  0.5344 -0.0128
 9278W        W24747   9.656  10.944  14.453 -0.0634  0.3413  0.0629
 9279W        W24748   8.982  16.986  11.994  0.1575 -0.0657 -0.1083
 9280W        W24749  11.446  17.799   2.197 -0.1302  0.1383  0.0138
 9281W        W24750   8.061  12.577  10.847 -0.2701  0.1213  0.2444
 9282W        W24751   9.662  13.195   2.678 -0.0258 -0.1540  0.3686
 9283W        W24752  12.831  11.159   6.118  0.0272 -0.0733 -0.0580
 9284W        W24753  15.104   7.165   0.579 -0.0026 -0.1563  0.1897
 9285W        W24754  11.459   1.799  12.372  0.0695  0.0285 -0.1726
 9286W        W24755  17.029   1.909  10.583 -0.1446  0.2779  0.3586
 9287W        W24756   0.577  14.772  14.266  0.3552  0.3041  0.1529
 9288W        W24757  15.158  16.166  12.503  0.0203 -0.2127  0.1573
 9289W        W24758   9.379   6.811   4.523 -0.1827 -0.0149  0.3685
 9290W        W24759   9.492  17.350   2.005 -0.2449 -0.2072 -0.2397
 9291W        W24760   6.363  16.380   0.134  0.3577  0.0567  0.1107
 9292W        W24761  13.123   9.278   4.041 -0.1665 -0.1647 -0.1227
 9293W        W24762  14.651  16.260   3.586  0.1168  0.0444 -0.0137
 9294W        W24763   2.035   2.129   2.606 -0.2035 -0.0316  0.0395
 9295W        W24764  13.415   8.034  11.697  0.0718  0.0977 -0.0552
 9296W        W24765   2.404   0.363  15.008  0.0864 -0.0417  0.1361
 9297W        W24766  15.046  14.636   3.206  0.0899  0.0846  0.0419
 9298W        W24767  14.093  15.742  12.559 -0.0215 -0.1606 -0.0323
 9299W        W24768   9.227   7.239   1.755 -0.0008 -0.1668  0.1825
 9300W        W24769   5.827  14.969   2.820  0.1463 -0.2055 -0.0405
 9301W        W24770  16.495  11.710  14.264  0.1056  0.0760 -0.0198
 9302W        W24771   2.673   9.845  14.837 -0.2043  0.0338 -0.1132
 9303W        W24772  15.101  10.660   3.110  0.2360 -0.2190  0.2095
 9304W        W24773   3.492   2.721  12.859  0.1831 -0.0027  0.0059
 9305W        W24774   3.463  13.073  15.368 -0.2550  0.2271  0.0023
 9306W        W24775  14.205   2.207   4.241 -0.4021  0.0127  0.1570
 9307W        W24776  17.166  11.127  12.180  0.1531 -0.1725  0.1451
 9308W        W24777  11.180  13.390  13.675  0.1745  0.2266 -0.2619
 9309W        W24778  14.553   2.972  12.725  0.0115  0.0775 -0.3017
 9310W        W24779   1.267  10.410  13.520  0.0780 -0.0550  0.1213
 9311W        W24780  12.798   2.858   2.359 -0.0850 -0.3102  0.0139
 9312W        W24781  14.126   9.971   4.064 -0.4059 -0.0786 -0.2174
 9313W        W24782   9.379   1.915  11.541 -0.1327 -0.0426  0.3897
 9314W        W24783   9.484  12.193   0.709 -0.0083 -0.0938  0.1549
 9315W        W24784  14.616   9.982   3.633 -0.3265 -0.0844  0.1821
 9316W        W24785   8.017  14.831   2.809 -0.1351 -0.1125  0.0112
 9317W        W24786  13.978  13.775   5.541  0.2852 -0.1886 -0.5012
 9318W        W24787   4.063   5.700  15.655 -0.1244  0.0895 -0.1020
 9319W        W24788   1.634   5.316  16.094 -0.0907  0.0321  0.4043
 9320W        W24789   9.750   7.120  14.596 -0.0573  0.0051 -0.0440
 9321W        W24790  12.747  13.941  14.724 -0.1591  0.0652  0.3893
 9322W        W24791  16.365   4.692  15.856 -0.0351 -0.1397  0.0796
 9323W        W24792   3.372   1.049   2.588  0.0275 -0.1855 -0.0953
 9324W        W24793   9.419   2.041   0.378 -0.2538 -0.0573 -0.0336
 9325W        W24794  12.876  17.992  14.997  0.3795  0.1543 -0.1806
 9326W        W24795  12.281   7.147  15.679 -0.2702  0.0494 -0.0253
 9327W        W24796   0.478  17.779  13.414  0.0830 -0.3977  0.1690
 9328W        W24797  12.528  10.244   1.742 -0.1569 -0.0821  0.3178
 9329W        W24798   3.759   4.609  13.557 -0.1984  0.1449 -0.0452
 9330W        W24799   7.140  15.641   1.952  0.1615 -0.1661 -0.2469
 9331W        W24800  17.561  15.069   1.077 -0.1026 -0.1218  0.1773
 9332W        W24801  14.564  11.291  11.721  0.0198  0.1516  0.0543
 9333W        W24802   4.286  11.723   2.120 -0.1300 -0.1934 -0.1447
 9334W        W24803  11.861   1.062  14.684  0.0205 -0.1210  0.0468
 9335W        W24804   2.940  10.738   1.423 -0.1546  0.1656  0.1023
 9336W        W24805  16.178   6.649   2.373  0.0572 -0.0874  0.1916
 9337W        W24806   7.453   7.347   5.385 -0.3213 -0.0057 -0.2048
 9338W        W24807  16.513  16.298  15.200  0.3003  0.1824 -0.1233
 9339W        W24808  17.464   7.048   5.084 -0.1888  0.2290  0.1247
 9340W        W24809   8.592   5.953   2.211  0.2028 -0.3364 -0.0809
 9341W        W24810  17.166   1.276  14.679  0.0750  0.1561  0.0775
 9342W        W24811   5.408  17.562  15.509 -0.1786  0.2383 -0.3106
 9343W        W24812  15.415  12.513  11.848 -0.2506 -0.2409 -0.3880
 9344W        W24813  14.239  15.411   5.386 -0.0103 -0.0137 -0.1469
 9345W        W24814   5.425   2.780   2.398  0.1473 -0.0433  0.0828
 9346W        W24815  16.554   8.176  13.049  0.1995 -0.0164  0.0646
 9347W        W24816  11.023  11.995   5.144  0.0831 -0.0752 -0.1186
 9348W        W24817  14.368   2.101   1.615 -0.1035 -0.1873  0.0704
 9349W        W24818  15.375  10.361   1.484  0.0589 -0.0594  0.1426
 9350W        W24819  12.092   5.799  13.438  0.0899  0.0144 -0.1724
 9351W        W24820  10.382  18.274  12.767  0.0538 -0.1563  0.0875
 9352W        W24821   3.553   5.501   1.773 -0.1770  0.0895 -0.0612
 9353W        W24822   2.615  11.464  12.470 -0.0434 -0.2709  0.0415
 9354W        W24823  17.740   4.677  14.835 -0.1393  0.2076  0.1390
 9355W        W24824  13.032   4.160  14.490 -0.2111  0.0724 -0.3161
 9356W        W24825   9.480  16.921  12.752 -0.2127 -0.2381 -0.0190
 9357W        W24826   7.858   9.827  13.092  0.0585  0.1693  0.3065
 9358W        W24827   3.929   6.834  11.440  0.0796  0.0032 -0.0412
 9359W        W24828  11.575   9.492  13.701 -0.1106  0.0633  0.2494
 9360W        W24829  12.581   2.363  14.522 -0.1145  0.1695 -0.2667
 9361W        W24830   2.490   7.383  14.124  0.0057 -0.0629  0.0889
 9362W        W24831   9.611   1.862  13.811  0.2070 -0.1771 -0.0828
 9363W        W24832   2.823   3.042   5.516  0.2058  0.0325 -0.0326
 9364W        W24833   1.840   3.872   1.355 -0.0764  0.1971 -0.0230
 9365W        W24834  10.904   7.919   4.455  0.1010  0.0225  0.3183
 9366W        W24835   8.029  18.250   2.011  0.1407  0.2714  0.1127
 9367W        W24836   5.831  10.527   2.006 -0.3046  0.3719  0.0061
 9368W        W24837   4.851  16.117  15.625 -0.1447  0.0736 -0.0351
 9369W        W24838  16.828  10.648  15.182 -0.0033  0.0289  0.0397
 9370W        W24839  18.235  15.885  15.183  0.0021  0.0969  0.0269
 9371W        W24840   3.280   3.731   3.184 -0.1562  0.3794  0.0574
 9372W        W24841   9.543  12.694  14.450  0.0487  0.0736 -0.1628
 9373W        W24842  12.520   0.525  10.582 -0.1601  0.1690  0.0277
 9374W        W24843  16.372   2.073  15.334 -0.2340 -0.1063 -0.0531
 9375W        W24844  16.838  15.090  14.156 -0.2966  0.0634  0.0865
 9376W        W24845   1.844   5.927   2.440  0.3768  0.1029 -0.0737
 9377W        W24846   3.537   8.298  11.624  0.1432  0.0542 -0.0224
 9378W        W24847   2.510   4.715   0.586 -0.2370 -0.1436 -0.0345
 9379W        W24848  14.127   1.251   1.192  0.0388  0.0182 -0.2118
 9380W        W24849   1.579  17.938   3.810  0.0885 -0.1010 -0.0894
 9381W        W24850   8.657   4.363   3.962 -0.0840 -0.1379 -0.1245
 9382W        W24851  16.093  10.821  15.666  0.1852 -0.1067  0.2250
 9383W        W24852   9.930   2.601   0.855 -0.0791 -0.1487 -0.0906
 9384W        W24853  17.342   6.814   0.877 -0.1069 -0.1944  0.0422
 9385W        W24854  17.485   8.301   1.436 -0.1807 -0.1567 -0.4710
 9386W        W24855   4.400   5.793  12.999  0.2398 -0.0193 -0.1368
 9387W        W24856   2.059  16.361   5.639  0.1536 -0.0424  0.0860
 9388W        W24857   6.299   0.283   0.992  0.0947 -0.1105 -0.0539
 9389W        W24858   5.726   7.701  15.983  0.2470 -0.2040  0.2370
 9390W        W24859  10.028   9.095   1.858  0.1319 -0.2374 -0.0270
 9391W        W24860  17.325   8.189   1.891  0.7116  0.0446 -0.1358
 9392W        W24861   3.242   5.243   5.442  0.0959 -0.0951  0.3169
 9393W        W24862  10.605   4.238  14.522 -0.0663  0.0406 -0.1038
 9394W        W24863  16.556   6.498  15.150  0.0318 -0.1570  0.2961
 9395W        W24864   6.643  11.496   4.116 -0.3361  0.2640  0.1844
 9396W        W24865  15.134   4.284   4.616 -0.0381  0.2106 -0.0354
 9397W        W24866  14.609   5.896  15.766  0.2818 -0.1925  0.0529
 9398W        W24867   7.578   1.660   5.125 -0.0167  0.1868 -0.1614
 9399W        W24868  10.429  18.210  13.302  0.0531 -0.2409  0.3405
 9400W        W24869  14.526  18.015  14.268  0.0623 -0.2145  0.0104
 9401W        W24870   8.220  13.834   3.904 -0.3321 -0.0330  0.2783
 9402W        W24871  16.715  10.430   3.787 -0.0982  0.0873  0.1720
 9403W        W24872   6.849  16.256   1.617 -0.1078 -0.3625  0.1395
 9404W        W24873   2.532   1.479  12.612 -0.2400 -0.0073 -0.0979
 9405W        W24874  17.295   9.690   4.063 -0.3097  0.0394  0.0525
 9406W        W24875   5.795   9.553   3.727  0.0647  0.0630 -0.2012
 9407W        W24876  13.672   2.272  12.686  0.0386  0.0849  0.2214
 9408W        W24877  17.089   9.317   4.768 -0.1079  0.0710 -0.0991
 9409W        W24878  16.296  12.474  15.499 -0.1299 -0.1895 -0.1196
 9410W        W24879  15.922   2.758  10.682 -0.1131  0.0341  0.4094
 9411W        W24880  10.143   7.549  11.147 -0.2656 -0.0505  0.0413
 9412W        W24881  13.944  12.112  13.531 -0.1914  0.3337 -0.3149
 9413W        W24882   9.699   0.341   5.998 -0.1353  0.0571  0.0387
 9414W        W24883   3.474  10.597  13.931 -0.0019 -0.3397 -0.2264
 9415W        W24884   9.516  12.837   0.122  0.0466  0.0352 -0.0173
 9416W        W24885   8.160  17.079   2.423  0.1086 -0.0362  0.2729
 9417W        W24886   5.154  15.339  15.911  0.0531  0.0232  0.3496
 9418W        W24887  14.734   4.916  15.745  0.1402 -0.0231  0.2474
 9419W        W24888   0.455   7.859  12.594  0.1389  0.0699 -0.1918
 9420W        W24889  13.510  11.375  15.899  0.1527  0.0575 -0.0606
 9421W        W24890  16.023   5.891  14.891 -0.0147 -0.2344  0.0153
 9422W        W24891  17.218   0.308  14.146 -0.4316  0.3071  0.1980
 9423W        W24892   2.479  17.140   1.235 -0.0309 -0.0998 -0.1016
 9424W        W24893   3.388   4.839   0.548  0.0052 -0.1533 -0.2854
 9425W        W24894  12.077  15.679   3.369  0.3889 -0.2435  0.1043
 9426W        W24895  14.891  17.301  14.329 -0.1114  0.0025 -0.1154
 9427W        W24896   2.304   5.945  14.686 -0.2789 -0.1298  0.3546
 9428W        W24897   4.424  10.753  15.564  0.0909 -0.5362 -0.3092
 9429W        W24898  14.467  16.905  13.498 -0.1278 -0.1057  0.0731
 9430W        W24899  11.718   6.814  14.730  0.1593 -0.1246  0.2037
 9431W        W24900   7.824   7.576   4.492  0.2766  0.0296  0.1447
 9432W        W24901  13.351  17.096   0.488  0.0042 -0.0775 -0.0848
 9433W        W24902   5.048  11.572   3.040  0.1142  0.3194  0.1049
 9434W        W24903  13.101   1.393   0.217 -0.4217  0.0636  0.2596
 9435W        W24904  12.839   7.049   5.078 -0.1275  0.1695 -0.1961
 9436W        W24905   9.210   5.016  15.276  0.2974  0.0441 -0.2830
 9437W        W24906  11.194  10.692   3.181  0.1025 -0.0347 -0.2930
 9438W        W24907   6.613   5.788  10.704  0.0525  0.1898  0.1846
 9439W        W24908   6.531  14.132  14.398 -0.0636  0.0507 -0.0788
 9440W        W24909  17.392  13.773  15.495 -0.1847 -0.0019  0.1454
 9441W        W24910   7.099   5.349   5.375 -0.2119 -0.1121  0.0427
 9442W        W24911  16.440  18.230  13.034  0.0599 -0.0626  0.0637
 9443W        W24912   1.328  17.227  11.322 -0.1673  0.3552  0.1599
 9444W        W24913   5.119  13.062   2.710  0.1740  0.5045 -0.0052
 9445W        W24914   2.524   9.403  13.135  0.1655 -0.1803  0.3626
 9446W        W24915   5.198   1.012   1.085  0.0997 -0.2455  0.1829
 9447W        W24916  12.727   5.820   6.080 -0.3365  0.2224  0.2576
 9448W        W24917   7.970  10.914  13.042 -0.2617 -0.0476  0.0924
 9449W        W24918  10.505  16.202  12.827 -0.1429 -0.1561  0.3027
 9450W        W24919   3.470  10.996   0.641  0.2843 -0.0490 -0.1901
 9451W        W24920   5.861  10.640  10.544  0.1394  0.1122  0.1037
 9452W        W24921   5.204  15.278   4.491  0.2450  0.0192 -0.0553
 9453W        W24922   8.291   0.298  11.886  0.0687  0.1443 -0.1704
 9454W        W24923  10.186   9.699  16.031  0.0775  0.0376 -0.1107
 9455W        W24924   5.171   1.994  12.859  0.0619  0.0971 -0.0072
 9456W        W24925  10.989  18.057   1.446 -0.1340 -0.0396  0.0853
 9457W        W24926  12.737  11.388   0.979 -0.1455  0.1078  0.0851
 9458W        W24927   8.141  14.550  15.377 -0.0938  0.2546  0.4168
 9459W        W24928   5.150   4.159   0.766 -0.0103 -0.2278 -0.2383
 9460W        W24929   6.380  13.254   2.814  0.2076 -0.0570 -0.1708
 9461W        W24930   6.640   4.742   2.880  0.0755  0.2930  0.3435
 9462W        W24931   5.075   5.071   5.478  0.1434 -0.1207 -0.0320
 9463W        W24932   9.547  12.381   3.146  0.0184  0.0223  0.0092
 9464W        W24933  16.362  16.765   3.223  0.2007  0.0353  0.1298
 9465W        W24934  10.946  10.169  11.594 -0.3458  0.0808 -0.1307
 9466W        W24935  16.120  11.515  15.435  0.4213  0.2339  0.4160
 9467W        W24936  13.522  12.959  11.225 -0.1649  0.0706 -0.0135
 9468W        W24937   2.208   9.122  15.551  0.1273 -0.0344  0.1426
 9469W        W24938  16.081  17.462   4.880  0.3180 -0.3039 -0.0749
 9470W        W24939  15.131  13.037  11.756 -0.0374 -0.2486 -0.1372
 9471W        W24940   2.588  18.081   5.339  0.3752 -0.0730 -0.0605
 9472W        W24941   8.981   4.491  15.325 -0.0599 -0.0668 -0.0085
 9473W        W24942   0.806  17.882  15.689  0.1178 -0.1403 -0.0183
 9474W        W24943  10.218   6.957   0.949  0.2918 -0.0703 -0.1102
 9475W        W24944  10.748   6.553  13.475  0.1151  0.1085 -0.1122
 9476W        W24945   0.175   0.939  12.132 -0.1531 -0.2319 -0.4430
 9477W        W24946  12.676  13.451   3.892 -0.2087  0.1237 -0.1183
 9478W        W24947   4.603  18.232   2.973  0.1826  0.0951 -0.0203
 9479W        W24948   7.206   0.710   4.594  0.0052 -0.0313  0.0797
 9480W        W24949   3.026  10.642   5.286 -0.2154  0.0566 -0.0610
 9481W        W24950   7.968   3.320   5.060 -0.2592  0.1866 -0.1457
 9482W        W24951  17.284  17.920  13.328  0.0607  0.0773  0.0878
 9483W        W24952  13.565   3.171  16.070 -0.0452  0.0511 -0.3391
 9484W        W24953   8.695   4.864   1.573 -0.1871  0.1900  0.3388
 9485W        W24954   5.297   1.644   0.408  0.1571 -0.0321  0.0040
 9486W        W24955   5.694  17.927  11.150  0.0564 -0.2884 -0.0375
 9487W        W24956   7.866  13.213  14.317 -0.0971 -0.0760 -0.0994
 9488W        W24957   8.699  14.931   1.222 -0.1577  0.0331  0.1077
 9489W        W24958  14.987  12.652  13.101  0.0342  0.1345 -0.0135
 9490W        W24959   3.454   0.753   0.267 -0.0329  0.0291  0.0275
 9491W        W24960  17.511  17.746   4.252  0.0955  0.3121  0.1918
 9492W        W24961   8.522   6.532  15.041 -0.1211  0.1932 -0.0803
 9493W        W24962   0.730  10.995   1.628 -0.3633  0.0747 -0.0113
 9494W        W24963  14.718   7.308  15.791 -0.0959 -0.0409 -0.0669
 9495W        W24964   7.557   6.512  15.419  0.4421 -0.0406 -0.1303
 9496W        W24965  13.051  17.453  10.747  0.0492  0.0558 -0.1032
 9497W        W24966  17.763   0.511   4.337  0.1274 -0.0287 -0.1368
 9498W        W24967  13.946  16.925  14.538 -0.2087 -0.3703 -0.3244
 9499W        W24968   7.168  12.081   2.518 -0.0613 -0.0125 -0.1932
 9500W        W24969   3.615  14.372  14.965  0.1344 -0.3416  0.2291
 9501W        W24970  10.670  15.095   5.451 -0.3108  0.2089  0.3136
 9502W        W24971  13.328   2.928   4.742 -0.2204 -0.0080  0.1866
 9503W        W24972  12.611   5.802   0.425 -0.4606  0.0192 -0.1047
 9504W        W24973   1.150   1.116  12.631  0.4149  0.0406 -0.2013
 9505W        W24974   0.992  16.858  12.137  0.3528 -0.1828 -0.0238
 9506W        W24975   3.468  15.214  12.899  0.2163  0.2001 -0.0840
 9507W        W24976  13.958  13.760   4.512  0.1226 -0.2993  0.1488
 9508W        W24977   9.457   5.581  14.140  0.0598 -0.0901  0.2105
 9509W        W24978   3.180   7.709   4.157  0.3519  0.1151  0.0381
 9510W        W24979   9.249  18.088  14.170 -0.2062  0.0423  0.0677
 9511W        W24980  17.640  14.972   3.645 -0.0304 -0.1100  0.0814
 9512W        W24981  17.543   8.591  15.883  0.1301 -0.1311  0.3225
 9513W        W24982  15.339  15.061   2.629 -0.1387 -0.3019 -0.0192
 9514W        W24983   5.771  12.012   2.426  0.4078  0.0683  0.0169
 9515W        W24984  11.618  15.175   3.867  0.1920  0.1278  0.1738
 9516W        W24985  10.390   2.577   2.951  0.1096 -0.5449 -0.0948
 9517W        W24986   3.729   4.270   1.840 -0.3020 -0.0235 -0.3716
 9518W        W24987   9.127   2.434   3.353  0.1259  0.1665  0.1731
 9519W        W24988   6.965  15.996  10.897 -0.0680 -0.2618  0.1774
 9520W        W24989   2.819   2.343   3.397  0.1308  0.1421  0.0419
 9521W        W24990  17.154  10.704   2.327  0.1664 -0.0251 -0.2066
 9522W        W24991  12.901  17.770   3.025 -0.0416  0.1117 -0.0657
 9523W        W24992  13.144   6.242   2.758 -0.1775 -0.0642  0.2281
 9524W        W24993   4.505   4.534   4.701 -0.1094 -0.2454 -0.1347
 9525W        W24994   8.444   5.400   1.774 -0.2586 -0.0980  0.2703
 9526W        W24995   6.291  14.272   4.460 -0.0544  0.0487  0.0757
 9527W        W24996  16.270  14.232   3.871  0.1610 -0.2297 -0.0942
 9528W        W24997   1.902   6.366  12.433  0.0780 -0.2571 -0.0100
 9529W        W24998  10.090   8.914  13.900 -0.0649  0.0714 -0.3494
 9530W        W24999   3.330   4.118   3.532  0.1593 -0.1399  0.3469
 9531W        W25000   2.798   9.155  10.888 -0.1549  0.3725 -0.1938
 9532W        W25001   8.296  16.283  15.018 -0.1979 -0.3301  0.1028
 9533W        W25002   2.527   9.682   0.086 -0.0763 -0.0534 -0.1857
 9534W        W25003   9.042  14.879   2.813  0.0349 -0.0981  0.0893
 9535W        W25004  12.034  17.777  12.059  0.1640 -0.2471 -0.0613
 9536W        W25005  13.332   1.810   1.524  0.0408 -0.0292  0.1387
 9537W        W25006   6.321  15.870   5.672 -0.0409 -0.1108 -0.2822
 9538W        W25007  13.497   1.189  15.976 -0.1990 -0.0446 -0.1176
 9539W        W25008   2.607  11.516   3.723 -0.0414 -0.1476 -0.1653
 9540W        W25009   5.214   2.318  14.789 -0.1487 -0.0999 -0.0979
 9541W        W25010   6.699   5.309   0.691 -0.0335 -0.1854 -0.0688
 9542W        W25011   3.147   1.815  14.543  0.1020  0.1169  0.1205
 9543W        W25012  12.994   0.633  13.422  0.2012  0.1461  0.1473
 9544W        W25013  18.161  16.458   2.538 -0.1436 -0.1561  0.0089
 9545W        W25014   5.375   5.875   2.596  0.1385 -0.1116 -0.0991
 9546W        W25015   0.975   4.988   2.828  0.0346  0.0251  0.1042
 9547W        W25016   8.513   7.686  13.190  0.0147 -0.0616  0.0469
 9548W        W25017  17.326  14.220   2.335 -0.1107 -0.3109 -0.1197
 9549W        W25018   6.052   7.554  10.415 -0.1412  0.1349  0.1587
 9550W        W25019  17.882  15.878  13.925  0.1047  0.0320 -0.2102
 9551W        W25020   4.734   1.720   2.650  0.2605  0.0145  0.1089
 9552W        W25021   7.464   4.921  13.293  0.2230  0.1300 -0.0157
 9553W        W25022  18.270  11.390  14.045 -0.1755 -0.1042 -0.2702
 9554W        W25023   9.684  13.766  12.653 -0.2396 -0.1900  0.0320
 9555W        W25024  16.811   0.382   5.907  0.0742 -0.0688 -0.0190
 9556W        W25025  14.718   2.452   5.903 -0.2580  0.1224 -0.0792
 9557W        W25026   7.885  16.549   1.645  0.0246 -0.5071  0.1233
 9558W        W25027  13.296   3.975  15.826  0.2227  0.2968  0.0331
 9559W        W25028  16.611  16.734  12.584 -0.0620 -0.0052  0.0261
 9560W        W25029   9.608  14.546   0.260  0.2579  0.0823 -0.1638
 9561W        W25030  16.237  14.486   3.081  0.3045  0.2045 -0.0138
 9562W        W25031   1.809  12.408   2.006  0.1464 -0.2547  0.0373
 9563W        W25032   1.596  15.360  12.723 -0.1028 -0.0407  0.0521
 9564W        W25033   4.113   0.830   4.471 -0.1705 -0.0441  0.1310
 9565W        W25034  10.987   5.321   2.490  0.2831 -0.0497  0.1807
 9566W        W25035  12.373   0.467   5.486 -0.1204 -0.1299  0.1503
 9567W        W25036   8.286  14.281   4.598  0.0688 -0.1291  0.1900
 9568W        W25037   3.970  10.791  15.717 -0.3755 -0.0349 -0.2115
 9569W        W25038  12.231  14.118   1.965  0.2659 -0.1095  0.0295
 9570W        W25039  16.649   6.561   2.559 -0.3499 -0.0389 -0.1059
 9571W        W25040   7.738  15.376   4.461  0.0100 -0.0399  0.1223
 9572W        W25041  16.883  13.385   0.367 -0.1575 -0.0273  0.1961
 9573W        W25042  13.998  18.192   4.355 -0.0880  0.2289 -0.1105
 9574W        W25043  11.940  16.055  15.239 -0.0490  0.1417 -0.0547
 9575W        W25044   5.591   1.565   3.155 -0.2420 -0.0838  0.1714
 9576W        W25045   5.967  13.874   4.788 -0.0620 -0.0080 -0.0453
 9577W        W25046  12.550   3.370  12.993  0.0399 -0.1537  0.0647
 9578W        W25047   9.437   6.348   4.706  0.2157  0.1898  0.0321
 9579W        W25048   0.625  16.710  12.455 -0.5959  0.2452  0.0147
 9580W        W25049  11.343   5.479  11.120  0.2766 -0.0693  0.0726
 9581W        W25050   0.222   0.754   5.435  0.2088  0.0774  0.0961
 9582W        W25051   2.449  13.615  11.151  0.0972  0.2385 -0.1145
 9583W        W25052   6.808   3.960   2.933  0.2152  0.4331 -0.1475
 9584W        W25053  14.658   1.414  12.927  0.2172 -0.1641  0.2325
 9585W        W25054   5.517  12.395  12.423 -0.1398 -0.1370 -0.4319
 9586W        W25055  14.168   6.975  14.838  0.0054 -0.2485  0.0340
 9587W        W25056  11.743  14.226   4.964 -0.1907  0.1391 -0.1105
 9588W        W25057   9.520   4.425  12.060  0.2987  0.0646 -0.1005
 9589W        W25058   6.588   5.532   1.963  0.0255 -0.2036  0.0388
 9590W        W25059  13.286  16.723   4.479  0.0517  0.2662  0.0356
 9591W        W25060   0.564   2.421   3.931  0.1305  0.1592 -0.2110
 9592W        W25061   5.283  14.141   0.693 -0.0265 -0.2229  0.1928
 9593W        W25062   5.105  18.096   0.314 -0.1044 -0.0361 -0.0007
 9594W        W25063   6.530   6.095   9.798  0.0697 -0.0242  0.1072
 9595W        W25064  11.359   0.557  12.309 -0.1499  0.1081 -0.1733
 9596W        W25065  13.360  13.451  14.391 -0.2451 -0.0835  0.1012
 9597W        W25066  16.246   4.623   4.957  0.0059  0.2811 -0.0040
 9598W        W25067  15.423  14.829   3.978  0.3666  0.0811  0.0108
 9599W        W25068  12.831  13.088  13.666  0.3412  0.2878 -0.0512
 9600W        W25069   4.216  10.156  13.492 -0.1442  0.1634  0.0193
 9601W        W25070   7.186   1.214  11.522  0.3106  0.1287 -0.0506
 9602W        W25071  12.085   3.258   1.201  0.0549  0.4611  0.5487
 9603W        W25072  14.297   5.051  13.969 -0.1186 -0.1418  0.0721
 9604W        W25073  17.487  15.059  15.597 -0.1815  0.1463  0.0059
 9605W        W25074  12.210  13.642  11.125 -0.2996  0.0353 -0.0175
 9606W        W25075   3.086   0.105  15.051 -0.0102  0.0170 -0.0115
 9607W        W25076   0.232  13.226   2.040  0.2294  0.1229  0.0249
 9608W        W25077   9.982  17.786   0.381 -0.0515  0.0715  0.0526
 9609W        W25078   4.373  13.438  13.992 -0.0031  0.0926  0.1040
 9610W        W25079  11.447  10.304   1.202 -0.2057 -0.2146  0.1417
 9611W        W25080   6.365   2.764  10.331 -0.0052 -0.0513  0.4858
 9612W        W25081   0.648  12.952   5.295 -0.2423  0.0924  0.0265
 9613W        W25082   2.398   4.000  13.158 -0.0012  0.4805  0.1692
 9614W        W25083  13.956   6.590  12.504  0.1665 -0.0799 -0.0497
 9615W        W25084   1.267   6.779  15.193  0.0424  0.1494  0.0827
 9616W        W25085   5.578  13.504   5.122  0.3104  0.1486  0.2985
 9617W        W25086  15.655  11.660   0.254  0.2103 -0.1282 -0.0430
 9618W        W25087   1.408  15.541   5.394 -0.1498 -0.0130  0.1169
 9619W        W25088   0.778  14.626  11.031  0.1389 -0.0572 -0.2115
 9620W        W25089  16.587  12.599   0.946 -0.0308 -0.0432 -0.0223
 9621W        W25090  17.115   5.874  15.902  0.0379 -0.0158 -0.2987
 9622W        W25091   4.053   2.697  15.278 -0.0934 -0.0653  0.0942
 9623W        W25092   3.382   2.740   1.412  0.0175 -0.0888 -0.3942
 9624W        W25093   1.584   2.655   5.486  0.0989  0.3650 -0.1807
 9625W        W25094  18.059  14.292   4.531 -0.1372 -0.0465 -0.1699
 9626W        W25095   0.806  12.875  14.388 -0.1699  0.2011 -0.0012
 9627W        W25096  12.172   9.378   4.836  0.2843  0.1320  0.0637
 9628W        W25097   2.882   4.625   3.605 -0.2987  0.0679 -0.1613
 9629W        W25098  13.807   8.148   1.769  0.2236  0.0191  0.1171
 9630W        W25099   8.423  17.788   0.767  0.0373  0.2087  0.0584
 9631W        W25100  16.475   5.331   0.543  0.1800 -0.0256  0.1947
 9632W        W25101  11.850   4.348   1.014 -0.1350  0.0667 -0.2882
 9633W        W25102   1.579  14.157  13.497  0.2033 -0.2017 -0.4124
 9634W        W25103  13.502   4.378  14.259  0.1463  0.0965 -0.0949
 9635W        W25104   6.119  12.530  12.869 -0.0699  0.1757  0.0518
 9636W        W25105  15.689  15.220  13.209 -0.4847  0.3498  0.0364
 9637W        W25106  14.075   1.760  12.165  0.2121  0.1225 -0.2242
 9638W        W25107   9.984  18.027  15.571  0.0098  0.2200 -0.1501
 9639W        W25108  10.678   4.111   0.696 -0.2068 -0.0352 -0.1672
 9640W        W25109   8.726   9.391  11.460  0.0303  0.4005 -0.0065
 9641W        W25110  14.812   4.476   1.035 -0.2397 -0.1409 -0.0382
 9642W        W25111   7.600   2.607  14.645 -0.1488  0.1179 -0.0473
 9643W        W25112  12.875   0.053   5.066 -0.0741  0.3698 -0.0435
 9644W        W25113  12.967   8.032  12.718 -0.1654  0.0054 -0.1627
 9645W        W25114  15.635  10.608   0.666  0.1512  0.2509  0.0152
 9646W        W25115  11.274   4.666   3.950  0.0256  0.3022 -0.0332
 9647W        W25116   1.891  17.304  11.073  0.0084 -0.0298  0.0025
 9648W        W25117  17.267  11.613  15.491  0.1909  0.1812  0.0131
 9649W        W25118  10.278   7.845   3.449  0.3539  0.1308  0.0582
 9650W        W25119   3.994   7.366  13.892 -0.2358 -0.2285  0.2883
 9651W        W25120   4.101  14.109   5.097  0.3051 -0.1846  0.0467
 9652W        W25121  15.606   1.301   3.505 -0.0371  0.0194 -0.1126
 9653W        W25122   1.685  16.179  13.381 -0.1585 -0.1988 -0.1247
 9654W        W25123   9.868   0.741  15.091 -0.2697 -0.2114  0.0681
 9655W        W25124   6.746  15.601   0.160 -0.1211 -0.0580  0.4999
 9656W        W25125  15.775  17.994  14.280  0.4673  0.2408 -0.1372
 9657W        W25126  11.454   2.259   4.461 -0.2185 -0.0191 -0.2109
 9658W        W25127  17.552   5.521   1.456 -0.3896  0.0572  0.1471
 9659W        W25128  14.848  17.018   1.583  0.3066 -0.0129  0.0090
 9660W        W25129   5.700   4.478  14.092 -0.0676  0.0342  0.2959
 9661W        W25130   6.350   0.323  13.744  0.0730  0.2246  0.0960
 9662W        W25131   3.362  17.230  13.299 -0.2924  0.1086  0.3461
 9663W        W25132  10.728   4.650   1.472 -0.1015  0.1911  0.0864
 9664W        W25133   4.639   0.855   3.188  0.3219  0.3464  0.1658
 9665W        W25134   1.489   4.639   2.723  0.1852 -0.1693 -0.0939
 9666W        W25135   4.012   3.880  15.700 -0.0241  0.2651  0.0355
 9667W        W25136  15.994   3.784   4.440 -0.1239 -0.0875 -0.3059
 9668W        W25137   9.094  13.745   0.100  0.1193 -0.0617  0.0560
 9669W        W25138   4.766   2.445  14.719 -0.0339 -0.2303  0.1544
 9670W        W25139  16.944   7.771  14.740 -0.1013 -0.2691 -0.0033
 9671W        W25140   5.605   1.870  12.561  0.0698  0.1904  0.0704
 9672W        W25141   6.132   6.735   3.647  0.0088 -0.0883 -0.0581
 9673W        W25142   8.403   2.626   4.809  0.3265  0.0395 -0.1556
 9674W        W25143   4.125  17.002   1.725  0.2815 -0.1811  0.0009
 9675W        W25144  14.819  13.162  15.176  0.1667  0.1339  0.0625
 9676W        W25145   7.112  10.197  12.642  0.0232 -0.1908  0.5226
 9677W        W25146   4.039   9.099   1.598  0.0147  0.0222 -0.2401
 9678W        W25147   9.144   8.378   4.546 -0.1098 -0.2049 -0.2531
 9679W        W25148   8.969   9.976   1.888 -0.0737 -0.0788 -0.3254
 9680W        W25149   3.392  15.981  14.135 -0.0492  0.1634  0.3408
 9681W        W25150  17.536  11.202   4.367  0.2133 -0.0159  0.1400
 9682W        W25151   4.983   5.019  11.192  0.0005  0.1355  0.2723
 9683W        W25152  16.800   9.698   5.392 -0.0790 -0.3582  0.1635
 9684W        W25153  11.289  15.781  12.033 -0.2159 -0.1459 -0.0888
 9685W        W25154  17.085   4.304  14.833 -0.2840  0.0496 -0.1532
 9686W        W25155  10.793   1.806  12.399 -0.0867  0.0928  0.1515
 9687W        W25156  18.122  14.274   3.420 -0.0781 -0.4374 -0.2004
 9688W        W25157   0.976   0.931   4.427  0.1804 -0.0916 -0.3634
 9689W        W25158  17.173   9.579   2.005 -0.2383  0.0154 -0.1632
 9690W        W25159  14.166   5.780  15.489 -0.2675  0.3508 -0.1073
 9691W        W25160   9.920   4.006   3.547 -0.1593  0.2030  0.1972
 9692W        W25161   3.178  15.101   0.839 -0.0567 -0.2514 -0.0354
 9693W        W25162   0.710  12.263  10.520 -0.0735 -0.0089 -0.1622
 9694W        W25163   2.246  12.233  12.652  0.0211  0.3896 -0.0485
 9695W        W25164  11.186   2.688  15.790 -0.0860 -0.1504 -0.2493
 9696W        W25165   9.206   9.271  10.453  0.4738  0.0326 -0.0969
 9697W        W25166  15.484  10.169   2.551 -0.1010 -0.1358 -0.1550
 9698W        W25167  12.199   5.296   0.388 -0.0564  0.4639 -0.4317
 9699W        W25168   7.332   3.062  14.607  0.1204 -0.1776 -0.0360
 9700W        W25169  14.822   2.218   5.399  0.0296  0.0303 -0.0074
 9701W        W25170  14.122   7.567   2.735  0.0997 -0.0053  0.0216
 9702W        W25171  16.681   9.537   1.665 -0.2653 -0.0998 -0.0392
 9703W        W25172   7.078  15.136   2.001 -0.0368  0.1170  0.2677
 9704W        W25173   8.870  16.401  12.058  0.0089 -0.1647  0.1698
 9705W        W25174  14.623   7.462  13.786 -0.2541  0.2448  0.0445
 9706W        W25175   0.371  11.971  13.838 -0.1456 -0.0392  0.0181
 9707W        W25176  14.264   8.965  12.668  0.0091 -0.0546  0.0532
 9708W        W25177   1.956   4.517  14.842 -0.0055  0.1781  0.1032
 9709W        W25178  12.022   2.424  11.864  0.1168 -0.1726 -0.1115
 9710W        W25179   7.238  15.167   0.065 -0.1015  0.2595  0.2521
 9711W        W25180   4.487   3.721  12.859 -0.2370 -0.0252 -0.3115
 9712W        W25181  14.291   2.920   0.642  0.1223 -0.3114 -0.0371
 9713W        W25182   5.084   4.429   3.124  0.2489  0.0734  0.1014
 9714W        W25183  16.534  17.614   4.186 -0.1865  0.1310 -0.0810
 9715W        W25184  10.343   7.373   5.317  0.2249  0.1489 -0.0207
 9716W        W25185   6.018   0.231   2.494  0.0678  0.1424  0.1085
 9717W        W25186  10.353   0.294   0.527 -0.2516 -0.0532  0.0859
 9718W        W25187   5.900   7.488   1.002  0.2220 -0.0096  0.1183
 9719W        W25188  16.730   5.569   1.780 -0.0688  0.0121 -0.1149
 9720W        W25189  16.746  10.071  13.786  0.2286  0.0885  0.0629
 9721W        W25190  16.351  15.293  14.450 -0.1193 -0.0603 -0.2616
 9722W        W25191   9.486   6.551   0.773  0.1152 -0.3527  0.0179
 9723W        W25192  15.511   3.756   3.097 -0.1240  0.1193 -0.0341
 9724W        W25193  17.802   2.369  11.404 -0.0248  0.2294 -0.1805
 9725W        W25194  16.138  14.003  14.885  0.1445  0.1190  0.1072
 9726W        W25195  12.506  12.602   3.538 -0.3188 -0.0443 -0.0045
 9727W        W25196  11.006  11.766   4.364 -0.0023 -0.1793 -0.1159
 9728W        W25197   0.240   6.956  13.765  0.2062 -0.2582  0.2039
 9729W        W25198   8.750   6.743  13.034 -0.1069 -0.1740  0.3168
 9730W        W25199  12.273  10.499   0.456  0.1551 -0.2399  0.0964
 9731W        W25200  17.946  14.852  12.301 -0.1719  0.1191  0.1218
 9732W        W25201   4.412  14.327  14.857  0.2615 -0.1221  0.0547
 9733W        W25202   4.223   2.048   1.378 -0.1068  0.1741 -0.2815
 9734W        W25203   4.417  17.579  15.778  0.1402  0.0236 -0.2305
 9735W        W25204  10.640   7.987  15.769  0.1515  0.1297  0.0309
 9736W        W25205   4.323   3.622   3.031  0.2815 -0.1784 -0.1404
 9737W        W25206   0.695   8.548  14.946 -0.1659 -0.3556  0.0158
 9738W        W25207   9.540  10.661  15.145 -0.0549  0.2493 -0.3400
 9739W        W25208  15.983  14.875  13.555  0.0850 -0.0244  0.0242
 9740W        W25209   9.197   2.955   3.618 -0.4895 -0.2478  0.0837
 9741W        W25210   8.778   8.311   0.450 -0.1021  0.2312 -0.2303
 9742W        W25211   5.280   0.702   3.412 -0.2239  0.1509 -0.2978
 9743W        W25212   8.121   9.311   4.157  0.1054  0.1372 -0.0783
 9744W        W25213  13.454   6.329   5.051 -0.2515 -0.2381 -0.2415
 9745W        W25214   6.044   4.510  11.518 -0.0691  0.4527 -0.4113
 9746W        W25215  15.200  15.434  13.378 -0.5068  0.3264 -0.0080
 9747W        W25216   7.333   4.153  13.302  0.1926  0.0209 -0.0772
 9748W        W25217   3.470  16.398  13.874  0.3130  0.0422  0.1803
 9749W        W25218  17.341   0.863  11.301 -0.2267  0.3169 -0.4901
 9750W        W25219   0.244  15.142   1.592 -0.0479 -0.0265 -0.0152
 9751W        W25220  11.962   0.107   3.518  0.1831 -0.2664  0.2541
 9752W        W25221  18.255   2.272   2.883  0.1808  0.1576 -0.0527
 9753W        W25222   9.220  16.131  16.076 -0.0226 -0.0690 -0.3598
 9754W        W25223  17.167   5.914   1.626 -0.0029 -0.1855  0.2153
 9755W        W25224   9.335   6.352  14.599  0.1028  0.2781 -0.1067
 9756W        W25225   6.249   7.324  13.512  0.1618 -0.0318 -0.2978
 9757W        W25226   0.392  13.206   2.673  0.2982 -0.1050  0.1084
 9758W        W25227  16.609  15.841   3.107  0.0796  0.0989 -0.1065
 9759W        W25228   5.403  16.601   0.309  0.0161 -0.1955 -0.3766
 9760W        W25229  16.781  14.127  12.302 -0.0919  0.2092 -0.0506
 9761W        W25230   2.259   0.604   2.140  0.2022 -0.2511 -0.0546
 9762W        W25231   0.801   0.730   2.003 -0.0081 -0.0730  0.2316
 9763W        W25232  12.280   6.889   3.807  0.0669  0.1629 -0.1272
 9764W        W25233   7.732  11.027   5.208  0.1355 -0.0619  0.0380
 9765W        W25234  10.461  14.199   0.328  0.1214 -0.0357  0.2556
 9766W        W25235   7.956  18.063   5.607  0.1217  0.1518 -0.0197
 9767W        W25236   1.515  11.992  14.684  0.0597  0.0118 -0.3231
 9768W        W25237  14.128  12.267   0.751 -0.0588  0.0322  0.1221
 9769W        W25238   7.889   6.137  11.298 -0.1327  0.0144 -0.2522
 9770W        W25239   2.101   4.533  11.366  0.1420 -0.0066 -0.2821
 9771W        W25240  11.622  12.917   0.007  0.0782 -0.2083  0.0635
 9772W        W25241  14.033  16.764  11.651 -0.2845 -0.0297  0.0360
 9773W        W25242  10.669  15.457  10.101 -0.0986 -0.2579  0.2241
 9774W        W25243  14.280  11.892   4.918 -0.0236  0.1466  0.0430
 9775W        W25244  11.538   6.344  13.020  0.2335 -0.0524 -0.0426
 9776W        W25245  14.923   4.902   5.354  0.1152  0.0924 -0.0719
 9777W        W25246  12.910   6.563  11.184 -0.0238  0.1218  0.1747
 9778W        W25247   5.051   0.323  13.876  0.1922  0.0405 -0.2837
 9779W        W25248  10.550  10.387  15.691  0.0589  0.2154 -0.4147
 9780W        W25249   9.415   4.869   0.339  0.2645  0.1968  0.1548
 9781W        W25250   1.243  17.327   0.919  0.0229  0.1357 -0.0047
 9782W        W25251  13.515   8.009  10.399 -0.1708  0.0836  0.0554
 9783W        W25252   8.576   2.287   0.127 -0.1256  0.2391  0.0473
 9784W        W25253  17.002  16.726   0.778 -0.0512 -0.2189 -0.2027
 9785W        W25254  15.105   8.032   3.280 -0.2193  0.1208  0.2959
 9786W        W25255   3.673  10.601   2.857  0.0873 -0.1027 -0.1534
 9787W        W25256  12.634   2.988   1.732 -0.0295 -0.1752  0.2346
 9788W        W25257  16.409   0.355   5.622 -0.2252 -0.2251  0.2356
 9789W        W25258  18.283   2.605  11.013  0.0058  0.2964  0.3256
 9790W        W25259  12.325  16.432   3.574  0.0828 -0.1636 -0.2845
 9791W        W25260  15.521   6.258  16.081  0.2943 -0.1511  0.0783
 9792W        W25261  14.619  15.974  12.493  0.3603  0.0769  0.1052
 9793W        W25262  12.246  15.148  14.526  0.2754  0.0853  0.0282
 9794W        W25263  16.633   4.009   0.318 -0.1449  0.2510  0.2929
 9795W        W25264   2.377  18.157   2.756 -0.2666 -0.1388  0.1775
 9796W        W25265   4.685   3.075   0.358  0.0405 -0.1044  0.2362
 9797W        W25266   3.670  15.137  11.622  0.1126  0.1037 -0.2541
 9798W        W25267   5.823  18.146  14.912 -0.0174  0.2238  0.1922
 9799W        W25268   4.287   4.335  11.441  0.0280 -0.2329  0.0559
 9800W        W25269   6.458   7.233  11.730  0.1982  0.1835 -0.0387
 9801W        W25270  18.100   1.436   0.554  0.2859  0.2426 -0.0405
 9802W        W25271  14.644   5.613  11.783 -0.2500  0.4207 -0.3928
 9803W        W25272   6.259  11.096   4.195 -0.1435 -0.0935 -0.0681
 9804W        W25273  15.693   9.767   0.671 -0.4859  0.0645 -0.0942
 9805W        W25274   5.498  10.529  15.302  0.1370 -0.3199 -0.0465
 9806W        W25275  11.129  16.687   4.626 -0.1797  0.1098  0.1793
 9807W        W25276  14.678   2.561   6.400  0.1266 -0.0421  0.1444
 9808W        W25277   5.898   6.712   4.568 -0.0031  0.1212  0.0527
 9809W        W25278  11.232  12.801  12.928  0.0855 -0.2652 -0.0611
 9810W        W25279   4.617   8.600   4.708  0.1574  0.0333 -0.1282
 9811W        W25280   5.532   6.646  15.975  0.1570 -0.1909  0.3893
 9812W        W25281   8.416  18.012  15.661  0.0988 -0.1639  0.3319
 9813W        W25282  17.168  16.039   3.845 -0.0825 -0.0017 -0.1584
 9814W        W25283   0.122   6.114   1.928 -0.1695 -0.1597 -0.0910
 9815W        W25284  16.333   1.735  14.322 -0.0211 -0.1282 -0.0190
 9816W        W25285   8.961  16.590  12.890  0.0688  0.0567  0.0459
 9817W        W25286  17.644   3.190  13.082  0.0784  0.2932 -0.1826
 9818W        W25287   6.038   6.187   4.514 -0.2016  0.0373  0.0207
 9819W        W25288  17.483  14.250  14.563 -0.0165  0.0025 -0.0647
 9820W        W25289   6.358  12.787  10.949  0.0192 -0.1036  0.0131
 9821W        W25290   8.755   0.031  15.493  0.0759  0.2199  0.0023
 9822W        W25291  14.670   0.594   1.041 -0.1324  0.1613  0.0608
 9823W        W25292   2.102  10.903  11.960 -0.1074 -0.0978  0.1151
 9824W        W25293  12.257   0.356  13.672 -0.0298 -0.5181 -0.3052
 9825W        W25294   1.901   5.860  12.548 -0.2078  0.2049 -0.0342
 9826W        W25295  17.529  12.011   3.753  0.0307  0.0660  0.4364
 9827W        W25296   5.239   5.177   0.689 -0.1427  0.0789  0.0172
 9828W        W25297   9.577  15.549  13.991  0.0134 -0.0019  0.0320
 9829W        W25298  12.213  16.661   4.272  0.1063  0.0335 -0.2252
 9830W        W25299   0.497  14.899  12.783  0.3224 -0.3862 -0.3282
 9831W        W25300  17.191  14.359  12.012  0.2109  0.0141  0.0096
 9832W        W25301   9.322  11.478  14.064  0.1123 -0.1740 -0.1473
 9833W        W25302  11.924   7.560   5.262  0.1213 -0.0531  0.1970
 9834W        W25303  16.709   8.128   4.077 -0.0865 -0.0533  0.3065
 9835W        W25304  14.737  14.736   0.306  0.1197  0.0393  0.1094
 9836W        W25305   9.724   4.271   2.713  0.3321 -0.1227  0.1315
 9837W        W25306  16.905  16.255   0.463  0.1068 -0.2507 -0.1214
 9838W        W25307  13.721  17.359  10.356  0.1135  0.0147  0.0098
 9839W        W25308   4.501  10.924  16.030 -0.3249  0.2410  0.3522
 9840W        W25309   1.804   7.215   1.762  0.0557  0.0490 -0.0504
 9841W        W25310   9.247  10.636  10.660  0.3361 -0.0002  0.0424
 9842W        W25311  15.483  16.907  15.823 -0.1587 -0.0725 -0.1223
 9843W        W25312  15.950   9.725  13.573  0.1899 -0.1890 -0.0409
 9844W        W25313  10.945  11.429   3.006 -0.1088  0.3267  0.3149
 9845W        W25314   0.234   6.741  15.023 -0.2713  0.1452 -0.2246
 9846W        W25315  12.199  16.201   1.140  0.1501 -0.3858 -0.2568
 9847W        W25316  13.604   3.089  15.207  0.2503 -0.1663 -0.0939
 9848W        W25317  16.265  11.689   3.786  0.0076 -0.1203 -0.0884
 9849W        W25318  17.694  12.632  11.075 -0.0546 -0.4069  0.0762
 9850W        W25319   1.291  15.616  15.402  0.1964  0.3561  0.0497
 9851W        W25320  15.518  14.132   4.739  0.2113 -0.0388 -0.1239
 9852W        W25321  17.464  18.142   4.860 -0.0790  0.3288 -0.1058
 9853W        W25322   1.103  15.252  12.837 -0.0191 -0.1558 -0.2829
 9854W        W25323   3.190   7.713  14.317 -0.0889  0.0677 -0.0684
 9855W        W25324   9.158  13.126   2.779  0.0855  0.0403  0.2013
 9856W        W25325  16.622  11.863   4.853  0.2183  0.1864  0.0142
 9857W        W25326  12.225   3.913   3.240  0.2485 -0.1262 -0.1298
 9858W        W25327  11.516   2.307  15.359 -0.1932  0.1528 -0.1623
 9859W        W25328  15.028   4.668   4.357 -0.2176  0.0189  0.0866
 9860W        W25329  11.074  17.041   5.570  0.1652 -0.3005  0.0071
 9861W        W25330   6.721   6.768  15.384 -0.1641 -0.0898  0.1509
 9862W        W25331   3.047   4.988  15.137 -0.0234 -0.3047 -0.1705
 9863W        W25332  16.521  12.916   0.349  0.3137  0.2380 -0.2350
 9864W        W25333  16.618  13.817  14.857 -0.3332  0.1630 -0.2011
 9865W        W25334   4.433  17.838  15.315 -0.1312 -0.0621  0.2091
 9866W        W25335  11.599   6.230   6.037 -0.0483 -0.1576 -0.0209
 9867W        W25336  17.098  15.802  14.905 -0.0385  0.2218 -0.1382
 9868W        W25337   7.504   3.079  15.621  0.1750 -0.2547  0.1403
 9869W        W25338  15.134  17.451   5.974 -0.2666 -0.0883  0.0911
 9870W        W25339   3.639   4.369   0.625 -0.3525 -0.0997 -0.1700
 9871W        W25340   5.763  16.700   4.170 -0.0222  0.2165 -0.1204
 9872W        W25341  10.780   3.304   0.675  0.3000 -0.0774 -0.1936
 9873W        W25342   5.260  14.518   0.262 -0.1634  0.3349 -0.0579
 9874W        W25343   3.879  14.116  13.318 -0.1617  0.1870  0.1992
 9875W        W25344   8.165   9.483   3.257  0.1131  0.0469  0.3337
 9876W        W25345  15.255   8.413   1.199  0.0399 -0.1492  0.0650
 9877W        W25346  10.024   4.017   0.075 -0.1684 -0.1701  0.0931
 9878W        W25347  12.361   3.998  15.320  0.1879  0.1208  0.2318
 9879W        W25348   9.841  17.727  12.186 -0.0178 -0.2189  0.0566
 9880W        W25349  12.723   4.895  13.827 -0.1867 -0.2159 -0.0013
 9881W        W25350  13.812   4.896  13.808  0.1303  0.1513  0.2738
 9882W        W25351  10.773   9.582  14.142  0.0107  0.0168  0.0421
 9883W        W25352  10.586   8.301   1.258 -0.0650 -0.2014 -0.3745
 9884W        W25353   2.358   8.154   2.028 -0.0122 -0.0567  0.5039
 9885W        W25354   5.802  10.211   2.406 -0.1339 -0.0168 -0.1741
 9886W        W25355  14.839  16.024  14.634 -0.2911 -0.2510 -0.1021
 9887W        W25356   0.950   9.163   0.394  0.0491  0.1609 -0.0695
 9888W        W25357   7.414  17.909  14.321  0.1112  0.2907  0.1857
 9889W        W25358   5.305  14.504   4.695  0.1436  0.0485  0.1159
 9890W        W25359  12.665  17.842   4.927 -0.1221 -0.3733 -0.1188
 9891W        W25360   4.579   6.592   4.544 -0.1604  0.0253  0.0496
 9892W        W25361  16.468  16.550   1.638 -0.0510  0.0407  0.0627
 9893W        W25362   2.120   5.309  12.627  0.0524  0.0156 -0.1517
 9894W        W25363  17.136   3.824  13.168  0.0465  0.2687  0.3121
 9895W        W25364   4.056  15.255   1.917  0.2086  0.2485 -0.0347
 9896W        W25365   8.274  12.712  15.123  0.0200  0.2074 -0.0094
 9897W        W25366  10.842   7.535   3.094 -0.1269  0.1652  0.2982
 9898W        W25367   1.304   0.586   3.450  0.1535 -0.0649  0.0739
 9899W        W25368  10.834   2.543  11.752 -0.0440 -0.0262  0.0789
 9900W        W25369   0.401   2.346  13.291  0.2246 -0.4274 -0.0775
 9901W        W25370   2.857   3.831  11.463  0.1187 -0.1620 -0.0539
 9902W        W25371   3.612   9.831   3.568  0.3328 -0.1549  0.0170
 9903W        W25372   4.725   5.798   1.963  0.0454  0.0022  0.0174
 9904W        W25373   8.401  17.540  13.306 -0.1464  0.0378 -0.0131
 9905W        W25374   4.226   4.437  12.511 -0.0031 -0.1591 -0.0470
 9906W        W25375  15.815   6.871  12.187  0.1644  0.1446  0.3776
 9907W        W25376   4.552  11.113   5.670  0.0800 -0.2570 -0.1429
 9908W        W25377   0.129   6.761  15.983 -0.1698  0.1537 -0.1574
 9909W        W25378   1.817   8.461   0.416  0.1195 -0.0535 -0.1704
 9910W        W25379   1.555  10.666  11.953 -0.0006 -0.0112  0.0263
 9911W        W25380  12.375   9.086  15.508 -0.1346  0.1526  0.2570
 9912W        W25381   8.371  18.020   4.791  0.1845 -0.1668  0.0376
 9913W        W25382   9.705   3.257  14.618  0.2179  0.0484  0.0542
 9914W        W25383  13.668   2.304  10.948 -0.3213  0.1625  0.0441
 9915W        W25384  13.055   1.870   0.614  0.1009  0.0613 -0.0875
 9916W        W25385  13.468   9.253  15.078  0.1384  0.2407  0.4700
 9917W        W25386  12.735   8.718  12.511  0.0592  0.1374  0.0278
 9918W        W25387  13.437  16.290  13.749 -0.2472  0.3810  0.2294
 9919W        W25388  12.012  14.601  12.998 -0.0412 -0.0824  0.0237
 9920W        W25389   7.061   1.999  13.388 -0.2576 -0.3864  0.0444
 9921W        W25390  17.413   5.555   4.101 -0.2023  0.0633 -0.2713
 9922W        W25391   4.303   1.153   3.744  0.4168 -0.1639 -0.1944
 9923W        W25392  11.040   7.486  11.207  0.1201  0.1498 -0.0326
 9924W        W25393  10.212   7.052  15.459 -0.0081 -0.3129 -0.1382
 9925W        W25394   1.658  10.223   0.734 -0.2610 -0.1692  0.0463
 9926W        W25395   7.247   1.628  14.874  0.1415  0.2854 -0.2294
 9927W        W25396   9.979   8.825   0.769  0.0152 -0.2645  0.1437
 9928W        W25397   6.102  12.679   3.910 -0.2716 -0.0475  0.2209
 9929W        W25398  16.570   4.481  11.442  0.0182 -0.2737 -0.0346
 9930W        W25399  16.467  14.613   0.932  0.1925 -0.0257  0.1764
 9931W        W25400  13.405  16.072  12.206  0.1542 -0.0044 -0.2965
 9932W        W25401   6.777   7.799   2.936 -0.0538 -0.0851  0.1706
 9933W        W25402   6.816   2.020   1.926 -0.0623 -0.1285 -0.3149
 9934W        W25403   1.285   5.794   5.019  0.0009 -0.0548 -0.1265
 9935W        W25404   1.877  15.718  11.853  0.1609  0.1848  0.3645
 9936W        W25405   1.873  13.681  14.078 -0.3460 -0.2429  0.1779
 9937W        W25406   0.595  11.941   2.235  0.3821 -0.2800  0.2148
 9938W        W25407  16.698   9.161   1.200  0.2684  0.0419  0.0233
 9939W        W25408  13.715  10.582   2.167 -0.0683 -0.0996  0.0300
 9940W        W25409   6.963   9.812   1.360 -0.4023  0.2001 -0.0068
 9941W        W25410   5.659   3.237  15.518 -0.3262 -0.0186  0.0998
 9942W        W25411  16.477   6.038  14.685 -0.0310  0.3642 -0.0366
 9943W        W25412   7.713   1.204   4.079 -0.2746 -0.4451 -0.0498
 9944W        W25413  12.437  11.935   5.626  0.0974 -0.2926  0.2065
 9945W        W25414   1.383  14.006  12.582 -0.1911  0.0836 -0.0339
 9946W        W25415   5.155  14.495  12.385 -0.1152 -0.0537  0.0193
 9947W        W25416   8.970   9.853  14.916 -0.0692 -0.0092  0.0831
 9948W        W25417   2.414   5.535   4.252  0.1622  0.4013 -0.3518
 9949W        W25418   0.083   3.469  12.299  0.1853  0.1356  0.0244
 9950W        W25419   7.918   7.974   4.143  0.3556 -0.3876 -0.0588
 9951W        W25420  13.814  15.107  13.725  0.0106  0.2926  0.1197
 9952W        W25421  15.736   1.049  15.663  0.0682 -0.2789  0.0087
 9953W        W25422  15.668  11.154   0.429 -0.0287  0.1322  0.1700
 9954W        W25423   2.363   0.892  13.861 -0.2290  0.0601  0.0820
 9955W        W25424   6.956  16.932   1.624  0.0479  0.3827 -0.2541
 9956W        W25425   9.670   4.622   1.121 -0.1302  0.0762 -0.2251
 9957W        W25426   0.868   4.100  14.381 -0.3004 -0.0819 -0.1720
 9958W        W25427   2.668   1.701  15.795  0.0285 -0.0829 -0.3100
 9959W        W25428   1.513   1.580   3.429  0.1057  0.0247  0.0349
 9960W        W25429  15.784  17.222   5.233 -0.0776 -0.1526  0.1591
 9961W        W25430  16.479   7.011  15.841  0.1037 -0.3528 -0.1663
 9962W        W25431   7.459  15.863  14.681  0.1999 -0.0489  0.3771
 9963W        W25432   7.199   7.488  16.110  0.0675  0.0325 -0.0601
 9964W        W25433   5.012  15.381   4.977  0.0780 -0.1598  0.2815
 9965W        W25434  11.680  16.713   0.418  0.0132  0.0303  0.1160
 9966W        W25435   8.491   1.197   1.129 -0.0687 -0.0057  0.1487
 9967W        W25436   7.311  16.560   2.465 -0.0727 -0.0586  0.2582
 9968W        W25437   7.376   8.022  16.103 -0.0515  0.1670 -0.5103
 9969W        W25438  10.314   3.732   3.183 -0.2827  0.0101 -0.1102
 9970W        W25439   1.715   2.367   1.380 -0.0565 -0.0736  0.3074
 9971W        W25440   5.423  17.225  12.925 -0.0597  0.0081  0.3327
 9972W        W25441  17.767  15.743  12.090 -0.2515  0.0018 -0.0665
 9973W        W25442  16.673  17.101   2.928  0.1468  0.1868 -0.2674
 9974W        W25443   8.017  15.674   2.379  0.1714  0.1778  0.0679
 9975W        W25444  18.018   8.917  14.674 -0.2985 -0.0749  0.0258
 9976W        W25445  17.610   2.764   4.632 -0.5171 -0.0153 -0.1541
 9977W        W25446  11.745   9.274  12.157  0.3517 -0.2051 -0.1157
 9978W        W25447   9.229  11.342  13.595  0.1198  0.1641  0.0662
 9979W        W25448   0.345   9.518  12.127  0.1860 -0.0059 -0.1674
 9980W        W25449  13.798   7.363   2.366 -0.3687  0.1876  0.0381
 9981W        W25450   5.176   1.653  13.915  0.0177 -0.1382 -0.1092
 9982W        W25451  13.136  12.224  13.140 -0.0666  0.1359 -0.0021
 9983W        W25452   3.914  13.169   5.256 -0.3070  0.1255  0.3042
 9984W        W25453  13.413  11.492   4.590  0.1708 -0.1662 -0.2458
 9985W        W25454   6.357  10.325  13.008 -0.2433  0.1684  0.0683
 9986W        W25455   5.072   5.161   1.151  0.2142  0.0264  0.3456
 9987W        W25456  12.079   8.980  15.918 -0.2168 -0.2215 -0.1442
 9988W        W25457   1.017  12.522  13.617 -0.0754  0.0447  0.1453
 9989W        W25458   6.393  13.320  14.134  0.0945  0.4377  0.0761
 9990W        W25459  18.196  17.463   3.649  0.1145 -0.0272 -0.1574
 9991W        W25460  17.517  16.878  14.532 -0.1808 -0.0862 -0.1208
 9992W        W25461   4.254  16.706  13.376  0.2418 -0.1480  0.0948
 9993W        W25462  14.857   0.715   2.686  0.1341  0.0541  0.0320
 9994W        W25463  18.161  12.503   1.249  0.1945  0.0903  0.0530
 9995W        W25464   0.604  17.967   2.001 -0.0302  0.0995  0.0205
 9996W        W25465   3.478  13.580   4.062  0.3632  0.0259  0.0198
 9997W        W25466  10.582   8.585  12.697  0.2071 -0.2145 -0.1946
 9998W        W25467  14.590  13.929  14.216 -0.2410 -0.3742  0.0491
 9999W        W25468  14.733  15.079   4.693  0.2629  0.1104 -0.1377
10000W        W25469  16.133   0.180  11.842 -0.0998 -0.0936  0.2056
10001W        W25470   6.454  18.226  10.653  0.0399 -0.3683  0.0988
10002W        W25471  11.070  17.742  12.349 -0.2817 -0.2505  0.0750
10003W        W25472   6.401   9.781  11.911  0.0817 -0.0349  0.1674
10004W        W25473   3.233   1.484   2.334 -0.2143 -0.1578 -0.0369
10005W        W25474  11.921  17.665   2.735  0.1701 -0.1167 -0.0106
10006W        W25475  10.573   1.514   0.594 -0.0698  0.1385  0.0535
10007W        W25476   9.049   0.243  13.493 -0.2666 -0.0075  0.0228
10008W        W25477   8.967  16.235  15.684 -0.0901 -0.0999 -0.0502
10009W        W25478  14.874   5.956  13.633  0.4303 -0.2677  0.1301
10010W        W25479   0.701  11.654   3.492  0.0891  0.1241 -0.0351
10011W        W25480  14.060  16.970  12.175  0.0911  0.2114 -0.1747
10012W        W25481  15.138   7.786   2.595  0.0583 -0.2164  0.3606
10013W        W25482  16.945   3.195  15.137  0.3359  0.1462 -0.1682
10014W        W25483   0.855  15.943  13.015 -0.1589 -0.0548  0.0814
10015W        W25484   9.589  13.103  14.124 -0.2234  0.3172 -0.1145
10016W        W25485   7.362   6.285   0.964 -0.1103  0.0445  0.3034
10017W        W25486   2.715   9.137   4.737 -0.2767  0.1019  0.0029
10018W        W25487   4.430   5.130  15.534  0.1688  0.0971  0.0055
10019W        W25488   1.752   3.839  11.724  0.0887 -0.0018  0.0057
10020W        W25489   3.658   5.512   4.202 -0.1084  0.0108  0.1407
10021W        W25490   3.045   5.569  14.353  0.2372  0.0978  0.2165
10022W        W25491   8.820   9.843   0.474 -0.1738 -0.0347 -0.4051
10023W        W25492   8.962  16.790   1.946  0.1174 -0.2795  0.1298
10024W        W25493   4.877  16.442  12.228 -0.0430 -0.3423  0.0842
10025W        W25494   1.961  15.572   1.606  0.0222  0.0305 -0.2608
10026W        W25495  12.686   4.019  11.306  0.0717  0.4386  0.2130
10027W        W25496   3.459   5.758  14.615 -0.2092 -0.1108 -0.0700
10028W        W25497   2.966  15.568   0.688  0.1995 -0.0309  0.1220
10029W        W25498   8.765   5.785   1.289  0.0683 -0.2024 -0.1143
10030W        W25499   2.108   4.045   1.771 -0.2889 -0.0525  0.2640
10031W        W25500  10.507   4.850   2.752 -0.1505 -0.2261 -0.1147
10032W        W25501  14.610  12.415   3.547  0.1562 -0.4961  0.0278
10033W        W25502  15.032  15.822  15.419  0.2804  0.0971 -0.0001
10034W        W25503   4.915   9.126   0.123  0.2521 -0.2581 -0.1883
10035W        W25504   5.534   6.070   3.683  0.3071  0.0818  0.0272
10036W        W25505   0.710   6.799  15.228 -0.0952 -0.0145  0.0131
10037W        W25506   7.749  14.427  10.870  0.0211  0.2801  0.2469
10038W        W25507   2.414  11.099   3.673  0.3454  0.3176  0.0116
10039W        W25508  15.236  17.852   0.069 -0.0476 -0.1291 -0.3927
10040W        W25509  16.159   9.629  14.884  0.1054 -0.0707 -0.3356
10041W        W25510   7.102   6.972  14.263 -0.1155  0.0196 -0.2327
10042W        W25511   3.816  11.582   2.664  0.0408  0.1237  0.2214
10043W        W25512   3.123  15.553  14.033 -0.1930  0.1109 -0.4645
10044W        W25513   4.057   0.698   2.122 -0.0917  0.1190 -0.2330
10045W        W25514   3.741   5.832   3.742 -0.0189  0.0071  0.2308
10046W        W25515   4.646  17.243  11.279  0.0780  0.1352 -0.0453
10047W        W25516  17.304   3.490  15.004  0.1886 -0.4403  0.0560
10048W        W25517  17.290  11.080   1.640 -0.1809 -0.3052 -0.1204
10049W        W25518  12.500   7.019   0.918 -0.1350 -0.0337 -0.0347
10050W        W25519   6.763   5.699   3.385 -0.0636  0.0091  0.0321
10051W        W25520   2.779   1.664   2.189 -0.0542 -0.0918 -0.1349
10052W        W25521   5.803  16.365  11.698 -0.2670 -0.2114  0.0433
10053W        W25522  15.632  10.136  10.929  0.1696 -0.1632 -0.3069
10054W        W25523   3.199  16.939   5.700  0.2555 -0.1546 -0.0795
10055W        W25524   3.599  16.252  13.046  0.1209 -0.0332  0.1563
10056W        W25525   6.309   1.997   2.257  0.1016 -0.0264  0.0599
10057W        W25526  16.166   7.248  12.164  0.1635 -0.0317 -0.2763
10058W        W25527   5.751  17.141  13.763 -0.0172  0.2550 -0.0316
10059W        W25528  14.502   7.078   0.559  0.4079  0.2574  0.2135
10060W        W25529   9.539  14.676  10.999 -0.2910 -0.1047  0.0296
10061W        W25530   1.628   3.332   4.098 -0.0376 -0.0360  0.1765
10062W        W25531   3.362   0.491  13.779 -0.1910 -0.0475  0.1219
10063W        W25532   2.870  16.913   3.187  0.0907  0.4483 -0.1028
10064W        W25533   0.687  12.271   5.525 -0.0855  0.1467 -0.0247
10065W        W25534   1.706   2.964  13.655 -0.1390  0.2327 -0.0187
10066W        W25535  17.444  17.759   5.329  0.2966  0.0046  0.1016
10067W        W25536   3.717  17.210   1.743  0.1901 -0.1511 -0.1111
10068W        W25537   8.140  11.569  11.327 -0.0756 -0.1071  0.2140
10069W        W25538   9.679   2.771  14.209 -0.3973 -0.1762 -0.0049
10070W        W25539  16.697   8.760   0.913  0.0813 -0.0034  0.0579
10071W        W25540  15.550  12.078   2.551 -0.0816 -0.0215  0.1229
10072W        W25541   4.522   5.386   1.536  0.0210  0.0880  0.1997
10073W        W25542   7.137  16.176  14.418  0.1428 -0.5124  0.0102
10074W        W25543   0.883   5.837  10.727  0.0437  0.0635  0.0584
10075W        W25544   6.675   2.080   4.472 -0.1136 -0.1381  0.3647
10076W        W25545   7.695   1.415  11.986  0.3847 -0.3697 -0.1063
10077W        W25546   4.191   9.049  15.584 -0.2038 -0.0767 -0.1398
10078W        W25547   5.983  15.498  12.052 -0.1921  0.2930 -0.0824
10079W        W25548   6.970  14.079  14.155  0.0164 -0.1906 -0.0626
10080W        W25549   1.901   0.817   2.570 -0.1138 -0.0451  0.0242
10081W        W25550   4.570  14.318  11.143 -0.0146 -0.3713 -0.0325
10082W        W25551   7.344   1.032   1.688  0.2393  0.0956  0.0816
10083W        W25552  13.153   4.466  11.321 -0.1027 -0.0367  0.2718
10084W        W25553  14.065  10.469   1.465 -0.0749  0.1260 -0.0657
10085W        W25554   6.065   9.089   1.941  0.0043 -0.4687  0.0131
10086W        W25555  10.431  15.329  11.015  0.0116 -0.2854 -0.1358
10087W        W25556  10.477   5.419  11.924 -0.3387  0.1026  0.0554
10088W        W25557  12.228   1.712   5.072 -0.1387 -0.2063 -0.1818
10089W        W25558  10.711  12.942   3.858  0.1344  0.0535  0.1682
10090W        W25559  16.652  17.885  14.873 -0.0466 -0.2063  0.0013
10091W        W25560  14.882  16.843  13.101 -0.1259 -0.1128 -0.0223
10092W        W25561  12.923  16.368   4.379  0.1328 -0.0592 -0.0948
10093W        W25562  10.982   6.435   1.550  0.1789 -0.0160 -0.4236
10094W        W25563  11.742  11.754   2.754 -0.1205  0.2154 -0.0712
10095W        W25564  10.096   0.875  12.195 -0.1746  0.0209 -0.0670
10096W        W25565   6.135  12.757   0.238 -0.1157  0.5037 -0.0994
10097W        W25566   6.589   4.371  10.916  0.1061  0.1281  0.0657
10098W        W25567  15.290  14.865   1.753 -0.0718  0.1163  0.2052
10099W        W25568  10.156  11.621   2.337 -0.2035  0.1219  0.5075
10100W        W25569   7.696   3.439  14.505  0.0511  0.4262  0.3558
10101W        W25570  17.660  14.884  13.618  0.1122 -0.0840 -0.1315
10102W        W25571   4.406  16.353   2.077  0.2020 -0.2051 -0.0295
10103W        W25572   4.108   1.228   2.143 -0.1737 -0.0948 -0.1971
10104W        W25573  15.565   5.588   3.645  0.1920 -0.0617 -0.0976
10105W        W25574   8.960   9.118  16.111 -0.2372  0.0243 -0.1836
10106W        W25575   1.479   4.582   1.207 -0.1222 -0.1707  0.1396
10107W        W25576  10.737   5.709  13.074  0.0096 -0.0641 -0.3500
10108W        W25577   6.794  10.048  14.996  0.1210  0.1606  0.0116
10109W        W25578   2.380   1.534  13.059  0.0756 -0.0124  0.1010
10110W        W25579  15.931   0.634   1.576  0.0927 -0.1095  0.0698
10111W        W25580   1.289   4.106   0.284  0.0169  0.0287 -0.2105
10112W        W25581   0.817  13.359   5.570  0.1928  0.2389 -0.0250
10113W        W25582  12.018  12.606   2.008  0.1596 -0.0454 -0.0704
10114W        W25583  10.386  15.610  11.739  0.0171  0.0777 -0.0012
10115W        W25584   1.079   4.576   0.480 -0.1530 -0.0961  0.0131
10116W        W25585   4.054  12.779   0.195 -0.2171 -0.2397  0.2482
10117W        W25586   6.950   6.993  11.554  0.1121  0.0768 -0.1477
10118W        W25587   2.922   3.269  14.928 -0.2802 -0.0005 -0.1485
10119W        W25588   9.968   9.191   3.490  0.0078  0.0412 -0.1017
10120W        W25589  10.860  14.202   0.067 -0.3274  0.0743 -0.1945
10121W        W25590   2.610  15.829   3.029  0.1089 -0.0148 -0.1200
10122W        W25591   3.818  12.510   3.197 -0.1937  0.0858  0.0474
10123W        W25592  10.831  16.368  11.647 -0.1462  0.1637  0.0945
10124W        W25593  12.966   3.716   0.628 -0.1129 -0.2299 -0.0218
10125W        W25594  13.262   5.415   3.316  0.2395 -0.0504  0.0185
10126W        W25595  14.331   6.458   4.931 -0.1566  0.0350  0.2909
10127W        W25596   6.781   1.351  12.694 -0.1221  0.2899 -0.2027
10128W        W25597   1.879   2.072   0.745  0.3388 -0.5933 -0.1474
10129W        W25598   3.539  16.411  15.359  0.1500  0.0714  0.1728
10130W        W25599   5.718   7.745  11.200  0.2844  0.0215 -0.2475
10131W        W25600  14.791  15.396  10.773  0.1809  0.1472 -0.0478
10132W        W25601  14.803  13.504  11.794  0.2267  0.3573  0.2982
10133W        W25602   7.003   0.799  13.040 -0.0379 -0.0308  0.0249
10134W        W25603   2.079   4.604  13.673 -0.2018 -0.0760 -0.2391
10135W        W25604  14.172   7.847   3.189 -0.1043  0.0105 -0.2058
10136W        W25605  17.042   7.928  13.041  0.5399 -0.0497 -0.1434
10137W        W25606   5.029   6.876  12.640  0.0570  0.1332  0.1404
10138W        W25607  17.453   5.612   0.102  0.1305  0.0431  0.0175
10139W        W25608  12.723   4.831   4.268  0.3107  0.1003 -0.1167
10140W        W25609  17.207  17.417  13.079 -0.1519 -0.0535  0.2095
10141W        W25610   2.542   1.579   4.554  0.2692 -0.0900 -0.2233
10142W        W25611  11.920  16.052  15.767 -0.2085  0.1912 -0.0831
10143W        W25612  14.174   8.798  13.906 -0.1984  0.0145 -0.1195
10144W        W25613   8.913   3.759   1.940 -0.0503 -0.0609 -0.3361
10145W        W25614   5.804   5.884   4.111 -0.1834 -0.1553  0.0369
10146W        W25615  18.189  13.644   1.390  0.1517  0.0458  0.2937
10147W        W25616  14.886  18.128   2.217  0.2432 -0.1271  0.1403
10148W        W25617   0.408   9.338   5.665 -0.0125 -0.0014  0.0743
10149W        W25618  14.828   8.134  13.321 -0.1890  0.2562 -0.0164
10150W        W25619   1.086   0.479  11.165 -0.1907 -0.0484 -0.3507
10151W        W25620  10.107   1.436  14.966 -0.0259 -0.2298  0.0043
10152W        W25621  16.371   6.277  13.181 -0.3143  0.1599  0.0347
10153W        W25622   9.342  15.293   2.354 -0.1634  0.1493 -0.0537
10154W        W25623  10.039  13.928   0.321  0.0255  0.0946 -0.0272
10155W        W25624   0.648   4.796   4.889 -0.0461 -0.3546 -0.2471
10156W        W25625   8.070  14.754   0.063  0.4164 -0.2887  0.3397
10157W        W25626   9.078  16.273   1.776  0.0452 -0.2188  0.0741
10158W        W25627  13.102   0.574   2.859  0.2657 -0.5847 -0.0377
10159W        W25628   6.954   1.382   2.747 -0.2084 -0.0036 -0.0492
10160W        W25629   5.060   2.798   0.547 -0.0158  0.0930 -0.1488
10161W        W25630  15.034  18.115  11.315 -0.1836  0.2162 -0.0420
10162W        W25631   8.819   9.488   0.928 -0.2662  0.1568  0.2603
10163W        W25632  12.990   9.199  16.069 -0.2197  0.1030 -0.0722
10164W        W25633  12.536  16.807   3.954 -0.0624  0.1734 -0.1393
10165W        W25634   7.045  15.448  14.023 -0.3054  0.1113  0.0759
10166W        W25635   5.410  16.516  14.821 -0.0686 -0.1532 -0.2493
10167W        W25636   0.461   3.144   5.399 -0.0076  0.2408  0.0705
10168W        W25637  12.571   0.944   5.407 -0.0577 -0.2430  0.1597
10169W        W25638  14.977   6.694  14.350  0.0102 -0.2647  0.2589
10170W        W25639  12.323  15.150   5.959  0.0608 -0.0848 -0.2188
10171W        W25640   2.495   9.003  14.728 -0.0169  0.2436 -0.2308
10172W        W25641  15.320   0.279  12.161 -0.2759  0.2472  0.2496
10173W        W25642  16.230  16.231  15.666 -0.1294  0.1768  0.0381
10174W        W25643  13.504  13.042  14.637  0.1144 -0.1340 -0.0443
10175W        W25644   3.743   4.497   5.176 -0.0662 -0.0386  0.0529
10176W        W25645  11.076  15.210   2.337 -0.2452 -0.3288 -0.0936
10177W        W25646  12.662  12.229   1.268  0.1730 -0.0190 -0.0710
10178W        W25647  14.280  13.629  11.631  0.1655 -0.1551 -0.0619
10179W        W25648   6.581  13.055  11.937 -0.0810  0.1293  0.1332
10180W        W25649   6.568  10.933   3.698 -0.1871  0.3884 -0.2553
10181W        W25650   3.146   2.614  12.230 -0.0266  0.0174 -0.0356
10182W        W25651  15.523  16.567   1.015 -0.0654  0.0005  0.1393
10183W        W25652   7.280   2.101  11.682 -0.0549 -0.1507 -0.1277
10184W        W25653   6.203  14.579   5.355 -0.1298 -0.0902  0.0526
10185W        W25654  10.895  15.837   2.203  0.2839  0.2544  0.1357
10186W        W25655   2.545   7.265   2.735  0.0096  0.2599  0.0001
10187W        W25656   1.351   3.292  12.973 -0.1135  0.1230 -0.0831
10188W        W25657  15.947   7.773  14.265 -0.1579  0.2563 -0.1801
10189W        W25658   3.648  14.189  14.205 -0.2609 -0.2235 -0.0740
10190W        W25659   1.552  10.561   5.046 -0.0744 -0.2618  0.0563
10191W        W25660   4.035  10.061   2.808  0.1498 -0.1347  0.0889
10192W        W25661  11.852   1.364  15.072  0.0493 -0.0120 -0.1574
10193W        W25662   1.643   1.117  14.508 -0.0525  0.1956  0.0417
10194W        W25663   5.077   3.143  12.062 -0.0639  0.0736  0.2461
10195W        W25664   7.460  15.754   4.342 -0.0197  0.0075  0.3814
10196W        W25665   8.010   1.777  12.981 -0.0548  0.0903 -0.1384
10197W        W25666   1.253  13.571   3.599  0.0670  0.1832 -0.0463
10198W        W25667  11.834  17.333   1.807 -0.0298 -0.2439 -0.0467
10199W        W25668  12.612   4.546   3.815 -0.0082  0.1180  0.0879
10200W        W25669  10.845   3.695  14.431 -0.4614  0.0870 -0.1254
10201W        W25670   7.800   3.039   5.621 -0.0456  0.0649 -0.0377
10202W        W25671  13.162  11.571  13.600  0.0646 -0.2493 -0.0702
10203W        W25672   9.712   5.235  16.054  0.2405  0.1870 -0.0425
10204W        W25673  16.559   6.324   3.255 -0.0357 -0.1243  0.2227
10205W        W25674  14.509  13.810  12.580  0.1206  0.1638  0.0644
10206W        W25675  17.965   4.442   0.663  0.2302 -0.0741 -0.0199
10207W        W25676   6.440  16.667  14.416  0.0326  0.0564  0.0546
10208W        W25677  13.008  13.045   5.153  0.0561  0.2248 -0.1551
10209W        W25678   1.743   8.935  15.718 -0.2491 -0.0572 -0.0846
10210W        W25679   2.086   4.964  13.052 -0.1047 -0.5945 -0.1601
10211W        W25680  15.188  11.736   1.424  0.1778 -0.3882  0.2064
10212W        W25681   8.182   8.432  14.391  0.0193 -0.0650 -0.0096
10213W        W25682  10.215   2.610   5.476 -0.1165 -0.2531  0.1082
10214W        W25683   2.058   1.576   0.968  0.2332 -0.1781  0.1504
10215W        W25684  14.375   3.101   1.106  0.3952  0.1081 -0.0160
10216W        W25685  16.778   1.098   1.326  0.0436 -0.0760 -0.0103
10217W        W25686  14.326   5.709  10.541 -0.1241  0.0235 -0.0738
10218W        W25687   9.418   7.342  10.393  0.0744  0.1129  0.1162
10219W        W25688  12.553   5.851  12.329 -0.0164 -0.1481 -0.0146
10220W        W25689   1.260  10.948   5.192 -0.2399  0.0574  0.0648
10221W        W25690   7.280  10.543   0.093  0.1576  0.1728  0.2724
10222W        W25691   3.496   1.849   2.553  0.1613 -0.0781 -0.2161
10223W        W25692   8.648  13.127   4.792  0.3728  0.1373 -0.1879
10224W        W25693  15.405   8.506   3.456  0.0220  0.4404 -0.1279
10225W        W25694  12.039  12.333  12.815 -0.4594 -0.1165 -0.2133
10226W        W25695  13.069   8.798   0.281 -0.5156  0.0151  0.0591
10227W        W25696  15.643   0.242  13.175  0.1738 -0.0063  0.0084
10228W        W25697   6.571   0.105   1.837 -0.2496  0.1270  0.0471
10229W        W25698   4.409  15.075   1.374 -0.0509 -0.1440 -0.1118
10230W        W25699  10.661  10.824  14.363 -0.3449  0.3667  0.1034
10231W        W25700   3.205  17.765   2.964  0.1096 -0.2200 -0.0198
10232W        W25701  13.337  12.876   0.957 -0.3853 -0.2184 -0.0587
10233W        W25702   4.086   6.231  15.643 -0.0182 -0.2554 -0.3317
10234W        W25703   9.688  18.119  14.395  0.0483  0.1522 -0.0665
10235W        W25704  14.536   6.669   3.659  0.1121 -0.1979  0.0181
10236W        W25705  14.164   3.501  12.199 -0.2041 -0.1564  0.1316
10237W        W25706  15.586   8.745  12.528 -0.4426  0.0275  0.0798
10238W        W25707   0.765   1.355   4.590 -0.1309  0.0725  0.1002
10239W        W25708   0.193   7.967   3.838  0.1951 -0.1103  0.1229
10240W        W25709   7.511   6.497  11.204  0.5190  0.1957  0.0541
10241W        W25710  10.369   7.752  13.685 -0.2608  0.0710  0.1556
10242W        W25711  15.664   0.301   2.600 -0.0380  0.0884 -0.1521
10243W        W25712   9.693   0.745  10.821 -0.1352  0.3393 -0.0589
10244W        W25713   5.289  14.016  11.519  0.1792 -0.0651  0.4013
10245W        W25714   6.959  17.331  10.608 -0.0558 -0.1090  0.0634
10246W        W25715   9.757  11.774  12.796 -0.0693 -0.1132  0.0523
10247W        W25716   9.381   5.417   4.159  0.0989  0.2101  0.3696
10248W        W25717   4.233   3.604   1.734 -0.1080  0.0750 -0.2273
10249W        W25718  15.582  10.540   3.264  0.1774 -0.0021 -0.0216
10250W        W25719  16.006  16.479  11.383 -0.1859  0.1590  0.0906
10251W        W25720  11.733  16.664  15.239 -0.1101  0.0240 -0.2651
10252W        W25721  12.885   0.549  15.392  0.3562 -0.2392  0.0968
10253W        W25722   9.728   2.643  11.117 -0.4149 -0.2324  0.2912
10254W        W25723  17.943   1.670  10.615 -0.2078 -0.2768  0.1066
10255W        W25724   8.892  17.758   9.975  0.0241 -0.0460  0.1289
10256W        W25725  12.741  16.012   1.257  0.1444 -0.0597 -0.1262
10257W        W25726   9.569  16.078   0.882 -0.0060 -0.1499 -0.0103
10258W        W25727  13.156   1.409  13.253 -0.4019 -0.1757  0.1499
10259W        W25728   7.652   4.527  11.941  0.2952 -0.2268 -0.1301
10260W        W25729  16.477   8.526  12.680  0.1347 -0.2558  0.1434
10261W        W25730  10.329  12.124  10.978  0.0753  0.1227  0.3514
10262W        W25731   5.143  16.356  12.649  0.3097 -0.1396  0.2161
10263W        W25732   5.406   8.695  15.224  0.0101 -0.0977 -0.2186
10264W        W25733   8.592  10.564   3.599  0.1627 -0.0624 -0.0372
10265W        W25734   1.384  11.216  12.619  0.0451  0.1472 -0.2216
10266W        W25735   2.324   1.816  13.454  0.0824 -0.2314 -0.0606
10267W        W25736  11.029  11.942   2.443 -0.0568 -0.2372  0.1491
10268W        W25737  10.420   5.473  11.264  0.1762 -0.1907  0.2698
10269W        W25738  10.565   9.147  15.104  0.0248  0.2751  0.1803
10270W        W25739   7.774   9.723  14.162 -0.1334 -0.1076  0.0128
10271W        W25740   8.203   7.693   3.636 -0.1439  0.0715  0.0751
10272W        W25741  13.677  12.998   2.249 -0.1309  0.1000 -0.1637
10273W        W25742  16.984  14.494  13.765  0.0857  0.1071  0.2230
10274W        W25743   7.130   7.177  13.763  0.0414  0.4584  0.0653
10275W        W25744  15.499   2.720   1.112 -0.2961 -0.1096  0.1919
10276W        W25745   7.043   6.551  15.696  0.1058  0.2456 -0.2469
10277W        W25746   9.153  16.174  11.156  0.2524  0.0747 -0.0130
10278W        W25747  12.880  16.716  12.707  0.3546  0.1841 -0.0091
10279W        W25748   4.769  10.780   3.104 -0.4327  0.3045  0.0235
10280W        W25749   2.388  17.954   1.801 -0.0548  0.1168 -0.2933
10281W        W25750   6.320  14.022  13.443  0.0956 -0.1576  0.2839
10282W        W25751   2.089   4.682  14.383 -0.2914  0.2262  0.0689
10283W        W25752   5.002  14.721  14.719 -0.2440  0.0742 -0.1924
10284W        W25753   6.103  10.834  11.347  0.0610 -0.0646  0.1695
10285W        W25754  17.230  15.055   0.657 -0.0836  0.1849 -0.1684
10286W        W25755   2.592  11.668   1.071 -0.3049 -0.0512  0.0527
10287W        W25756   7.105   3.115   2.499 -0.1093  0.2532  0.1101
10288W        W25757   1.689   1.899  16.027  0.3180  0.0691  0.1269
10289W        W25758  15.957  15.714   1.838  0.2453 -0.1828 -0.0948
10290W        W25759   1.156   4.604  14.623  0.0230  0.0153 -0.1362
10291W        W25760   7.469   0.940   2.590 -0.0931 -0.1768 -0.0669
10292W        W25761   7.999   2.189   1.274  0.1356  0.0337  0.0046
10293W        W25762   4.566   2.955  12.232  0.0367  0.1230  0.1916
10294W        W25763  13.009   3.366   1.586 -0.1665  0.3569  0.0020
10295W        W25764   4.575   9.758   4.478  0.1551 -0.1165  0.0264
10296W        W25765   7.508  14.752   0.160 -0.1047  0.1564  0.2002
10297W        W25766   4.801  17.626   4.660 -0.0027  0.0094 -0.1344
10298W        W25767   4.058  15.318   0.924 -0.0191  0.0749 -0.2903
10299W        W25768   7.497  16.988   2.952 -0.0050 -0.2467  0.0458
10300W        W25769  15.257   3.020  11.816 -0.0343  0.2313  0.0138
10301W        W25770   2.189  17.254   6.250 -0.1176 -0.1906 -0.0057
10302W        W25771   0.397  17.621  15.851  0.2354  0.0205  0.5640
10303W        W25772  17.080  17.745   3.098  0.0497 -0.1597 -0.1931
10304W        W25773   3.646  11.066   4.717 -0.0896 -0.0744 -0.1067
10305W        W25774  13.719   1.239   3.087 -0.2934  0.1477 -0.0742
10306W        W25775   5.414  11.520   4.575 -0.1637 -0.3248  0.0934
10307W        W25776  16.003   0.587  14.772  0.1109 -0.1452  0.1396
10308W        W25777   9.670   5.824   5.478 -0.1546  0.0453 -0.0217
10309W        W25778  17.850   9.337   3.987 -0.1109 -0.2397 -0.0943
10310W        W25779  14.667   3.455   3.268  0.1045 -0.3647 -0.1370
10311W        W25780   8.353   9.129  14.486  0.1297 -0.1604 -0.0833
10312W        W25781  13.839   7.669   2.003 -0.3615 -0.0503 -0.1784
10313W        W25782   7.870  12.273  11.896  0.1097  0.0624  0.0094
10314W        W25783   2.823   2.203  10.802  0.0854 -0.1361  0.0332
10315W        W25784   4.178  12.862   1.707 -0.1070 -0.1113 -0.0015
10316W        W25785  10.905  16.082  15.258  0.0381  0.1337 -0.1829
10317W        W25786  15.574   2.437  15.342  0.1840 -0.0668 -0.0109
10318W        W25787   3.956   2.835  11.167  0.3455 -0.1937 -0.0126
10319W        W25788   1.782  11.822  13.113 -0.1087  0.2100 -0.3405
10320W        W25789  13.988   3.643   3.143  0.0625 -0.1907  0.0449
10321W        W25790  10.116   0.329  12.080 -0.1431  0.1355 -0.0219
10322W        W25791  16.155  12.639   4.777  0.0432  0.1645 -0.5220
10323W        W25792   9.152   6.244   3.680  0.0715  0.0733  0.1964
10324W        W25793  15.523   0.161   0.630  0.0322 -0.0487  0.3188
10325W        W25794  10.141  17.359  12.566  0.1837  0.2069  0.3648
10326W        W25795   3.390   6.088  12.623 -0.0970  0.0859 -0.0157
10327W        W25796   0.846  16.731  11.400 -0.1311  0.0562 -0.0662
10328W        W25797   4.131  16.456  11.630 -0.0377 -0.1108 -0.0977
10329W        W25798   2.071   0.229   4.672  0.1151 -0.2801  0.1190
10330W        W25799   8.418   4.668   4.321  0.1724  0.0662  0.1070
10331W        W25800  15.143   1.453  12.682 -0.0599  0.0232 -0.1488
10332W        W25801   9.808   6.198   0.532 -0.0398  0.0039 -0.1537
10333W        W25802   4.786   9.830  11.431  0.1832 -0.0583 -0.1215
10334W        W25803  12.637  14.624   1.852  0.1197  0.1854  0.1300
10335W        W25804   6.350   4.957  14.497 -0.0174 -0.1248  0.0011
10336W        W25805   8.656  10.927  13.408  0.1017  0.1731  0.1580
10337W        W25806  15.142   8.901   4.825 -0.0546 -0.0430 -0.0741
10338W        W25807   0.742   2.356   0.481  0.0859  0.2410 -0.0378
10339W        W25808  16.660   9.449  11.427 -0.2766 -0.2167 -0.0591
10340W        W25809   3.302   2.021  12.198  0.1208 -0.1862  0.1100
10341W        W25810   9.229  14.273  11.825  0.1303  0.0850  0.0154
10342W        W25811   6.893  13.898   0.318 -0.0655  0.0019  0.1789
10343W        W25812  17.969  12.573  15.557 -0.2621 -0.1287  0.2395
10344W        W25813   2.953   4.510  11.986 -0.0449 -0.3420  0.2812
10345W        W25814   8.809   8.403  13.113 -0.0424  0.0124 -0.0890
10346W        W25815   0.283  11.874  15.356 -0.1897 -0.1062  0.2948
10347W        W25816  15.332   5.788   2.701 -0.1280  0.0542  0.1066
10348W        W25817   0.982  11.852   5.604  0.1540  0.3101 -0.1043
10349W        W25818  17.849  12.529   1.826  0.0819  0.2238  0.0316
10350W        W25819  13.193   7.162   5.854  0.1539  0.0222  0.0157
10351W        W25820  10.347  13.884  13.271  0.0590  0.1069  0.1279
10352W        W25821   7.571  15.780   1.671  0.1521  0.2878  0.0143
10353W        W25822   0.545   0.358   0.757 -0.0464  0.1205 -0.3340
10354W        W25823  15.418  16.465  12.834  0.1233 -0.2732 -0.1633
10355W        W25824   0.222  15.052   3.697  0.2340 -0.0444  0.0691
10356W        W25825   2.868  11.030   0.663 -0.1937  0.1565  0.1314
10357W        W25826  15.305  13.175   0.031 -0.1491 -0.2288  0.0909
10358W        W25827   2.003  16.615   5.104  0.3733  0.0101 -0.1910
10359W        W25828   0.533   8.073  15.765 -0.0856 -0.1702  0.2090
10360W        W25829  10.758  15.082  11.503  0.0390 -0.0181  0.3740
10361W        W25830   1.034   4.094  12.427 -0.0938 -0.1135 -0.1640
10362W        W25831  10.610  17.629  12.593 -0.0586 -0.3271 -0.0162
10363W        W25832   4.959  13.716  12.942  0.1846  0.0847 -0.4150
10364W        W25833  15.711  17.003   3.196  0.1553  0.1072 -0.1105
10365W        W25834   1.501  18.010   3.278  0.4372  0.1667 -0.4037
10366W        W25835  14.492  11.896   0.585  0.3099  0.2539 -0.0338
10367W        W25836  10.482   9.194   1.621  0.2540 -0.0076 -0.0113
10368W        W25837   9.304  17.479  13.414 -0.1277  0.1186 -0.1667
10369W        W25838   5.493   4.375   1.066 -0.0830  0.0344 -0.3334
10370W        W25839   7.639   5.628   2.067  0.0215 -0.0358  0.0792
10371W        W25840  17.599  15.898   2.897  0.1865  0.1777 -0.1071
10372W        W25841  16.027   0.920  12.270  0.2659 -0.0923 -0.0443
10373W        W25842  13.973  14.675  13.585 -0.0516 -0.2034  0.0966
10374W        W25843  12.441   4.167   2.830  0.1211 -0.0803  0.1466
10375W        W25844   3.738   7.210  14.687  0.0164  0.0394 -0.1970
10376W        W25845  10.596  15.550  14.923  0.0641  0.1884  0.2083
10377W        W25846   6.088   5.777   0.741  0.0926  0.0554  0.5140
10378W        W25847   4.050  17.520  15.454 -0.1188  0.2020  0.3694
10379W        W25848   1.050  15.776   2.107 -0.1649 -0.2000 -0.2064
10380W        W25849  14.889  13.737   5.505 -0.1076 -0.3062  0.1740
10381W        W25850   4.871   1.498  14.960 -0.0677  0.1482 -0.1587
10382W        W25851   7.194   9.256   9.669  0.3085 -0.1304  0.0517
10383W        W25852  14.751   8.907   4.166  0.2668 -0.2561 -0.1069
10384W        W25853   9.417   3.480   3.593  0.1013  0.0221  0.1884
10385W        W25854   2.316  10.773   4.025  0.0711 -0.1450  0.2906
10386W        W25855  17.892  16.244   1.618  0.0882  0.0770 -0.0697
10387W        W25856  13.845  16.018   0.815 -0.0112 -0.1187  0.3775
10388W        W25857   2.337  11.957  11.359  0.0079 -0.4083  0.0082
10389W        W25858   0.301  18.233  13.154 -0.1555 -0.0540  0.0890
10390W        W25859   4.794   6.168  13.136 -0.0129  0.1162 -0.0521
10391W        W25860   7.758   8.770  12.152  0.2113  0.2916 -0.2307
10392W        W25861  17.216  12.800   5.370 -0.2338  0.3299 -0.0368
10393W        W25862  17.682  17.627   2.307  0.1994 -0.1866 -0.2019
10394W        W25863   9.129   3.423  15.328 -0.2034 -0.0008 -0.2775
10395W        W25864   2.654  10.009  11.629 -0.0233  0.0738  0.2944
10396W        W25865   8.479  12.091  11.386  0.1532  0.3234 -0.1703
10397W        W25866   7.449  17.722  10.559 -0.0831 -0.1680  0.1854
10398W        W25867   9.057   3.218  12.690 -0.2209  0.1562  0.2097
10399W        W25868   8.606   8.149   0.990  0.0814 -0.1810  0.0676
10400W        W25869   7.053  15.046  14.344 -0.2203 -0.1404  0.0258
10401W        W25870  12.388   6.539  14.196 -0.0054 -0.0030  0.0354
10402W        W25871   0.178   0.983   5.006 -0.2849  0.1044  0.0534
10403W        W25872  12.940   4.335  10.898  0.1130  0.1781 -0.1940
10404W        W25873  14.605   8.953   0.629  0.0638 -0.1628  0.3197
10405W        W25874  17.249   1.753  12.429 -0.0005 -0.0973  0.4124
10406W        W25875   5.320  11.414  15.500  0.1957  0.1712  0.0212
10407W        W25876   4.045  10.381  15.412  0.0863  0.2072 -0.0260
10408W        W25877   5.767  18.240   0.482  0.0615 -0.1364 -0.0447
10409W        W25878  17.832   7.940  15.746  0.3059  0.3437  0.1232
10410W        W25879   0.261   1.228   2.178  0.0472 -0.2548  0.3374
10411W        W25880   6.450   4.984  12.014 -0.0851 -0.0998 -0.2247
10412W        W25881  17.138   1.051  11.782  0.2137  0.1411  0.1109
10413W        W25882   3.983   6.712  12.970  0.0948  0.1063  0.0947
10414W        W25883  10.114   6.043  11.448 -0.0620 -0.3126  0.0894
10415W        W25884  15.882   2.950  12.435 -0.0568  0.2196 -0.1887
10416W        W25885  16.092   1.673   1.659  0.1983 -0.1163  0.2218
10417W        W25886   1.995   3.699  13.373 -0.0947 -0.0377  0.1746
10418W        W25887  12.369  15.806   2.492  0.1639 -0.0770  0.0089
10419W        W25888   8.202   9.647  14.486  0.3254  0.5009  0.2909
10420W        W25889   7.144  17.071   2.039  0.0889  0.1407  0.0507
10421W        W25890   6.564   3.367   0.428 -0.1106 -0.1369 -0.1446
10422W        W25891   2.206   2.990  15.683  0.0375 -0.0971 -0.3906
10423W        W25892   2.528   5.530  12.868 -0.1149 -0.2157 -0.0005
10424W        W25893  10.128  15.768   4.799  0.0254 -0.0430 -0.1814
10425W        W25894  13.920  11.797  10.579 -0.0148 -0.0040  0.0560
10426W        W25895   5.077   4.770  14.855  0.5312  0.1511 -0.0213
10427W        W25896  14.544  13.572   0.797 -0.0903 -0.2193 -0.2634
10428W        W25897  16.370  17.035   0.193  0.1132 -0.0661  0.0354
10429W        W25898  12.424  10.096  13.051 -0.1900  0.2125 -0.2693
10430W        W25899  17.598  10.330  10.743  0.1849 -0.0518  0.2331
10431W        W25900  17.975   7.718   0.837  0.0360 -0.0065  0.1482
10432W        W25901  10.681  10.508  15.189  0.0514  0.2085  0.0926
10433W        W25902  16.772   1.850  11.897  0.1750 -0.1813 -0.0476
10434W        W25903  10.193   7.798  12.118 -0.0367  0.3094  0.0534
10435W        W25904   5.556   6.855  10.736 -0.0045  0.0281  0.1851
10436W        W25905  16.851  12.066   0.108 -0.0005  0.0643 -0.2228
10437W        W25906   0.756  12.494   2.399  0.0975 -0.1379  0.1715
10438W        W25907   1.565   1.752   4.771 -0.3065  0.0540  0.1649
10439W        W25908  10.228  11.696  14.882 -0.2212 -0.2658 -0.3405
10440W        W25909  12.635   7.676  11.977  0.2083  0.3199  0.0488
10441W        W25910  16.186   9.410  14.403 -0.0386 -0.0351 -0.0339
10442W        W25911  17.518   9.547   4.799 -0.1944  0.1660  0.1738
10443W        W25912  17.787  16.471   2.851  0.3384  0.1160 -0.1858
10444W        W25913   6.697  11.278  12.984 -0.0146 -0.3174  0.1630
10445W        W25914   3.214   1.910   1.962  0.4587 -0.1362  0.1191
10446W        W25915   7.817  15.489  15.541 -0.2836  0.1300 -0.1317
10447W        W25916  16.452   9.557   4.101  0.2505 -0.2161 -0.0967
10448W        W25917  15.760   0.321   4.391 -0.3134  0.3719 -0.0343
10449W        W25918   6.051  14.506  13.554 -0.0595  0.3564  0.1046
10450W        W25919   6.627   4.675   1.794 -0.0257 -0.1388 -0.0521
10451W        W25920  11.217   3.721   1.249  0.1084 -0.3850  0.0684
10452W        W25921   3.385  17.852   2.495  0.2601 -0.1432  0.2874
10453W        W25922  13.868   2.164  13.140 -0.0133  0.0971  0.1759
10454W        W25923  15.508   1.386   5.844 -0.0901 -0.1854  0.1314
10455W        W25924   0.529   4.523   0.044  0.4462  0.2523  0.0159
10456W        W25925  17.289  13.101  13.329  0.3257 -0.1831 -0.1529
10457W        W25926  14.061   9.370   2.971  0.0468 -0.2749  0.0259
10458W        W25927  11.912  11.300   4.285 -0.1758  0.2846  0.0961
10459W        W25928  10.105   3.291   1.355 -0.1678  0.1882 -0.0098
10460W        W25929   0.538  15.412   3.912 -0.0400 -0.0117 -0.0273
10461W        W25930   0.309   9.852   0.199  0.2832 -0.1861 -0.0268
10462W        W25931  12.534  16.347   5.579 -0.1609  0.1221 -0.0804
10463W        W25932   1.119  11.786  11.509 -0.2398 -0.2978 -0.1624
10464W        W25933  12.509   4.240   1.790  0.1405 -0.0890  0.3724
10465W        W25934   7.924   1.262   5.156 -0.3275 -0.3100 -0.3605
10466W        W25935   7.525   3.957  13.784  0.1279  0.0363  0.1189
10467W        W25936   4.840  13.540  14.114  0.1498 -0.2579  0.0401
10468W        W25937  18.058   2.321  14.569 -0.0152  0.0613 -0.0694
10469W        W25938  16.499   5.647  11.834  0.5123  0.0222 -0.1362
10470W        W25939   7.653   7.284  10.954 -0.0971  0.0400 -0.0942
10471W        W25940   3.696   8.783   3.622 -0.2179 -0.1703 -0.1514
10472W        W25941   8.570   9.328  11.922 -0.1580 -0.0186 -0.0503
10473W        W25942  17.551   6.171   5.012 -0.1762  0.0372  0.2764
10474W        W25943   9.135   7.491  12.938  0.2608 -0.4215  0.0873
10475W        W25944  10.125   5.305   1.968  0.1832  0.0483 -0.0424
10476W        W25945  16.428   0.477  10.539 -0.1913  0.0957  0.1127
10477W        W25946   2.695  11.846   2.027  0.2886 -0.2131 -0.2403
10478W        W25947   8.497   7.633  12.572 -0.2569 -0.1338  0.0800
10479W        W25948  17.549   2.688   3.620  0.2832 -0.1604  0.0100
10480W        W25949   9.694   2.259   4.732  0.1986  0.1272  0.0451
10481W        W25950  17.391   6.968   3.007 -0.3123 -0.0680  0.1565
10482W        W25951  18.234  10.360   0.243  0.2536 -0.0588  0.0696
10483W        W25952  14.483  10.160  12.623 -0.1109 -0.3355 -0.3001
10484W        W25953  14.671   2.931  11.872  0.3709  0.2173  0.0896
10485W        W25954  11.927  10.287  14.966 -0.3041  0.1493  0.0846
10486W        W25955  15.428   4.090  14.101 -0.1236  0.1594 -0.0976
10487W        W25956  10.256  15.136   3.948  0.2712 -0.0217 -0.0422
10488W        W25957  11.683   9.200  14.195 -0.1495  0.0584  0.2191
10489W        W25958  12.539  10.469  11.176 -0.0469 -0.1296  0.1601
10490W        W25959  11.400  12.002   3.482 -0.1726  0.0303  0.3793
10491W        W25960  17.013   7.805   5.345  0.2069 -0.0082 -0.0837
10492W        W25961   9.861  15.826   0.547 -0.1010 -0.0041  0.0452
10493W        W25962  17.244  17.125  14.169  0.1555 -0.3588  0.0461
10494W        W25963  15.266   3.628   4.088  0.1348 -0.0693 -0.3966
10495W        W25964   3.808   2.956   0.863 -0.0283  0.1098 -0.0351
10496W        W25965  11.922   2.345   3.638 -0.0834  0.1129 -0.2307
10497W        W25966   1.309  11.072  12.148 -0.0244  0.0049  0.1290
10498W        W25967  17.096   5.949   4.975  0.2212  0.0153 -0.0664
10499W        W25968   0.714  13.370   4.569 -0.2212 -0.1064 -0.1791
10500W        W25969  14.233   4.974   4.848  0.0686 -0.1504 -0.2002
10501W        W25970   8.285   7.748   4.346  0.2190  0.0885  0.0823
10502W        W25971   6.585  17.230   4.337  0.1162  0.1022 -0.0958
10503W        W25972  16.651   3.163   3.070 -0.0385 -0.0760  0.3006
10504W        W25973   1.886   5.013   2.638  0.0514  0.2339  0.0022
10505W        W25974  15.369  11.123   2.101 -0.0648  0.0208 -0.2215
10506W        W25975  12.294  15.038   5.431  0.4585 -0.0380 -0.0648
10507W        W25976   0.558  17.755   1.474 -0.0229 -0.2441  0.2012
10508W        W25977  13.362  14.655   1.897  0.2891 -0.1477  0.1393
10509W        W25978   1.519  14.330  11.639 -0.3029 -0.0382  0.0219
10510W        W25979   7.309   8.653   5.245 -0.1179 -0.4314 -0.2854
10511W        W25980   5.036   7.567   3.918 -0.0610  0.0626  0.2494
10512W        W25981   1.676  11.192   1.417 -0.0030  0.0478  0.0500
10513W        W25982   7.624   9.166  10.938 -0.0139 -0.1352 -0.0263
10514W        W25983  12.801  15.239   3.083  0.0372  0.2732  0.0839
10515W        W25984   3.563   8.326   0.027  0.0215 -0.3536  0.4446
10516W        W25985   9.777   7.781  12.889  0.2000  0.1102 -0.1691
10517W        W25986   7.025  11.902  15.956 -0.1791 -0.1339 -0.0481
10518W        W25987  12.434   8.311  16.051 -0.0133  0.1987  0.1412
10519W        W25988  14.371  17.207  14.512 -0.0707  0.0944  0.2749
10520W        W25989   5.678   8.626   4.711  0.0453  0.3370  0.0581
10521W        W25990  11.585   4.817   1.274  0.3258  0.0204  0.0139
10522W        W25991   6.999   6.517   0.566 -0.0513 -0.1181 -0.2954
10523W        W25992   4.730  17.725  12.206  0.0599 -0.1452 -0.1961
10524W        W25993   1.055  13.702  12.886 -0.1180 -0.0939 -0.0324
10525W        W25994  17.964  13.812  12.337 -0.0269  0.1102 -0.0580
10526W        W25995  12.675   4.113   0.840  0.0892 -0.2834 -0.2092
10527W        W25996  10.093   0.412  12.641  0.1775  0.1198  0.1259
10528W        W25997  10.045   7.406   1.630  0.2105 -0.3105 -0.0728
10529W        W25998  11.482  12.167   4.999  0.1486  0.2659 -0.1217
10530W        W25999  12.323   2.382   0.175  0.0996  0.2207  0.1447
10531W        W26000   2.876   8.068  10.976  0.0945  0.0033 -0.1956
10532W        W26001  16.329  12.289   2.935  0.1155 -0.2052 -0.2039
10533W        W26002  14.834   3.280  15.018  0.0814  0.3301  0.2740
10534W        W26003  14.083  10.373  11.443  0.2044  0.0744  0.0346
10535W        W26004   2.585   9.083  13.507  0.1397  0.1051 -0.4032
10536W        W26005   2.604   8.749   2.989 -0.2235  0.4202 -0.0654
10537W        W26006  15.047   3.243  12.557 -0.2480 -0.1200 -0.1322
10538W        W26007  16.872  15.878  11.372  0.2905 -0.1345 -0.3105
10539W        W26008   3.432   8.022   5.031 -0.0946 -0.1065 -0.2108
10540W        W26009  16.131   0.173   3.534  0.0946  0.0517 -0.1875
10541W        W26010   8.163   7.412  11.872  0.1640  0.3741  0.0429
10542W        W26011  17.767  17.917  11.278 -0.1256 -0.0212  0.2203
10543W        W26012   2.854   3.366  11.237  0.2297  0.0903  0.0112
10544W        W26013   1.889   2.260   4.750 -0.2528 -0.1053 -0.0554
10545W        W26014  17.562  15.141   1.751  0.4705 -0.0722  0.1188
10546W        W26015   6.501   0.510  11.697  0.3665  0.2216 -0.0271
10547W        W26016   8.734  13.581  15.848 -0.0154  0.1952 -0.3389
10548W        W26017   6.601   4.769  13.343  0.1845  0.1657  0.1680
10549W        W26018   3.320  11.847  15.131 -0.0420 -0.0661  0.2743
10550W        W26019   7.293  14.560   1.986 -0.1203  0.1106 -0.2355
10551W        W26020   3.018  12.193   5.247  0.5147  0.1098 -0.1874
10552W        W26021   1.782  13.215   5.809  0.0457  0.0005 -0.0978
10553W        W26022  10.566   0.822  15.095 -0.0980 -0.0134  0.2303
10554W        W26023   4.814   2.996  14.991 -0.2404  0.2035  0.1711
10555W        W26024   0.737  15.330  15.444 -0.2675 -0.1028 -0.2120
10556W        W26025  14.438  10.853  11.494 -0.1038  0.1657 -0.1937
10557W        W26026   1.728  11.579   3.620  0.1862  0.3299 -0.0013
10558W        W26027  13.540  12.342   4.056  0.4284 -0.0112  0.1194
10559W        W26028  15.024   7.529   3.499  0.0791  0.1666 -0.0246
10560W        W26029  16.398   3.311  11.585 -0.1719  0.2012  0.3906
10561W        W26030   3.188  10.777  15.142  0.1360 -0.2197  0.0497
10562W        W26031  16.084   1.172   2.676 -0.2041 -0.2110 -0.1204
10563W        W26032   1.480  11.904  15.701 -0.1121  0.0391 -0.2285
10564W        W26033  13.791   8.306  11.993  0.3623 -0.1354  0.1081
10565W        W26034  16.739  14.425  12.716 -0.2929 -0.1411 -0.0781
10566W        W26035   1.097  16.256   5.256  0.0779 -0.1135 -0.0262
10567W        W26036  13.161   1.401   0.713 -0.0979  0.2816 -0.0924
10568W        W26037   8.960  14.283   2.113 -0.0438 -0.1739  0.2815
10569W        W26038   5.226   5.968   4.193  0.0430 -0.1256 -0.2678
10570W        W26039   8.071  15.071   4.263  0.0416 -0.0945 -0.0241
10571W        W26040   3.456   0.904   3.033  0.0542  0.1321 -0.2111
10572W        W26041  16.163  10.230  11.875 -0.2153 -0.2776  0.0740
10573W        W26042  14.399  10.020   5.940 -0.0995  0.1524 -0.1904
10574W        W26043   2.128  16.751  13.217  0.1647  0.0876  0.2262
10575W        W26044  15.157  11.588  15.113  0.1045 -0.2840  0.0355
10576W        W26045  18.147  17.503  13.113  0.1692 -0.0678  0.4992
10577W        W26046   2.324   7.720   1.712 -0.0046 -0.0194  0.0317
10578W        W26047   3.539   2.446   4.041 -0.1531 -0.0615 -0.0689
10579W        W26048   8.502   2.965  12.062  0.2633  0.0020  0.6495
10580W        W26049   2.461   4.778  15.260 -0.0561  0.1235 -0.1604
10581W        W26050  16.951   6.213   1.300  0.0376 -0.1776  0.1454
10582W        W26051   6.714   7.029   9.821  0.0672  0.1656  0.0720
10583W        W26052   0.238   2.204   0.350 -0.2980  0.1035  0.2615
10584W        W26053  10.996   6.170   4.014  0.2043  0.1083 -0.2136
10585W        W26054  11.676  16.417  13.937  0.2097  0.0229 -0.0157
10586W        W26055  16.662  10.935  12.100 -0.2218  0.1775 -0.4524
10587W        W26056   1.142   1.095   4.864 -0.0951  0.0876  0.2009
10588W        W26057  11.992   2.485  10.308  0.3273 -0.1419 -0.1331
10589W        W26058   7.024  16.591   3.389  0.1807 -0.2375  0.0602
10590W        W26059   1.430   1.428  13.524 -0.0866 -0.2904  0.2310
10591W        W26060  16.227   8.962   1.013 -0.0030 -0.1085  0.1887
10592W        W26061  13.524   7.967  14.473  0.0405  0.2903 -0.0036
10593W        W26062  10.688   9.207   4.247  0.3524 -0.0519 -0.0897
10594W        W26063   9.262   2.277  13.463 -0.0632 -0.2621  0.3130
10595W        W26064   9.388  12.441   4.307  0.1591 -0.1567 -0.0320
10596W        W26065   7.334   2.039  15.627 -0.4174  0.0652  0.1958
10597W        W26066   7.466   5.132  14.811 -0.2359 -0.0092  0.1133
10598W        W26067   2.166   9.759   3.074  0.2085  0.2854 -0.1547
10599W        W26068   5.163  10.734  11.186 -0.0763  0.0450  0.0966
10600W        W26069  12.685  16.150  15.490 -0.1346  0.2615 -0.1139
10601W        W26070  15.923   5.184   4.704 -0.1309 -0.0621 -0.1254
10602W        W26071   3.584   3.112   0.187  0.0271  0.0226  0.1615
10603W        W26072   6.616  13.112   1.382 -0.1236  0.0369  0.0962
10604W        W26073  17.016  12.644   2.455 -0.3267  0.3423 -0.0348
10605W        W26074   9.266  15.667   1.039  0.4738 -0.2553  0.0462
10606W        W26075  15.596  12.725   2.045  0.1382  0.0349 -0.1277
10607W        W26076   7.542   0.199  12.357 -0.2943 -0.0884  0.1321
10608W        W26077   2.498  14.656  14.927  0.0047 -0.1673  0.0588
10609W        W26078  17.952  17.276   0.292 -0.2697  0.4229 -0.3690
10610W        W26079   9.764   1.801   0.600 -0.0346  0.0999 -0.2971
10611W        W26080   6.251   3.780   2.571  0.1223 -0.0004  0.2431
10612W        W26081  10.041   4.946  14.775  0.2875  0.0260 -0.2614
10613W        W26082   9.532   0.993  11.495 -0.0819 -0.1299 -0.1044
10614W        W26083   7.759   3.945   1.101 -0.1609 -0.2326  0.4421
10615W        W26084   7.568  13.691   0.965 -0.4440 -0.1779 -0.1470
10616W        W26085   7.732   9.775   5.544 -0.1344 -0.1827  0.0073
10617W        W26086   1.489  11.494   5.074 -0.1977  0.2393  0.0346
10618W        W26087   9.766   9.369  14.851  0.1942  0.1323 -0.0097
10619W        W26088   9.100  16.161   0.738 -0.0978  0.0545 -0.0938
10620W        W26089  17.604   4.257  10.988  0.0848  0.0797 -0.0164
10621W        W26090   4.345  13.384   5.098  0.0231 -0.0709  0.0255
10622W        W26091   0.630   0.602   5.713 -0.1061  0.1064  0.0624
10623W        W26092   3.002   8.495   3.477  0.2149 -0.1267  0.1316
10624W        W26093   1.713  13.511  15.816  0.0058  0.0906 -0.0013
10625W        W26094  18.070   5.632  11.154  0.0583 -0.0453 -0.0564
10626W        W26095   1.449  15.930   2.670  0.0305  0.0906  0.0328
10627W        W26096   8.557  17.896   2.509 -0.1988 -0.4147  0.0599
10628W        W26097   8.811   8.644   2.360 -0.1094  0.0328  0.4082
10629W        W26098   8.632   4.278   0.098 -0.3675 -0.0102 -0.1577
10630W        W26099  14.903   7.094   5.770 -0.1845 -0.1778 -0.0986
10631W        W26100  12.225   9.731   0.066 -0.1688 -0.2100 -0.1110
10632W        W26101  12.255  16.212   2.793  0.0894  0.0092  0.3648
10633W        W26102  15.724  14.897  12.245 -0.0644 -0.1336 -0.2608
10634W        W26103   5.716   0.190   1.718  0.1228 -0.0636  0.1706
10635W        W26104  13.969  17.342   3.015  0.0727 -0.0102 -0.3395
10636W        W26105  11.177   9.611   1.647 -0.4122  0.1372 -0.0971
10637W        W26106   7.056   7.683  13.681 -0.2027  0.0755  0.2035
10638W        W26107  14.687   5.496   2.179 -0.1578  0.1549 -0.0067
10639W        W26108   4.489   7.010  15.612 -0.0708  0.0346  0.1581
10640W        W26109   4.441  10.678   1.636  0.0302 -0.1123  0.0980
10641W        W26110   5.500   5.465   4.152 -0.0373  0.0682  0.0321
10642W        W26111   1.767  10.930  12.392  0.3027  0.0786 -0.1804
10643W        W26112  11.047   2.094  10.499  0.0826  0.0090 -0.0538
10644W        W26113   8.090   8.607   4.848  0.1607  0.0049  0.0216
10645W        W26114  18.012   9.517  12.085  0.0030 -0.2859 -0.1341
10646W        W26115  16.977  14.413  15.181  0.0902  0.1058  0.0020
10647W        W26116  15.758  17.624  11.986  0.1112  0.0703 -0.0773
10648W        W26117   0.453   3.941  14.153  0.1003 -0.0141 -0.0049
10649W        W26118  15.012   5.036   3.501  0.1184 -0.2662 -0.2404
10650W        W26119   5.488   6.457  13.466  0.0712 -0.3101  0.0827
10651W        W26120  11.392   3.071   1.822  0.0127 -0.2197  0.0857
10652W        W26121  18.240  13.211   2.971  0.1261 -0.4595  0.1208
10653W        W26122   0.477   0.141   3.409  0.1107  0.0386 -0.1615
10654W        W26123   9.502   3.940  12.022 -0.1081  0.0173 -0.1874
10655W        W26124  14.435  16.599   1.910  0.0577 -0.1782  0.0982
10656W        W26125   5.879   8.016   0.278 -0.0622 -0.1401 -0.4601
10657W        W26126   8.247   6.389  11.142 -0.0478  0.1175 -0.0823
10658W        W26127  13.005  15.568  13.890 -0.1637  0.0076  0.2303
10659W        W26128  12.844   9.173   0.488  0.0165  0.0470 -0.2323
10660W        W26129  10.710   3.359   0.142 -0.0739 -0.2366  0.0263
10661W        W26130   0.101   9.774   2.699 -0.2750  0.1704 -0.0834
10662W        W26131  14.774  10.661  13.301 -0.1197 -0.0851  0.2958
10663W        W26132   6.984  13.345  11.666  0.1729  0.0467  0.1650
10664W        W26133  14.528   3.024  15.424 -0.3714 -0.0346  0.0383
10665W        W26134  10.844   6.230  10.743  0.0540  0.2311 -0.2451
10666W        W26135   4.360  12.410  10.544  0.0351 -0.3887 -0.1037
10667W        W26136  10.400  18.149   5.260 -0.0622  0.0809 -0.0624
10668W        W26137  10.328   5.434   3.716  0.0142  0.1793  0.3158
10669W        W26138   1.871  17.310  15.814  0.4472 -0.1229  0.0425
10670W        W26139   1.425   0.696   4.847  0.1690  0.3017  0.0127
10671W        W26140   9.865   6.265   4.488  0.1991  0.3395  0.0436
10672W        W26141  10.237   9.151  16.039  0.0286  0.1343  0.2472
10673W        W26142   5.993   9.910   1.550 -0.0116  0.0977  0.0330
10674W        W26143   5.602   7.050   0.692  0.0484 -0.0988 -0.2293
10675W        W26144   6.108   8.202   4.609  0.1802  0.2577 -0.2087
10676W        W26145   0.885  12.384   2.858  0.1648 -0.0774 -0.1363
10677W        W26146   6.412  12.657  15.458 -0.3833 -0.1012 -0.0441
10678W        W26147  14.858  13.433  16.067  0.1915  0.1112 -0.2183
10679W        W26148  10.319  15.975  13.891  0.0622  0.1678 -0.2065
10680W        W26149  18.188  11.945  14.948  0.0042 -0.0689 -0.3283
10681W        W26150  16.478  13.598  11.821 -0.1659 -0.2014  0.1633
10682W        W26151   2.382   3.151   1.353 -0.0551 -0.0377 -0.3685
10683W        W26152  10.047   7.942   3.006  0.5789  0.2148  0.0133
10684W        W26153  14.072   4.252   3.123 -0.3311  0.4232 -0.1200
10685W        W26154  10.430   1.775   4.649  0.1479 -0.2390 -0.2693
10686W        W26155   2.141  15.326   4.764  0.0020 -0.2429  0.1221
10687W        W26156   2.815  16.773   1.330  0.0738 -0.2004 -0.0562
10688W        W26157   4.457   1.656  15.170 -0.0571 -0.2408  0.0077
10689W        W26158  12.790  11.111   2.082  0.1721  0.3164 -0.1491
10690W        W26159  10.584  17.688   5.077  0.4727 -0.2612 -0.3233
10691W        W26160   8.010  10.295   4.213 -0.1616  0.1785 -0.2067
10692W        W26161   1.674  14.640  13.329 -0.3066  0.0842 -0.1058
10693W        W26162  16.777  16.339   2.926 -0.0251 -0.1898  0.0741
10694W        W26163   7.681   0.380   4.491  0.0310 -0.0885 -0.0520
10695W        W26164   2.079  10.837   1.361  0.1131  0.2591  0.1243
10696W        W26165   2.291  16.633   3.208 -0.0214 -0.0885 -0.0464
10697W        W26166   7.947  15.243   5.381 -0.1482 -0.3516  0.0322
10698W        W26167  11.862  12.214  14.374  0.0288  0.0516  0.0815
10699W        W26168   0.915  14.785   2.602 -0.0520 -0.0063 -0.3403
10700W        W26169  13.772   7.862   2.509  0.0520  0.0728 -0.3512
10701W        W26170  14.456  15.806   3.602 -0.0180 -0.1268  0.1600
10702W        W26171   2.114   2.087   2.086 -0.0149 -0.0434  0.1485
10703W        W26172   2.243   8.567   1.768 -0.0260 -0.2468  0.0565
10704W        W26173   0.726  10.003   4.911  0.0375  0.1020  0.2195
10705W        W26174   1.793  13.121  12.685  0.0896  0.1941 -0.0336
10706W        W26175   8.929   8.331   1.965 -0.0877  0.0640  0.2436
10707W        W26176  15.471  11.980   0.610 -0.2238  0.0883 -0.1399
10708W        W26177   5.846   1.372  14.292  0.0215  0.5340  0.1795
10709W        W26178  10.795  15.958  11.911 -0.1747  0.0007  0.1369
10710W        W26179   2.292  17.014  14.565 -0.1912 -0.2306 -0.0811
10711W        W26180  12.499  17.551  13.351  0.3284 -0.2835  0.1785
10712W        W26181   7.502   5.924   0.663  0.0957  0.1346 -0.1001
10713W        W26182   7.181   9.638  14.496  0.0104  0.2425 -0.2573
10714W        W26183   6.632  15.321  12.024  0.0285  0.0122  0.3571
10715W        W26184   3.742  18.012   0.543  0.1771  0.0747  0.1570
10716W        W26185   8.940  17.536   1.415  0.0156 -0.0474 -0.1275
10717W        W26186   7.373  12.839   4.601  0.2161  0.0746 -0.0534
10718W        W26187   9.342  11.388   1.144 -0.0339  0.1888  0.0140
10719W        W26188  15.618   8.673  14.745  0.1355 -0.3157  0.0817
10720W        W26189   7.080   0.707  15.272 -0.1066 -0.0295  0.0853
10721W        W26190   5.883  14.786  14.765  0.1533 -0.0695  0.0435
10722W        W26191   6.244   8.485  11.571  0.0540 -0.0490  0.0479
10723W        W26192  13.336   2.371   1.333 -0.0778  0.0418  0.1719
10724W        W26193  15.708  12.059   4.355 -0.0296  0.2595  0.3381
10725W        W26194   3.384  16.936  11.792  0.0093  0.2647 -0.0085
10726W        W26195  13.373   6.410  15.478  0.2233  0.1668 -0.0755
10727W        W26196   0.292   2.180   2.120  0.1164 -0.1490 -0.1464
10728W        W26197  13.254  10.491  10.461  0.0078 -0.0115 -0.4777
10729W        W26198  10.804  12.525  13.574  0.1149  0.3205 -0.0458
10730W        W26199  13.252   6.359   0.204  0.1566 -0.0813 -0.2325
10731W        W26200   2.796  12.454  14.892 -0.0426  0.0733  0.0382
10732W        W26201   7.808  11.101  14.438  0.0754  0.1623 -0.1195
10733W        W26202  13.617   7.431  12.781 -0.2667 -0.0922 -0.0358
10734W        W26203  14.683  15.667   1.619  0.0552  0.2447 -0.3904
10735W        W26204  11.082   4.782   2.471 -0.2228  0.3244 -0.0844
10736W        W26205   7.997  17.813  15.371  0.2276  0.0005 -0.0449
10737W        W26206  14.028   7.074  12.706  0.0261 -0.0923  0.2596
10738W        W26207   1.240  10.285  11.816  0.2579  0.3977 -0.1977
10739W        W26208  14.357   2.513  15.918 -0.1481  0.0520  0.2064
10740W        W26209  13.556   1.711  15.925 -0.0274 -0.0523 -0.0115
10741W        W26210  11.899  13.596   3.675  0.2276 -0.1872  0.0220
10742W        W26211   9.037   8.258  14.697  0.0303 -0.0706  0.2102
10743W        W26212  16.549   1.694  12.668 -0.0804  0.1375 -0.3819
10744W        W26213   6.729   4.492   3.312  0.0663 -0.1143 -0.1569
10745W        W26214   5.262   1.173   4.012  0.1236 -0.1890 -0.2694
10746W        W26215   7.954  13.875   2.990 -0.2885  0.0346 -0.2586
10747W        W26216  10.427   3.814  14.889  0.0510  0.0374 -0.1702
10748W        W26217  10.472   4.253   0.239 -0.2027  0.2028  0.0724
10749W        W26218  16.910   8.708  12.893 -0.1985 -0.2200  0.0472
10750W        W26219   1.269  17.351  12.299  0.0187 -0.1796  0.0777
10751W        W26220   6.050   4.858  13.251  0.0752  0.1482  0.0076
10752W        W26221  14.632  17.290  11.910  0.2645 -0.0784  0.1229
10753W        W26222   8.397  10.414  10.706 -0.2983  0.0216  0.0484
10754W        W26223  18.036  17.575   3.210 -0.0416  0.2547  0.0038
10755W        W26224   1.585  13.384  10.362 -0.2218 -0.0051 -0.0631
10756W        W26225  14.814  11.073   1.488 -0.0891 -0.1514 -0.2054
10757W        W26226  12.285   8.397   4.736 -0.2881  0.1730  0.2490
10758W        W26227  13.377  12.382  14.967  0.1870 -0.2029 -0.1651
10759W        W26228   3.745  12.871  13.442  0.1054  0.0826 -0.1357
10760W        W26229  16.883  17.582   1.103  0.1166  0.1100  0.0459
10761W        W26230   7.184  13.224  15.386  0.0295 -0.2918  0.3674
10762W        W26231  12.322   1.356   4.201  0.0021 -0.4433 -0.0479
10763W        W26232  10.474  18.270  15.517  0.2698  0.0247 -0.1196
10764W        W26233  16.827  17.820   4.865 -0.0446  0.1042 -0.0761
10765W        W26234  14.069   5.605  14.631  0.1321  0.0226 -0.0581
10766W        W26235  16.680   0.518   0.330 -0.1119  0.0612 -0.0486
10767W        W26236   4.730   2.396  12.265  0.4033 -0.1191 -0.1391
10768W        W26237   8.986  14.009   3.964  0.0178  0.1454 -0.0250
10769W        W26238  17.341  14.598  13.333  0.3370 -0.1974 -0.1248
10770W        W26239  17.400   1.349   2.304 -0.1610 -0.0061 -0.3162
10771W        W26240  10.205   6.006   0.825 -0.1785  0.0547  0.0298
10772W        W26241   7.845  14.502  12.465  0.0484 -0.0650 -0.1389
10773W        W26242   2.036  11.217  11.589 -0.1252 -0.1065 -0.3456
10774W        W26243  13.782   9.686  11.527  0.2023 -0.3446  0.2177
10775W        W26244  12.093  11.518  15.197 -0.3943 -0.3110  0.3067
10776W        W26245  15.013   9.884  12.074 -0.1397  0.0504 -0.1368
10777W        W26246   6.298  14.519  14.680 -0.0507 -0.0839 -0.0177
10778W        W26247   3.243  16.536  12.151  0.2818  0.1545 -0.0062
10779W        W26248  17.177  15.839   6.219  0.1026  0.1141  0.2726
10780W        W26249   7.739   1.730  15.070 -0.0045 -0.3634 -0.0102
10781W        W26250   4.595  12.487  12.492 -0.1680 -0.0625 -0.2621
10782W        W26251  13.447  10.253  12.034 -0.0611 -0.0560  0.0708
10783W        W26252   7.046  17.418  14.376  0.1974 -0.0440  0.1268
10784W        W26253   1.793  17.144   2.354 -0.2346 -0.0696  0.1113
10785W        W26254  12.504   7.514   0.640  0.2564 -0.1680 -0.1730
10786W        W26255   5.287   5.039   4.542  0.0560  0.1226 -0.2145
10787W        W26256   8.494   4.029  10.938  0.0411  0.4032 -0.0670
10788W        W26257   2.886  14.061  12.559  0.0699 -0.4527  0.1472
10789W        W26258  16.273   9.383   1.320 -0.0870  0.1595  0.0160
10790W        W26259   1.547   2.109   0.330 -0.0149  0.3962  0.1566
10791W        W26260   0.331  14.784   1.990  0.4910 -0.2865 -0.0070
10792W        W26261  15.244   5.504  12.200 -0.0238 -0.0220 -0.2506
10793W        W26262   4.420   9.548  11.283  0.2281  0.0078 -0.0666
10794W        W26263   1.574  13.505  11.937  0.0177  0.3932 -0.3028
10795W        W26264  18.249  16.533  16.051 -0.2519  0.4183 -0.1362
10796W        W26265   2.727   0.809  13.369 -0.2649  0.0850  0.0235
10797W        W26266   5.029   2.677  11.945  0.2838  0.2493  0.0249
10798W        W26267   1.119   7.623   4.953  0.3389 -0.5046 -0.0113
10799W        W26268   4.058  16.333   3.668 -0.0502 -0.0795 -0.1759
10800W        W26269  12.634  11.422  11.282 -0.0481 -0.2080 -0.0663
10801W        W26270  14.223  14.089  12.305 -0.1031 -0.4017 -0.0194
10802W        W26271  16.750  15.757  12.914  0.0088 -0.1416  0.0585
10803W        W26272   7.163   8.597   2.988 -0.0725  0.1699  0.2182
10804W        W26273   6.311   5.103   1.950 -0.0529  0.1046 -0.0725
10805W        W26274  14.177   0.184  12.921 -0.3146  0.1594 -0.0508
10806W        W26275   4.488  18.113   1.234 -0.2236 -0.0555  0.2376
10807W        W26276   6.435   3.507   0.890  0.2552  0.1150  0.0556
10808W        W26277  11.594   1.796  10.711  0.0216  0.0586 -0.0597
10809W        W26278   7.849   7.178  12.253 -0.1719  0.0695 -0.0747
10810W        W26279   4.593  13.093  11.322  0.1287  0.1863 -0.1590
10811W        W26280  14.559   1.127  15.956 -0.0975 -0.0055 -0.0099
10812W        W26281  12.044   7.583  15.613  0.0906  0.3050 -0.2893
10813W        W26282   4.683   4.765   3.204 -0.1755  0.0635 -0.0718
10814W        W26283  11.750   4.461  15.172 -0.2557 -0.0160  0.1515
10815W        W26284   5.179   8.355   5.434 -0.3862  0.2580 -0.1954
10816W        W26285  14.706  11.075   4.989 -0.1761  0.1058 -0.0265
10817W        W26286  16.269  12.811  15.894 -0.1947 -0.0713  0.0395
10818W        W26287   1.405  17.112  10.337  0.2745  0.0225  0.2465
10819W        W26288   9.063   9.743  12.703  0.0935 -0.2160 -0.0225
10820W        W26289  12.596   1.394   5.198 -0.0433 -0.2103 -0.0188
10821W        W26290   6.907   1.407  14.552  0.0397 -0.0028  0.0836
10822W        W26291  12.281  12.221  11.955  0.1988  0.0257  0.2983
10823W        W26292  14.262  17.461  13.232 -0.1174  0.1409 -0.0867
10824W        W26293  17.417   8.343   0.704  0.1217  0.1687 -0.1955
10825W        W26294  16.906  14.484  16.050 -0.1459  0.2004  0.1935
10826W        W26295   4.238  12.884   6.029  0.3681  0.0774  0.0640
10827W        W26296   3.090   8.659   3.050  0.0378  0.0005  0.1579
10828W        W26297   6.903   4.619   4.234 -0.2145 -0.0123 -0.0716
10829W        W26298  10.378   7.427   2.961  0.1561 -0.1592  0.0813
10830W        W26299   2.127  15.404   3.823  0.0861 -0.2869  0.1307
10831W        W26300  13.904   9.177  11.351 -0.2149 -0.0973  0.0189
10832W        W26301  17.766   6.247  12.767  0.1673 -0.3956 -0.1446
10833W        W26302   9.349   4.936   0.828  0.1888  0.1436  0.1399
10834W        W26303   4.318   4.939  12.616  0.1177  0.0937  0.0974
10835W        W26304  18.175   0.604  15.084 -0.1474 -0.0012  0.3028
10836W        W26305  17.951   9.793   2.970  0.1492  0.3285  0.0996
10837W        W26306  10.425  10.890  11.567 -0.0590  0.0214  0.1246
10838W        W26307   3.726   7.423  10.176 -0.0162 -0.0910  0.0539
10839W        W26308   7.778   5.713   3.746 -0.0865  0.3489  0.0892
10840W        W26309  16.603  17.345   0.442  0.3061 -0.0522 -0.0766
10841W        W26310  13.315  10.502   2.978  0.2560  0.2166 -0.1129
10842W        W26311   9.477  11.874   2.719  0.0046 -0.1291 -0.1244
10843W        W26312  17.034   4.698  13.541 -0.1725  0.0098  0.2177
10844W        W26313   3.116  17.716   1.264 -0.0573 -0.3865  0.1461
10845W        W26314  17.405  11.147  10.356 -0.0332  0.0169  0.1351
10846W        W26315  10.115   1.265   4.623 -0.2173  0.1097 -0.0300
10847W        W26316   1.909  11.356  10.759 -0.3516 -0.0589 -0.0491
10848W        W26317   4.091   5.469   5.194 -0.1179 -0.0774  0.0223
10849W        W26318   6.390  15.446   4.465  0.0382  0.2799 -0.2135
10850W        W26319  12.846   9.667  10.581 -0.1414  0.2885 -0.1621
10851W        W26320  10.943   7.255  11.636 -0.0352 -0.0781  0.1473
10852W        W26321  13.596   4.160  15.380 -0.2667  0.0025 -0.1253
10853W        W26322  10.592   5.847  11.595 -0.1262  0.3614 -0.1695
10854W        W26323  14.295  12.669  14.717  0.4037  0.0592  0.1462
10855W        W26324  17.885  13.446   0.380 -0.0766 -0.1576  0.3701
10856W        W26325  17.799  12.416  11.587  0.3176  0.0416 -0.0310
10857W        W26326  17.411  16.053  10.427  0.1965  0.0295  0.1273
10858W        W26327   9.755  14.569  15.321 -0.0240  0.0915 -0.3021
10859W        W26328   4.337  11.487  15.025  0.4169 -0.0457  0.0556
10860W        W26329   5.856   7.878   3.017 -0.2479 -0.1113 -0.2127
10861W        W26330  12.138  16.540  11.912 -0.2021 -0.1962  0.3226
10862W        W26331  14.550   8.909   4.676  0.1502 -0.0358  0.4744
10863W        W26332  15.544  15.695  12.479 -0.4162  0.3393  0.0729
10864W        W26333   2.075   9.120  14.998  0.2683 -0.0615 -0.0127
10865W        W26334  11.154  13.344   2.281 -0.3165  0.1195 -0.0619
10866W        W26335  14.686   2.570  15.277  0.1304 -0.0734  0.1302
10867W        W26336  14.862   3.755   3.810  0.2552 -0.1369 -0.1270
10868W        W26337  15.575  13.971  12.450  0.2172 -0.3491 -0.3306
10869W        W26338   8.451   3.636   1.138  0.0662  0.2388 -0.4147
10870W        W26339   8.241  10.832  10.991  0.2379 -0.0942  0.1415
10871W        W26340  12.391  10.992   3.361  0.0224 -0.0541 -0.1783
10872W        W26341   6.742   0.869  10.954  0.0955 -0.2774 -0.2296
10873W        W26342   0.741  10.728  15.831  0.1510  0.1133  0.4183
10874W        W26343   3.762   1.579   5.970  0.2738 -0.0688  0.1404
10875W        W26344  14.711   5.809  12.685 -0.3014  0.3941 -0.0779
10876W        W26345   6.634   2.854   4.645  0.2693 -0.2054  0.0524
10877W        W26346   3.380   5.937  15.145  0.1214  0.0644 -0.1504
10878W        W26347  12.222   2.001   0.553 -0.0464 -0.1259 -0.0219
10879W        W26348  15.743  13.108   3.319 -0.2174  0.2914 -0.0671
10880W        W26349  17.455  16.632  16.010 -0.0779 -0.0379 -0.3219
10881W        W26350  15.661  14.502  13.648  0.3414 -0.0656 -0.2659
10882W        W26351  17.725  12.977  11.620 -0.2050  0.0505 -0.1305
10883W        W26352  12.419  12.236   5.195  0.1136  0.3775  0.1443
10884W        W26353   1.591  14.728   3.205  0.3203 -0.1929 -0.1422
10885W        W26354   0.393  17.726  12.275  0.1476 -0.4609 -0.1783
10886W        W26355  17.592   7.447   2.894  0.3847  0.2015 -0.1359
10887W        W26356   7.266   2.625  11.628  0.0543  0.2473  0.0329
10888W        W26357   0.316   9.094   3.096  0.1280  0.0041  0.2958
10889W        W26358   4.112   3.827  11.517 -0.1054 -0.2219 -0.0333
10890W        W26359   2.775   1.979  11.400 -0.1525  0.1992  0.0219
10891W        W26360   2.124   2.833   0.074  0.2862  0.3903 -0.0259
10892W        W26361  12.597  17.485   6.629 -0.0352 -0.0298 -0.1467
10893W        W26362   4.097  13.135  14.286  0.1647 -0.1095 -0.1637
10894W        W26363  16.688   0.806   5.602 -0.1204  0.1841  0.0156
10895W        W26364  10.487   1.770  14.778 -0.1489  0.1519 -0.1915
10896W        W26365  16.834  17.764  13.037 -0.0300  0.0298  0.0639
10897W        W26366  17.244   4.756   2.892 -0.0604 -0.4653  0.0021
10898W        W26367  14.772   4.035  13.297 -0.0901 -0.2191  0.1186
10899W        W26368   7.297  10.922  15.860 -0.1157 -0.3211 -0.2122
10900W        W26369  13.182   8.733  13.923  0.1792 -0.4029 -0.0950
10901W        W26370  16.454   2.985  13.805  0.2036  0.0389  0.0141
10902W        W26371  15.312   4.546   0.949  0.2002  0.0070  0.1261
10903W        W26372   6.975   5.131  11.375 -0.2280 -0.0006 -0.0213
10904W        W26373  12.561   0.425  11.244 -0.0188 -0.0470 -0.2224
10905W        W26374  18.072  12.069   0.993  0.2503 -0.1731  0.0639
10906W        W26375   7.690  14.569  15.026 -0.1893  0.3083  0.1355
10907W        W26376  10.210  17.883  10.820 -0.0052 -0.2727  0.1183
10908W        W26377   5.257  12.031   3.683  0.1058 -0.0348 -0.3506
10909W        W26378   4.916  15.425   2.173 -0.4361 -0.0200  0.0942
10910W        W26379  12.590  14.775  15.782  0.0682  0.1558 -0.0205
10911W        W26380   8.029   5.287  11.462 -0.1517 -0.0572 -0.0552
10912W        W26381   3.018  10.762  11.681  0.1557  0.1638 -0.3609
10913W        W26382  13.683  13.358  12.211  0.0718 -0.1841 -0.0453
10914W        W26383   3.394  17.261   3.031  0.1248  0.1940 -0.1864
10915W        W26384   4.821  10.583  15.034  0.3736 -0.2596 -0.0730
10916W        W26385   9.107   7.469   1.272 -0.1554  0.4376 -0.1767
10917W        W26386   9.577  14.659  12.694 -0.1299 -0.0385 -0.0023
10918W        W26387   1.300   4.323   3.496  0.0598  0.3876 -0.2317
10919W        W26388  15.681   4.063   4.055  0.3159 -0.2679 -0.2053
10920W        W26389  15.529  17.095  13.547  0.0791  0.0498 -0.2074
10921W        W26390  11.357  16.611  13.145 -0.0249  0.3515 -0.0674
10922W        W26391  12.029   2.499  15.314 -0.1211 -0.1603  0.1132
10923W        W26392  15.445  10.251  12.930 -0.1220 -0.0222 -0.0094
10924W        W26393   4.735  10.102  13.101  0.2402  0.2609  0.1970
10925W        W26394  13.777   7.019   1.204 -0.3346 -0.0369 -0.1956
10926W        W26395   1.274   3.832   2.045 -0.0986 -0.0250  0.0093
10927W        W26396   3.323   2.381   3.253  0.0660  0.1694 -0.1737
10928W        W26397  10.353  12.013  11.776 -0.0125 -0.0916 -0.1509
10929W        W26398   3.770  16.251  11.378  0.1042  0.1093  0.2267
10930W        W26399  14.911   1.427   0.726 -0.1389 -0.3740 -0.0427
10931W        W26400   0.565   2.433   2.478  0.0050  0.1539  0.1441
10932W        W26401  10.565  16.802   1.031 -0.0114  0.2552 -0.1361
10933W        W26402  11.784   8.617   4.760 -0.0547  0.0032  0.0628
10934W        W26403   1.906   8.184   2.827  0.1156 -0.2660 -0.1647
10935W        W26404  17.077  12.902   0.213  0.1695 -0.2091  0.0363
10936W        W26405   7.798   6.988  15.619  0.1926  0.2812 -0.0476
10937W        W26406   3.755   9.013  12.828 -0.1280  0.1981 -0.2292
10938W        W26407   6.595   0.098  13.310 -0.2313 -0.1467  0.0063
10939W        W26408  10.077   8.775   2.727 -0.2448  0.2938  0.1654
10940W        W26409  17.766  15.891  15.282  0.2201  0.1353  0.4236
10941W        W26410   1.524   9.676  12.558 -0.0658  0.1607 -0.1254
10942W        W26411   7.339  16.379   3.688 -0.1365 -0.0451  0.5231
10943W        W26412   7.003  14.267  10.893 -0.3543 -0.1704  0.2961
10944W        W26413   7.418   4.395   1.821  0.2611 -0.3076  0.4453
10945W        W26414  13.253   3.646  15.162  0.2207  0.0861 -0.0921
10946W        W26415   8.766  14.585  14.591  0.0061 -0.1833  0.1760
10947W        W26416   5.484   1.088   2.968  0.0373  0.1744  0.1373
10948W        W26417   2.607  10.915   3.164  0.0616  0.0603 -0.2278
10949W        W26418  13.001  14.319  15.215  0.2109 -0.2184 -0.0595
10950W        W26419   1.186   7.211   0.288  0.0318  0.0123  0.0397
10951W        W26420   6.095  10.765   3.060 -0.2810 -0.3290  0.0157
10952W        W26421   4.857  15.298  12.588  0.2600 -0.3316  0.2342
10953W        W26422  16.618   2.983  11.306  0.1612  0.0383  0.0390
10954W        W26423  12.989  13.043   4.039 -0.4887  0.1102 -0.0802
10955W        W26424   3.755  16.456  13.485 -0.3399  0.2088 -0.0269
10956W        W26425   3.829  14.770   1.855 -0.2235  0.0630 -0.1441
10957W        W26426  12.747   0.564   0.263 -0.0023 -0.0250  0.2313
10958W        W26427   7.736   0.895  13.769 -0.2378 -0.0333  0.1589
10959W        W26428  16.248  12.838  13.360  0.4549  0.1514 -0.0451
10960W        W26429  10.948   0.169   4.558 -0.2565  0.1278  0.2503
10961W        W26430   6.557   9.748   0.546 -0.2454 -0.1644  0.2140
10962W        W26431   9.470   4.559  15.447  0.0406  0.1431 -0.2497
10963W        W26432  13.249   2.026  14.967  0.2413 -0.0683 -0.0927
10964W        W26433  11.332  16.007  12.532  0.3039 -0.2742 -0.0362
10965W        W26434   6.537   1.159  11.967  0.1649  0.1366  0.2381
10966W        W26435  14.760   0.211   2.905  0.2876 -0.3824  0.0016
10967W        W26436   9.816  14.437   3.612 -0.1980  0.3102  0.4094
10968W        W26437   9.128  17.383   0.482  0.0961  0.0825  0.2498
10969W        W26438   6.772  13.290   5.990  0.0754  0.0304  0.0050
10970W        W26439   1.095  11.390   4.406 -0.0918 -0.0866 -0.2651
10971W        W26440  13.681   3.823   1.278  0.1948  0.1037 -0.2661
10972W        W26441   0.898  16.782   3.410 -0.0730 -0.1324 -0.0180
10973W        W26442  16.886   4.422   0.468  0.1109 -0.1388 -0.2253
10974W        W26443   7.505   0.165   1.929 -0.1081 -0.0319  0.0982
10975W        W26444  14.068  14.808  10.610  0.2624 -0.3922  0.1486
10976W        W26445  11.510  16.456   1.781  0.1453 -0.1415 -0.2284
10977W        W26446   8.418   6.635  14.347 -0.0126  0.1995  0.1578
10978W        W26447   5.264   3.499  15.663  0.2570 -0.1803  0.1131
10979W        W26448   1.857   1.911   3.938 -0.0430 -0.4336 -0.0559
10980W        W26449  14.298   5.229  10.693 -0.0628  0.3950 -0.0258
10981W        W26450   9.874   7.058  15.130 -0.1717  0.2525 -0.1929
10982W        W26451   0.276  13.042   4.571 -0.1253  0.2286  0.2964
10983W        W26452   8.059  17.961   1.476 -0.2289 -0.1294 -0.2744
10984W        W26453   8.854  17.588  11.143  0.0018 -0.0952  0.0730
10985W        W26454  10.438   5.662  12.418  0.1559  0.2381  0.1050
10986W        W26455  13.791   0.383   5.558 -0.0835  0.0516 -0.0031
10987W        W26456  11.023   9.664   4.989 -0.0043  0.1510 -0.0082
10988W        W26457   8.962  12.132   4.334 -0.1019 -0.0061  0.1867
10989W        W26458   6.570  17.475  14.811  0.1587 -0.1311  0.0147
10990W        W26459   3.138  13.751  12.161 -0.0802 -0.0274 -0.1307
10991W        W26460   3.476   8.281  15.217 -0.0950  0.0225 -0.0986
10992W        W26461   1.811  11.963  12.609  0.0712 -0.0039 -0.2325
10993W        W26462   8.740   4.920  16.068 -0.1022 -0.0859 -0.1190
10994W        W26463   4.503   3.815  15.386 -0.0568 -0.1041 -0.1112
10995W        W26464  13.695   5.509   0.624 -0.2033 -0.0605  0.2203
10996W        W26465   9.146  16.458   0.350  0.2845  0.3415 -0.1038
10997W        W26466  14.833   9.125  12.374  0.1326 -0.0927  0.1654
10998W        W26467   9.231   9.662   0.565  0.3618  0.1912 -0.4182
10999W        W26468   6.794   1.982  15.880 -0.2061  0.3994  0.0129
11000W        W26469  11.627   5.519  12.904  0.2730 -0.0328  0.0722
11001W        W26470  16.124   3.829  10.855  0.0875 -0.0916 -0.1183
11002W        W26471   2.995   2.333  14.723 -0.1053 -0.1295  0.3368
11003W        W26472   4.126   5.585   4.060  0.1254  0.1577 -0.0987
11004W        W26473   8.927  15.670   0.709  0.7927 -0.1480  0.2883
11005W        W26474  12.578   3.621  13.835 -0.0022  0.1039 -0.3289
11006W        W26475   3.571  11.065   2.684 -0.2100  0.0527 -0.1053
11007W        W26476   1.496   7.999  15.875 -0.0919  0.1215 -0.1831
11008W        W26477  11.391  14.276   3.517  0.2018 -0.2200 -0.0200
11009W        W26478   5.083   9.041   0.642 -0.0698 -0.1177 -0.0157
11010W        W26479   4.767   1.645   5.638 -0.3728 -0.0342  0.1901
11011W        W26480   1.041  11.013   4.048  0.0610  0.0730 -0.2204
11012W        W26481  10.255   4.930  12.587 -0.3151 -0.0430 -0.0833
11013W        W26482  16.232   2.737   3.750  0.1731  0.3154  0.0358
11014W        W26483  10.165  15.134   2.347 -0.0518 -0.3607  0.2704
11015W        W26484  10.084   6.756  14.746 -0.0738 -0.2436  0.1991
11016W        W26485   0.802   5.202   1.177  0.0228 -0.2090 -0.0298
11017W        W26486  10.142   8.815  13.295 -0.4470  0.0875  0.1144
11018W        W26487   2.276  10.553   2.138  0.1383  0.0624 -0.0937
11019W        W26488  18.093  13.563   1.984 -0.1021 -0.0701  0.1239
11020W        W26489  15.400  11.967  12.972 -0.1931 -0.1109 -0.0516
11021W        W26490  13.349   9.566  13.099  0.1612 -0.2406  0.1866
11022W        W26491   3.649   9.183  12.330 -0.1153  0.0053 -0.2526
11023W        W26492   3.000   6.893  13.002 -0.1657  0.2488  0.0984
11024W        W26493  13.676  17.931  13.940  0.1323  0.0015 -0.0329
11025W        W26494  15.838  16.843  13.053 -0.0059  0.1291  0.1346
11026W        W26495   7.216   2.207  14.696  0.3920  0.3304 -0.0682
11027W        W26496  16.539  11.593   2.798 -0.2370 -0.1743  0.0384
11028W        W26497   5.200  17.498   3.233 -0.0502 -0.0147 -0.1258
11029W        W26498   4.531   7.832  13.318 -0.0811  0.0557 -0.0885
11030W        W26499   2.245   3.414   0.063 -0.1796 -0.0410 -0.0828
11031W        W26500  12.364   4.732  14.923 -0.2221  0.0321  0.0928
11032W        W26501   8.443  16.459   5.274 -0.2492  0.1760  0.1132
11033W        W26502   3.081   7.223  10.726 -0.1154  0.2996  0.4653
11034W        W26503   8.163   9.871   4.650 -0.2861  0.0485 -0.0438
11035W        W26504   1.508   5.978   4.525  0.1213 -0.1362 -0.0065
11036W        W26505   9.450   8.283  15.339  0.3110  0.0087  0.1711
11037W        W26506  12.779   3.183  13.890 -0.0395  0.3096 -0.1104
11038W        W26507  13.757   1.426   5.614  0.0191 -0.0790  0.2242
11039W        W26508  16.361   6.436  15.609 -0.1647 -0.0549  0.1778
11040W        W26509  10.578   8.475  13.231 -0.1852  0.0386 -0.0865
11041W        W26510   3.341  15.812   4.342 -0.2425 -0.0884  0.0148
11042W        W26511  12.062   7.251  11.406 -0.1610 -0.0034 -0.1599
11043W        W26512   9.650  10.725   0.382  0.1953  0.2080  0.1113
11044W        W26513   4.159   7.825   3.506  0.0189 -0.2545 -0.1281
11045W        W26514  15.679  18.019  14.760 -0.0478 -0.1427  0.2856
11046W        W26515  17.591   9.860  12.164  0.0608  0.2164  0.0208
11047W        W26516   3.999  11.165   3.514  0.1923 -0.1849  0.0538
11048W        W26517   9.643   2.762  15.118  0.1707  0.1317 -0.0869
11049W        W26518   8.249  10.274   2.590  0.0730  0.5532 -0.0776
11050W        W26519   8.942   7.640  13.431 -0.2712  0.0381 -0.2454
11051W        W26520   1.589   8.177  12.870  0.4863 -0.0556  0.5402
11052W        W26521  13.945   4.399  15.112 -0.1251 -0.1035  0.1794
11053W        W26522  13.756   4.702   3.712  0.0211  0.0138  0.2019
11054W        W26523  12.318   9.055  10.775  0.1483  0.1591  0.1922
11055W        W26524   7.257  18.072   5.271 -0.1688  0.0386 -0.1125
11056W        W26525  10.466   8.788  12.253 -0.4348 -0.0381  0.1610
11057W        W26526   0.128  15.465   1.128 -0.0510  0.0798  0.1652
11058W        W26527   8.977   9.437  12.231  0.2890  0.1973 -0.0316
11059W        W26528   1.673   7.289   3.925  0.2867  0.1583 -0.0258
11060W        W26529   5.377  15.825   2.650 -0.1694 -0.1954 -0.0380
11061W        W26530   8.853  11.119  13.881  0.1318 -0.0682  0.2732
11062W        W26531   7.997   1.666  13.713 -0.2227  0.1333 -0.0149
11063W        W26532   3.217  11.081  14.550  0.0268  0.0669  0.0886
11064W        W26533   4.597   2.658   1.892 -0.0112  0.1153 -0.1793
11065W        W26534   9.635   6.614  14.904  0.4217 -0.2183  0.2905
11066W        W26535   7.953   9.401   4.691 -0.0890 -0.1686  0.0026
11067W        W26536   4.528   7.369   5.228 -0.1922  0.3394 -0.0576
11068W        W26537  12.944   8.935   4.380 -0.3678  0.2124  0.0897
11069W        W26538  13.912  17.130  12.995 -0.4033  0.1003  0.1064
11070W        W26539   4.201  12.437   2.855 -0.0724 -0.1914 -0.1621
11071W        W26540   5.471  11.220  13.789 -0.0656  0.1219  0.0657
11072W        W26541   2.502   5.750   0.288  0.1174 -0.2148  0.0452
11073W        W26542  18.028   1.172  10.649 -0.0018  0.2337  0.3425
11074W        W26543   5.101   8.434   0.035 -0.2896  0.0996  0.3031
11075W        W26544  13.752  18.159   5.452 -0.0484 -0.1513  0.1423
11076W        W26545  10.543  13.679   5.328 -0.0923  0.5060 -0.2389
11077W        W26546   5.772  11.297  11.555  0.0229  0.1395 -0.3114
11078W        W26547   4.499  15.378   5.125  0.0016 -0.1159  0.0207
11079W        W26548   5.580   5.788  15.380  0.1091  0.2377 -0.2331
11080W        W26549   0.811   8.201   0.585  0.0206  0.1052  0.3215
11081W        W26550   8.273   4.113   2.497 -0.1235 -0.0096 -0.1439
11082W        W26551  11.901  13.256  13.196  0.0905  0.0566  0.1323
11083W        W26552  16.945   2.986   4.850 -0.0233 -0.1600 -0.0798
11084W        W26553   1.556   1.756  11.211  0.1504  0.1524  0.0922
11085W        W26554  17.006   2.086  11.013 -0.1855 -0.0422  0.1738
11086W        W26555  13.407   5.425  15.858  0.3141 -0.2366 -0.0625
11087W        W26556  13.191   4.167  15.045 -0.1394  0.0969  0.1025
11088W        W26557  13.135   3.046   5.715 -0.0187  0.1029  0.1994
11089W        W26558   4.176   7.313   4.490  0.1149 -0.2392 -0.0977
11090W        W26559   0.904   9.515   3.928  0.1552  0.0113  0.1492
11091W        W26560  12.354   8.380   3.357 -0.1148  0.0928 -0.0738
11092W        W26561   0.737  13.088   2.996 -0.3287 -0.1635  0.2073
11093W        W26562   2.049   6.010  12.014  0.1532 -0.1358 -0.3149
11094W        W26563  13.919  13.846  11.939  0.1773  0.2334 -0.3658
11095W        W26564  16.690  11.330  12.484  0.0314 -0.0523  0.3373
11096W        W26565   8.154  10.451   3.735 -0.0978  0.1259 -0.6460
11097W        W26566  10.842  13.176  14.966  0.0089 -0.2764  0.2972
11098W        W26567  15.959  16.517   3.312  0.1380  0.1960 -0.0971
11099W        W26568   3.386  11.764   3.681 -0.2956  0.0561  0.1902
11100W        W26569   1.713   1.642  12.134 -0.2164 -0.0681  0.2439
11101W        W26570  12.311  14.780   1.553 -0.0576 -0.0765 -0.0325
11102W        W26571  12.911   1.421  13.914  0.3062  0.1456  0.0186
11103W        W26572   2.915  14.377   0.213  0.0508 -0.2080  0.1899
11104W        W26573  13.698   7.421   4.479 -0.0736 -0.0775  0.0376
11105W        W26574  11.237  14.664  15.857 -0.2171 -0.2927 -0.0356
11106W        W26575   7.915   2.443  10.429 -0.3001  0.2837 -0.2442
11107W        W26576  15.814  18.113   4.271 -0.0320  0.1659  0.2742
11108W        W26577   6.514   1.642   0.986  0.1982 -0.0499 -0.1440
11109W        W26578   2.004   6.180  14.349  0.3440  0.3478 -0.1068
11110W        W26579   8.626  17.297   4.771 -0.1141  0.2426 -0.0686
11111W        W26580   1.243  13.184  15.837  0.0449  0.0640  0.4426
11112W        W26581   6.948  12.250   3.548  0.1800 -0.3194 -0.1432
11113W        W26582  17.915   4.964   0.654 -0.0050  0.2814  0.4460
11114W        W26583   6.273  15.212  10.407 -0.2656  0.2376  0.2126
11115W        W26584   2.730   4.146  14.965  0.1007  0.2180 -0.3297
11116W        W26585  14.932  12.888   2.315 -0.0406 -0.1703 -0.2101
11117W        W26586   9.678   9.685  13.805 -0.3128 -0.2942  0.5184
11118W        W26587  11.228  14.180  13.565 -0.1674 -0.0606  0.1021
11119W        W26588  13.608   5.684  13.393  0.2194  0.0172  0.0039
11120W        W26589  13.259   6.269  12.990  0.1647  0.2434  0.1225
11121W        W26590   8.855  15.479   4.120  0.0722  0.0648  0.1447
11122W        W26591  16.561  14.857  12.834  0.2637 -0.2076 -0.2862
11123W        W26592   3.924   1.906   2.209 -0.3683 -0.0970  0.1737
11124W        W26593   4.552  12.472   0.272  0.2605 -0.4215 -0.1883
11125W        W26594  11.158  18.099   2.551 -0.1626  0.2858  0.1697
11126W        W26595  12.262   1.086  15.021  0.0216 -0.1642  0.0847
11127W        W26596   9.799   8.721  14.271 -0.2050  0.0321  0.0990
11128W        W26597   8.856   8.838  14.706 -0.0226 -0.2412  0.0464
11129W        W26598   9.132   6.421  14.081 -0.1954 -0.1022  0.2216
11130W        W26599  16.136   7.215   0.503  0.1820  0.1587  0.4067
11131W        W26600  15.148  17.612  11.289 -0.1548 -0.1678 -0.1094
11132W        W26601  15.494  16.639   5.234  0.2008  0.2712 -0.0008
11133W        W26602  16.330   5.854  12.628 -0.0214  0.2621  0.1731
11134W        W26603  17.143   6.878   4.316 -0.2472 -0.0949 -0.0980
11135W        W26604  11.899  17.902   6.250 -0.0501 -0.1638  0.0219
11136W        W26605  13.862   0.317   3.378  0.2578  0.0436 -0.2305
11137W        W26606  15.744  16.401  10.943 -0.0709 -0.0538  0.0757
11138W        W26607  16.590   3.490   0.196  0.1180  0.1172 -0.0593
11139W        W26608   7.049  17.953  11.950  0.0847 -0.3374 -0.2381
11140W        W26609   3.036   0.937  14.617  0.0370  0.0057 -0.0387
11141W        W26610   6.541  17.818   4.823  0.3508 -0.1165  0.1542
11142W        W26611  11.059   4.088  14.142  0.2042 -0.1651  0.0422
11143W        W26612  17.665   3.088  10.245  0.1040 -0.1218 -0.2201
11144W        W26613   3.373   0.872   5.132  0.5429 -0.0737 -0.0382
11145W        W26614  17.508  11.917  14.192  0.0718 -0.1669 -0.0720
11146W        W26615   3.632   1.105   0.621  0.1066 -0.0407  0.2216
11147W        W26616   3.417  16.809  13.624 -0.0252 -0.0754  0.0361
11148W        W26617   4.570  14.016  12.793  0.0481  0.1534  0.2553
11149W        W26618   2.723   5.860  11.459  0.0511 -0.0874  0.3874
11150W        W26619  12.869   6.915  14.683 -0.0960 -0.4952  0.5212
11151W        W26620   9.400  11.497  13.085  0.2061 -0.1127  0.1739
11152W        W26621   0.878   7.813  11.150  0.0992 -0.2430  0.2992
11153W        W26622  15.343  11.706   5.124 -0.0112 -0.4331 -0.0317
11154W        W26623   9.972   3.046   4.104 -0.1661 -0.2090  0.2367
11155W        W26624   6.469  15.253  15.372  0.1496 -0.1407  0.1194
11156W        W26625   4.689   9.068  10.760 -0.1529  0.4268  0.2499
11157W        W26626   3.434   4.345  13.846  0.0379  0.0850  0.1363
11158W        W26627   5.187  16.926  14.566 -0.0408  0.0812  0.0681
11159W        W26628  15.464   9.025  12.142  0.0889 -0.1328 -0.0488
11160W        W26629  16.193   9.168  11.504 -0.3641 -0.4037 -0.0068
11161W        W26630   4.149   7.258   2.955 -0.2604 -0.0281  0.0754
11162W        W26631   1.971  11.805   1.185  0.0876 -0.2100  0.1137
11163W        W26632  13.006  16.484   5.756 -0.3159  0.2837 -0.1934
11164W        W26633   7.601   2.594   3.044 -0.1107 -0.1410  0.1232
11165W        W26634  16.133  18.143  12.655 -0.1188  0.0677 -0.1416
11166W        W26635  17.545  10.218  11.382 -0.0537 -0.0895 -0.1062
11167W        W26636  15.257   0.691   0.390  0.1353  0.0649  0.0281
11168W        W26637   9.238   2.450   1.361  0.1241  0.1638 -0.3226
11169W        W26638   1.243  13.118  14.862 -0.1828  0.3001 -0.0353
11170W        W26639  14.014   6.064   2.878 -0.1225 -0.1505  0.2347
11171W        W26640  17.201   9.032   2.146  0.3295  0.1468 -0.0042
11172W        W26641  16.006  11.519   1.647  0.1386  0.0293 -0.1635
11173W        W26642   0.445  11.652   3.024  0.0606 -0.0669 -0.1491
11174W        W26643  12.742  16.253  12.912 -0.0829  0.0487 -0.0369
11175W        W26644   1.656  15.216  11.150  0.1036 -0.0788 -0.1425
11176W        W26645  15.965  15.409   0.814  0.2658  0.1251  0.1390
11177W        W26646   4.625   1.104  15.371 -0.0296  0.1836 -0.1441
11178W        W26647   7.449  16.547   5.518 -0.1854  0.2372 -0.1299
11179W        W26648  13.552  15.583   1.574 -0.3882  0.1864  0.1181
11180W        W26649   4.140  17.806   1.346 -0.2081 -0.1561  0.0830
11181W        W26650   5.532  10.634  12.813 -0.0220 -0.0660  0.1037
11182W        W26651  15.181   9.489   5.414  0.1056  0.1067  0.1563
11183W        W26652  16.002   6.351  15.289  0.1622  0.0489 -0.2128
11184W        W26653   6.991  17.637  13.578 -0.1857 -0.3012  0.1240
11185W        W26654  12.250   1.910  15.974  0.2545  0.1866  0.1221
11186W        W26655  10.840   2.966  14.244  0.0442 -0.0305 -0.1627
11187W        W26656   4.210  13.552  13.489 -0.2874  0.1835 -0.1512
11188W        W26657   1.839   0.202   0.299 -0.1544 -0.1544 -0.1319
11189W        W26658  11.443  17.889   1.213 -0.1980 -0.1379  0.2665
11190W        W26659  15.995  13.523  12.674 -0.0190  0.1114  0.0260
11191W        W26660  16.527   6.928   5.150  0.1054  0.1018  0.2155
11192W        W26661  14.230  16.059  13.598 -0.0150  0.1555 -0.0910
11193W        W26662   2.623  12.119  13.573  0.3286 -0.4412 -0.1558
11194W        W26663   8.755   1.574   0.343  0.0318 -0.2096 -0.2784
11195W        W26664  12.237  15.749  12.585 -0.2184  0.1487  0.0550
11196W        W26665   1.182   4.953   1.466 -0.0498 -0.0278 -0.3608
11197W        W26666   0.185   1.886  14.574  0.2260  0.0785  0.0636
11198W        W26667  16.653  14.781  11.324 -0.3093 -0.0279 -0.1890
11199W        W26668   6.161  15.837  12.889 -0.0334  0.0934  0.0604
11200W        W26669   0.283   8.767  13.485  0.3205 -0.0270 -0.0743
11201W        W26670  13.334  15.877   2.417 -0.0851  0.1150 -0.0512
11202W        W26671   0.615  15.912   0.759 -0.1371 -0.1458  0.2192
11203W        W26672   4.044   9.698   1.123  0.3889 -0.0896 -0.1346
11204W        W26673   2.780   1.387   3.523 -0.1364  0.0133  0.2302
11205W        W26674   3.669   6.542   0.963 -0.2312  0.2256  0.2235
11206W        W26675   0.237   7.071   1.131 -0.2907  0.0281  0.1974
11207W        W26676  11.490   8.366   3.901 -0.3357  0.2268  0.0723
11208W        W26677  12.944  11.118   3.432  0.0418 -0.0091 -0.2822
11209W        W26678   4.738  13.575   4.854 -0.2222  0.2139 -0.0706
11210W        W26679   2.080   3.584   3.856  0.2650  0.3680  0.2597
11211W        W26680   9.425   9.965   3.580  0.2010 -0.0916 -0.2330
11212W        W26681  15.201   2.469  15.698 -0.0920 -0.2468  0.1050
11213W        W26682  14.738  10.498  14.629  0.2655 -0.1106 -0.0998
11214W        W26683   8.790   7.679  11.815  0.0745  0.0136  0.1169
11215W        W26684  10.376  11.980  12.548 -0.0517 -0.0504 -0.0991
11216W        W26685   9.295  13.644   5.700 -0.0459  0.0078  0.0723
11217W        W26686   5.725  16.781   0.773 -0.0686 -0.2704 -0.0734
11218W        W26687   3.897  17.781  15.848  0.0937 -0.2804 -0.1779
11219W        W26688   4.785  14.721   1.087 -0.0849  0.2196  0.0636
11220W        W26689   4.677   3.813   3.370 -0.0151  0.3539  0.1555
11221W        W26690  13.102   7.085  15.701 -0.1759 -0.4209  0.3366
11222W        W26691  17.554  13.153   1.026 -0.0289 -0.3307 -0.1039
11223W        W26692   1.806  17.499  12.027  0.3015  0.0300  0.1298
11224W        W26693  12.512   4.767   4.916 -0.0309  0.3726 -0.0573
11225W        W26694   8.475   9.904  14.925 -0.0591 -0.1316  0.1353
11226W        W26695   7.343   1.106   3.516  0.0307  0.0023 -0.0081
11227W        W26696  12.611  14.270  10.159 -0.2251 -0.1984 -0.2723
11228W        W26697  11.264  17.677  15.807  0.0937 -0.1230  0.1815
11229W        W26698  14.738   2.422   1.434  0.0339  0.0439 -0.0510
11230W        W26699  12.489   9.792  14.391  0.0791 -0.1703 -0.0254
11231W        W26700   9.968  15.548  12.013 -0.1457 -0.2636  0.0774
11232W        W26701  13.648  11.632  13.730 -0.0042 -0.3568 -0.1718
11233W        W26702   3.773  16.263  10.182  0.0258  0.1273 -0.0097
11234W        W26703   7.522  14.408   3.484 -0.2479 -0.1553 -0.2266
11235W        W26704   2.067   7.793  12.526 -0.4029 -0.2351  0.0417
11236W        W26705   8.765   1.678  15.079 -0.1891 -0.2609  0.0391
11237W        W26706   8.557   8.509  12.715 -0.2812  0.1094 -0.2594
11238W        W26707  12.138   2.394  15.804 -0.0446 -0.0658  0.0858
11239W        W26708   1.483   9.206  13.129 -0.1107  0.0634  0.2040
11240W        W26709   4.156  13.710  15.328 -0.2758 -0.0245  0.1676
11241W        W26710  11.333   8.721  14.158 -0.0083  0.1045 -0.3631
11242W        W26711   8.619   9.761   4.343 -0.3580  0.0196  0.2201
11243W        W26712   6.345  13.180  13.571 -0.0190 -0.2568 -0.4556
11244W        W26713   1.063  14.719  12.847  0.3455 -0.0772  0.1697
11245W        W26714  16.115   6.129   2.505  0.2954  0.0990  0.1574
11246W        W26715   8.707  17.200  10.033 -0.0996 -0.2095 -0.1546
11247W        W26716   1.490   6.655   3.110 -0.0862 -0.0016 -0.1489
11248W        W26717   5.447   4.244  11.569  0.0461  0.4598  0.1407
11249W        W26718   8.935   2.885   3.194 -0.0863 -0.3291 -0.1316
11250W        W26719   0.648  13.989  10.902 -0.2621 -0.0022  0.0576
11251W        W26720   1.566  14.789   4.184  0.0709  0.1918  0.2720
11252W        W26721   6.441   9.696  11.156  0.0969 -0.2144 -0.0057
11253W        W26722   3.731  11.375  12.765  0.0317  0.0598 -0.0520
11254W        W26723   7.015  13.969  12.335  0.2113 -0.0963  0.0989
11255W        W26724  14.606  17.110   0.223 -0.2991 -0.0892  0.3237
11256W        W26725  11.938  12.904  13.657  0.1413 -0.2489 -0.2663
11257W        W26726  12.861  12.900   4.648 -0.2389 -0.2074  0.2665
11258W        W26727  15.289   8.157   5.404  0.3123  0.0740  0.1522
11259W        W26728  11.317  14.326   1.860 -0.3012 -0.2586 -0.2570
11260W        W26729  14.722   8.830   2.427  0.1089  0.3945 -0.0548
11261W        W26730   4.511   7.576   3.201 -0.1053  0.2595 -0.1513
11262W        W26731  18.113  12.873   4.738  0.0561 -0.1431  0.2319
11263W        W26732  15.121   4.435   5.575  0.3005  0.0212  0.0269
11264W        W26733  17.755   2.109   2.868 -0.1980  0.3355  0.3173
11265W        W26734   3.323   2.332  12.616 -0.3325  0.1315 -0.0425
11266W        W26735  12.041   0.755  13.999 -0.0697 -0.0880  0.0147
11267W        W26736   3.298   9.954  12.745  0.1694 -0.2585 -0.0280
11268W        W26737  12.949   0.881  12.574 -0.1467  0.0297  0.1342
11269W        W26738  13.593  14.787  11.017 -0.0365  0.3112  0.0456
11270W        W26739   0.199   4.892  12.364 -0.2020  0.0694 -0.0792
11271W        W26740   2.574  11.693  14.660  0.3406 -0.4044  0.1711
11272W        W26741  12.005  14.596   5.244  0.0801  0.1241  0.2124
11273W        W26742  11.136  12.126  13.702 -0.2174  0.1070  0.1537
11274W        W26743  15.209   4.736   4.904  0.0953  0.0387  0.0456
11275W        W26744  13.363   9.045   0.815  0.0675  0.0989 -0.1181
11276W        W26745  12.293   9.589  10.730 -0.1207 -0.0358 -0.2068
11277W        W26746   0.108  16.602  15.572 -0.2564  0.0590  0.2190
11278W        W26747   1.305   1.587  11.764 -0.0142 -0.4714  0.0565
11279W        W26748   5.799   0.810   3.249 -0.1834 -0.1887 -0.0617
11280W        W26749   9.069  17.256   2.226  0.0768 -0.2946  0.3095
11281W        W26750   6.302  12.014  14.222  0.0167 -0.0113  0.1424
11282W        W26751   7.684   8.883  13.374  0.0935  0.1546  0.0965
11283W        W26752   6.666   9.486   3.130 -0.0514  0.2285 -0.1354
11284W        W26753  17.271   5.886   3.663 -0.1321 -0.0023 -0.1942
11285W        W26754  13.696   7.920  13.557  0.2076 -0.0585 -0.0921
11286W        W26755  17.044   5.825   2.098 -0.1261  0.1960 -0.0571
11287W        W26756  10.333  13.348  15.409 -0.0455 -0.0490 -0.1657
11288W        W26757   2.083  15.863  13.126 -0.0400 -0.0463  0.2101
11289W        W26758  14.753   8.564   4.919 -0.0221  0.0598 -0.0711
11290W        W26759  12.075  18.116   3.057 -0.0741 -0.1028 -0.0296
11291W        W26760   1.555  17.096  14.327  0.0983  0.0532 -0.1430
11292W        W26761   5.458   7.004   2.487 -0.3006  0.1423  0.1377
11293W        W26762   3.057   7.088   1.555 -0.1504 -0.1671  0.0254
11294W        W26763   9.977   3.786   4.875 -0.0602  0.1713  0.0762
11295W        W26764   4.700   0.520  14.447  0.0021 -0.0836 -0.1461
11296W        W26765   3.359   1.626  11.388 -0.0193  0.0864  0.3831
11297W        W26766  14.605   1.556  10.999  0.1799 -0.0960 -0.0558
11298W        W26767   7.110   3.772   0.011  0.1054  0.1182 -0.2244
11299W        W26768  11.686   3.602   2.085  0.0435  0.2532  0.1537
11300W        W26769   8.162  12.392   4.659 -0.2152  0.1012 -0.2452
11301W        W26770  15.498   3.385   1.762 -0.1227  0.2101 -0.2946
11302W        W26771   7.362   4.341   4.158  0.2706 -0.2004 -0.2380
11303W        W26772  17.704  10.579  13.887 -0.0511 -0.0058  0.1713
11304W        W26773  17.567  10.343  13.409  0.0111  0.1994 -0.0734
11305W        W26774   6.508   4.890   0.911  0.1438 -0.1815  0.0072
11306W        W26775  14.194  14.477   2.061  0.1304  0.3056 -0.2192
11307W        W26776  14.094   9.794   2.537  0.2368  0.2437  0.1272
11308W        W26777   0.015   4.111  13.365  0.0440 -0.0287  0.0457
11309W        W26778   8.572   5.370  11.422 -0.0931  0.1216  0.2500
11310W        W26779  14.771   3.053   2.784  0.1432  0.0707  0.0051
11311W        W26780  11.833  11.380  14.396 -0.1221  0.2284 -0.2112
11312W        W26781   9.368  13.185   2.278 -0.1999  0.0682 -0.2332
11313W        W26782  16.466   0.281   0.904 -0.1072 -0.1156 -0.3148
11314W        W26783   5.716   0.981   0.945  0.0600 -0.1247  0.3048
11315W        W26784  17.148  17.210  11.060  0.1713  0.0755  0.1065
11316W        W26785   2.437  16.511   0.055 -0.0304  0.0731 -0.0595
11317W        W26786  12.840   6.595   0.072 -0.1571  0.1130  0.3081
11318W        W26787   7.163   6.407  12.145 -0.1084 -0.0640  0.1256
11319W        W26788  12.414  13.341  13.963 -0.0221  0.2621  0.0813
11320W        W26789   3.712   5.373   5.545 -0.3755  0.0519  0.0054
11321W        W26790   8.751  16.150  13.559 -0.1591 -0.0011 -0.3063
11322W        W26791  10.350   1.396  10.179  0.0296 -0.0539 -0.0373
11323W        W26792  10.120   9.635  11.422  0.2327 -0.1739  0.1906
11324W        W26793  17.152   7.289   4.743  0.1847 -0.2878 -0.1320
11325W        W26794   7.498  12.445   2.839  0.1131  0.0429 -0.1398
11326W        W26795  17.067  16.948   3.631 -0.1611 -0.3610  0.0405
11327W        W26796  10.956   7.056  13.978  0.2713  0.0075 -0.2609
11328W        W26797   6.776   1.051   5.335 -0.0456 -0.0091  0.1240
11329W        W26798  13.017   3.572   3.487  0.2017 -0.0320  0.0033
11330W        W26799  11.408   7.824   4.645  0.2223  0.1031 -0.0921
11331W        W26800   1.640  17.619   2.493 -0.0161 -0.2197 -0.2200
11332W        W26801  11.398   4.592  12.495  0.0439  0.1108  0.0220
11333W        W26802   8.263  17.047  12.398  0.1157 -0.3897 -0.1224
11334W        W26803  15.446   2.002   4.329  0.1308  0.0086  0.2156
11335W        W26804  12.294   7.161  12.295  0.2379 -0.0759 -0.2129
11336W        W26805  10.566   2.275  10.209  0.1710 -0.0129 -0.0399
11337W        W26806  11.482  13.708   3.941 -0.2270  0.2545 -0.1146
11338W        W26807   8.802   6.184   0.170  0.0667 -0.2603  0.6067
11339W        W26808   2.224   9.732   1.544 -0.0222 -0.1915 -0.1829
11340W        W26809   0.861   9.092  15.996  0.1798 -0.2066 -0.1621
11341W        W26810  10.703   4.718  13.432  0.0922  0.3362 -0.2206
11342W        W26811  15.046  10.151  12.505 -0.0809 -0.0861 -0.0816
11343W        W26812   1.843   9.675  11.447 -0.2475 -0.0925 -0.0692
11344W        W26813   2.709   8.830  12.588 -0.1222  0.1025 -0.2754
11345W        W26814  10.342   8.877  10.907  0.4101  0.1254 -0.1785
11346W        W26815  18.034   6.372   5.185 -0.1110 -0.1417 -0.0018
11347W        W26816   4.031   7.206  15.870  0.0185  0.1000  0.1899
11348W        W26817  12.002  17.090   4.981 -0.0817  0.0309 -0.0153
11349W        W26818   7.938   6.645   0.575  0.1240 -0.0729  0.4784
11350W        W26819   0.699  15.395  10.692 -0.0164  0.1596 -0.1137
11351W        W26820  18.136  17.993  15.270 -0.1553 -0.2580  0.1555
11352W        W26821  11.624  10.236  15.341  0.2456  0.0359  0.2062
11353W        W26822  13.058   9.177  13.045 -0.0149  0.0777 -0.1308
11354W        W26823   2.897   1.999  15.468 -0.2596  0.0080 -0.1231
11355W        W26824  16.144  17.762   4.431 -0.0173 -0.0965  0.1687
11356W        W26825  11.585   9.460   0.920 -0.0118  0.0048  0.1336
11357W        W26826   8.699   5.051  15.553  0.0316 -0.0042 -0.1275
11358W        W26827   0.716  14.705  11.532  0.0527 -0.0567 -0.1572
11359W        W26828  14.237   7.215   0.100 -0.0549  0.3907 -0.1227
11360W        W26829   1.156  13.001   0.185 -0.1397 -0.1537  0.2866
11361W        W26830   9.653   1.032  14.209  0.3281 -0.0641 -0.2628
11362W        W26831   3.107   0.009   0.922  0.1211 -0.0155  0.0750
11363W        W26832  15.472   0.612  14.055 -0.0619 -0.0109  0.0359
11364W        W26833  11.641   8.188   0.694 -0.0385 -0.1537 -0.1626
11365W        W26834  11.935   6.241   4.361  0.0405  0.1254 -0.0396
11366W        W26835  16.987   6.558   2.986 -0.1191 -0.1438  0.2290
11367W        W26836  17.224  14.295  12.576  0.1644 -0.1665 -0.1632
11368W        W26837   9.443   6.767  11.799 -0.0637  0.2911 -0.2106
11369W        W26838  13.531   5.963   2.922 -0.0179 -0.1699 -0.2011
11370W        W26839   7.328   8.202   4.936  0.1214  0.2235 -0.0513
11371W        W26840  14.946   0.495  11.058 -0.1829  0.0157 -0.1493
11372W        W26841   7.841  17.150  12.704 -0.0128  0.1940  0.2874
11373W        W26842   6.120   5.546  13.643 -0.2411 -0.1248  0.4220
11374W        W26843   1.827   1.416  15.928  0.1348 -0.0817 -0.0699
11375W        W26844  14.159   0.761   1.604 -0.0586  0.1226  0.3456
11376W        W26845  12.362  10.904   5.543  0.0066 -0.0931 -0.1830
11377W        W26846   7.734   1.924   2.783 -0.1191  0.0496  0.2321
11378W        W26847   6.811   0.140   0.304  0.2882  0.1441 -0.2659
11379W        W26848   2.535   9.624   5.968  0.0763 -0.1555  0.2624
11380W        W26849  17.896   0.809   3.122 -0.1804  0.2135 -0.0516
11381W        W26850  15.720  13.930  11.355  0.1309  0.0642  0.1131
11382W        W26851  17.318  15.669  11.537  0.1960 -0.0508 -0.1460
11383W        W26852   9.336  14.402   3.919  0.0250  0.1316 -0.0162
11384W        W26853   8.779  13.655  11.169 -0.1330 -0.3932  0.1417
11385W        W26854  11.151   9.905  13.785 -0.1014  0.3867  0.1821
11386W        W26855   5.457  13.610  13.228 -0.2865 -0.0776 -0.2303
11387W        W26856   3.470  11.562  15.732  0.1102 -0.1264  0.0365
11388W        W26857   4.778  10.395   2.803 -0.1071  0.0677  0.1961
11389W        W26858   8.033  13.668   0.805  0.1801  0.3005  0.3128
11390W        W26859  12.768   8.262  12.310  0.0489  0.0087 -0.1849
11391W        W26860   6.835  13.608  14.452  0.0375 -0.1683  0.1693
11392W        W26861  17.860  17.923  15.740  0.0291  0.1357  0.0146
11393W        W26862   5.191  12.715  12.093 -0.2700 -0.0397  0.1179
11394W        W26863  11.197   3.067  12.211  0.0569 -0.2416 -0.2069
11395W        W26864  17.842  16.362  13.972 -0.1716 -0.3133  0.0979
11396W        W26865  10.010  13.355   2.343 -0.4009 -0.2055 -0.2386
11397W        W26866  15.204   4.053  14.557 -0.2349  0.1623  0.0255
11398W        W26867   6.936   8.064  15.326 -0.1764 -0.3749 -0.2263
11399W        W26868   2.044  15.874   2.679 -0.4102 -0.3034 -0.0022
11400W        W26869  15.803   5.790   2.794  0.3412 -0.1593 -0.1627
11401W        W26870   3.489   6.612  12.899 -0.2340 -0.0055  0.1827
11402W        W26871  15.953   5.611   3.198 -0.0410  0.0092 -0.0317
11403W        W26872  16.199   6.780   4.422 -0.0020  0.0302 -0.1474
11404W        W26873   3.819   5.744   0.866  0.0544 -0.2174 -0.2657
11405W        W26874  12.813   3.273   0.289  0.2619 -0.1514 -0.1109
11406W        W26875   2.343  11.933   3.805 -0.0436 -0.2514  0.2299
11407W        W26876   5.319  15.746  13.655  0.1736  0.1112 -0.2833
11408W        W26877  12.973  16.935   5.935  0.0968 -0.0829 -0.2757
11409W        W26878   5.770   2.492  15.069 -0.2005 -0.3143  0.0110
11410W        W26879  18.049  16.783  12.107 -0.0213  0.1048  0.1945
11411W        W26880   8.826   7.964  12.842 -0.2611  0.3689  0.0213
11412W        W26881   0.768  18.024  12.998 -0.2862 -0.0176  0.2311
11413W        W26882  17.108   9.924  10.094 -0.4010  0.0267  0.2837
11414W        W26883   7.170   3.777   4.549 -0.0691  0.1106 -0.0293
11415W        W26884   0.557   4.505  12.683 -0.0093  0.0554  0.0867
11416W        W26885   3.083   1.731   5.489 -0.1036 -0.0769 -0.3657
11417W        W26886   3.184   5.101   0.180 -0.0101  0.1855  0.4289
11418W        W26887  13.390   4.633   5.025  0.1919 -0.0739 -0.0299
11419W        W26888   3.088  16.921  14.706  0.1961  0.1537  0.0692
11420W        W26889   7.787  17.215  11.437  0.2173 -0.1650  0.2412
11421W        W26890  12.459   2.304  11.694 -0.4280 -0.0302  0.2766
11422W        W26891  15.726   0.270   1.336 -0.0305 -0.0246  0.1577
11423W        W26892   4.470   7.999  16.004 -0.2544 -0.1267  0.0274
11424W        W26893   3.117   3.229   0.457  0.1003  0.5151  0.2447
11425W        W26894   6.455   5.040  12.917  0.1149 -0.0168 -0.0042
11426W        W26895   7.614  15.127  11.797  0.1693 -0.1141  0.0826
11427W        W26896  13.680  13.737  12.992 -0.3871 -0.1618  0.2466
11428W        W26897   9.799   5.496  12.880 -0.0026 -0.1522  0.0385
11429W        W26898   3.254   6.210  13.332  0.1741 -0.4872  0.1180
11430W        W26899   8.656   7.864   3.451  0.0237  0.0899 -0.2016
11431W        W26900   4.197  14.915  14.156  0.0560  0.2326 -0.0375
11432W        W26901   0.774  10.543   4.959 -0.1205 -0.1232 -0.0298
11433W        W26902   4.017  14.682  15.066 -0.1600  0.0211 -0.4501
11434W        W26903  12.873   7.814   2.401  0.3082 -0.0638  0.3913
11435W        W26904  14.549  14.644   0.797  0.2163 -0.3764  0.2384
11436W        W26905   5.090   4.467   2.414  0.0125  0.1455 -0.1630
11437W        W26906   1.515   7.929   3.684  0.1325  0.0702 -0.1287
11438W        W26907   1.354  12.253  15.066 -0.3824  0.0764  0.0178
11439W        W26908   6.480   3.705  14.981 -0.2923  0.0997 -0.2411
11440W        W26909   3.573  18.103  11.406  0.0195 -0.0556 -0.0349
11441W        W26910  12.120   5.680   1.741 -0.1503 -0.0450 -0.3504
11442W        W26911   6.304   8.397   0.545 -0.1918  0.2522 -0.2251
11443W        W26912   0.139   0.119  15.174 -0.0224 -0.2099 -0.1208
11444W        W26913  11.646   5.854  10.823  0.0806  0.0932 -0.1765
11445W        W26914   2.512   8.256   3.175  0.1248  0.0815 -0.2130
11446W        W26915  11.819  10.829  11.702 -0.2440  0.1081 -0.0359
11447W        W26916  16.077  12.653  13.964 -0.1256  0.0785 -0.3727
11448W        W26917   7.404   9.914  12.320 -0.2057  0.1334  0.0740
11449W        W26918  11.694  10.128   2.389 -0.1159 -0.1162  0.0955
11450W        W26919  15.454  17.410  15.969  0.1717 -0.0654  0.0263
11451W        W26920  16.840   2.559  15.657  0.0872 -0.1004  0.0759
11452W        W26921  11.199  11.101  11.139  0.0034 -0.1388 -0.1959
11453W        W26922  16.010  11.137   5.304 -0.1090  0.1014  0.1317
11454W        W26923  10.204   3.054   1.884  0.2821  0.2377  0.1359
11455W        W26924   5.663  12.897  11.650  0.0181  0.0443  0.0918
11456W        W26925  15.136  16.431   0.717 -0.0291  0.0023  0.3101
11457W        W26926  16.633  17.592   5.300  0.3481 -0.1892 -0.0745
11458W        W26927   8.425   6.619  11.651 -0.0440  0.0117  0.0065
11459W        W26928   2.139  13.551   1.337  0.1135  0.1666  0.1780
11460W        W26929   5.222   7.271  12.825  0.4080 -0.1121  0.0247
11461W        W26930   9.037   1.467   3.082 -0.4898 -0.2742  0.0244
11462W        W26931   0.022   2.243   4.874 -0.0318 -0.1214  0.0634
11463W        W26932   7.133   5.880  13.285  0.0806 -0.2226 -0.0710
11464W        W26933  13.354   9.199   5.913 -0.0773 -0.0431 -0.1408
11465W        W26934   6.671   3.762   5.166  0.0607 -0.1440 -0.2802
11466W        W26935   5.304  15.780   4.643 -0.3463 -0.2350  0.1836
11467W        W26936   9.584  15.005  12.383 -0.1505 -0.1687  0.0653
11468W        W26937  15.908  14.988  14.374  0.2502 -0.1342 -0.2302
11469W        W26938   7.304   1.420  15.920 -0.0744 -0.0921 -0.1986
11470W        W26939   2.296   5.053  11.185 -0.0389 -0.0149 -0.3054
11471W        W26940  14.776   2.195   4.183 -0.0113  0.5401  0.0052
11472W        W26941  16.055  17.879  13.664 -0.1104  0.0681 -0.1215
11473W        W26942  18.028   0.105   4.238 -0.0887 -0.1538 -0.1013
11474W        W26943   0.254  15.902   2.158  0.1796 -0.3497 -0.0332
11475W        W26944   3.522  12.199   3.391  0.2338  0.2612  0.1685
11476W        W26945   0.036  11.055  15.096 -0.1168  0.0237 -0.2166
11477W        W26946  10.881  17.822   2.898 -0.0498 -0.1037  0.0796
11478W        W26947   2.497  17.824   3.504 -0.0241  0.0854  0.0443
11479W        W26948  17.363   2.834   1.089 -0.0197  0.1192  0.0711
11480W        W26949   2.210  12.016  13.879 -0.2209  0.1247 -0.0905
11481W        W26950   5.044  15.321  13.674 -0.0882 -0.1064  0.3435
11482W        W26951   7.105  14.390  13.090 -0.0233  0.1677 -0.0435
11483W        W26952  15.479  14.037  14.632 -0.4366 -0.1198 -0.0637
11484W        W26953   4.254   9.895   0.102  0.0400 -0.0078 -0.3424
11485W        W26954  11.881   5.484  12.458  0.1145  0.2001 -0.0885
11486W        W26955  10.675  12.284   0.904  0.1471  0.2498  0.0908
11487W        W26956  15.990   9.642  11.074 -0.0797 -0.4425 -0.0251
11488W        W26957   6.111   4.647   3.969 -0.1224 -0.3849  0.4410
11489W        W26958  15.996  15.908  12.247 -0.2499  0.1694 -0.0961
11490W        W26959  16.480  17.510  12.814  0.4075 -0.2225  0.2435
11491W        W26960  16.770  12.404  15.238  0.4064  0.0888  0.2961
11492W        W26961  14.195  13.627  10.184  0.0494  0.1229 -0.1584
11493W        W26962   2.466   6.541  13.637 -0.0461  0.2467 -0.1991
11494W        W26963   4.663   3.313  13.086  0.2261  0.4005  0.4547
11495W        W26964   8.470  16.820   0.386  0.0610  0.3637 -0.0689
11496W        W26965   9.597  15.278   5.218  0.1056 -0.1881  0.0048
11497W        W26966  13.481  13.852  12.184 -0.2035 -0.0280  0.2532
11498W        W26967  16.673  17.298  13.233 -0.0314  0.0730 -0.3371
11499W        W26968   6.539  11.818  11.838  0.1580 -0.1706 -0.2692
11500W        W26969   0.272  11.087   1.742  0.0059 -0.0275  0.4568
11501W        W26970   7.267   9.358  11.476  0.2165 -0.1092  0.4898
11502W        W26971   5.353   3.818   1.981  0.1655  0.1494 -0.1103
11503W        W26972  15.765  12.585  15.952 -0.0799  0.0514 -0.0015
11504W        W26973  12.626  17.557   0.672 -0.2309 -0.0979 -0.0063
11505W        W26974  12.610  10.286   2.443  0.0764  0.1587  0.2063
11506W        W26975   4.013   4.276  11.858 -0.0587  0.0850 -0.0905
11507W        W26976   5.887  14.759  11.911 -0.1495 -0.0583 -0.1597
11508W        W26977  12.389  13.643   3.524 -0.0143  0.1739  0.1469
11509W        W26978   4.394  12.503   6.243 -0.2852 -0.0426 -0.0062
11510W        W26979  11.294  14.650   1.492 -0.0196  0.0393 -0.1202
11511W        W26980  15.501   0.885  11.425 -0.1148 -0.0227  0.0148
11512W        W26981   4.736  17.603  11.625 -0.0727 -0.2530  0.0295
11513W        W26982  17.439   7.899   5.603 -0.1612  0.0690  0.0500
11514W        W26983   8.007   0.588   5.314 -0.3996  0.0230  0.2358
11515W        W26984   0.648  12.078   1.679  0.2133  0.0804 -0.3285
11516W        W26985  12.677  14.719  11.604 -0.0405 -0.0060 -0.0958
11517W        W26986  14.975  11.410   2.350 -0.2893  0.2005  0.0884
11518W        W26987   6.542   4.388   0.442 -0.1636 -0.3546 -0.1244
11519W        W26988  17.213  12.905  15.866 -0.2551  0.0814 -0.0292
11520W        W26989   4.826   5.245   2.970  0.0369  0.0558  0.0064
11521W        W26990  14.979   6.157   4.004  0.0132  0.0806  0.5071
11522W        W26991   4.048  15.290   2.902 -0.2151  0.2544  0.3095
11523W        W26992   4.929  14.704   0.627 -0.2457  0.1313 -0.2743
11524W        W26993  14.084  11.379   6.341  0.1437  0.3184  0.0561
11525W        W26994  13.900   5.208   2.257 -0.1094  0.2058 -0.3513
11526W        W26995  11.526  14.652  15.015 -0.0166  0.1352  0.0188
11527W        W26996  10.056  15.786  14.277 -0.0864  0.0190  0.1644
11528W        W26997   2.443  17.781   4.522 -0.0657 -0.1483  0.0145
11529W        W26998  11.133   2.126  13.689 -0.0511 -0.1963  0.0646
11530W        W26999   8.189  13.401   2.885 -0.1468 -0.1606 -0.1117
11531W        W27000   5.685   9.080   3.323 -0.0878  0.3645 -0.0448
11532W        W27001   6.894   7.143  10.853 -0.0876 -0.1670  0.1816
11533W        W27002  14.255   8.979   2.103  0.0273 -0.1011 -0.1379
11534W        W27003   6.873  14.666   3.694  0.0819 -0.2029 -0.2973
11535W        W27004  11.555   2.365   2.289  0.2936 -0.2136  0.0366
11536W        W27005   5.345   0.582  15.584 -0.0152  0.4072 -0.4632
11537W        W27006   0.726  15.127   4.727  0.0999  0.1721  0.0584
11538W        W27007   9.656  16.028  12.929 -0.0668 -0.0291  0.2829
11539W        W27008  16.352   5.162   4.979  0.2099  0.0869  0.0351
11540W        W27009  15.928  13.824   5.262  0.1936  0.0149  0.3247
11541W        W27010  15.395   3.625  12.541  0.0873 -0.3640 -0.4941
11542W        W27011   3.691  17.161   4.800  0.0390 -0.3077  0.1094
11543W        W27012   5.544   9.302   5.190  0.3519 -0.0178  0.0155
11544W        W27013  18.078  16.014   2.939  0.0452 -0.1337  0.3454
11545W        W27014   8.612   2.696   3.499 -0.1738  0.2912 -0.0913
11546W        W27015  16.350  11.643  11.676  0.1211 -0.0854  0.0582
11547W        W27016   8.744   9.694   5.335  0.0193 -0.1011 -0.2511
11548W        W27017   3.132  12.546  11.333  0.0963 -0.3550 -0.2712
11549W        W27018  13.616  15.418  15.602 -0.1624  0.0135  0.0261
11550W        W27019  12.542   2.256   4.481  0.0169 -0.3005  0.0197
11551W        W27020  14.469  13.851   3.718 -0.0692 -0.1875 -0.0622
11552W        W27021   7.062  10.021  11.116 -0.0171  0.3144 -0.0987
11553W        W27022   9.940   4.880   0.146  0.2496  0.2220 -0.0186
11554W        W27023  12.115  15.999  14.765 -0.2305 -0.0248  0.2347
11555W        W27024   1.292  16.944   4.789 -0.2299  0.0532 -0.1975
11556W        W27025  18.250   7.802  11.623 -0.1139  0.0295  0.3393
11557W        W27026   8.723  10.484   2.735  0.0362  0.1182 -0.0819
11558W        W27027  14.867   6.918   1.577  0.0533 -0.2027  0.0297
11559W        W27028  15.407   3.041   5.045 -0.0454 -0.2629  0.1114
11560W        W27029   1.262   2.381   2.389 -0.2773 -0.1584 -0.1384
11561W        W27030  13.761  17.328  13.914  0.0771  0.2062  0.0580
11562W        W27031  12.331  10.611  14.297 -0.1759  0.2057  0.1283
11563W        W27032   7.933  14.903  11.507 -0.0439  0.1297  0.0858
11564W        W27033   4.561   2.931   3.518 -0.1153  0.5312 -0.0887
11565W        W27034  15.497   5.472  15.817 -0.1567  0.0554  0.1526
11566W        W27035   1.325  16.827  11.577  0.1618 -0.1146  0.0776
11567W        W27036  12.767  10.479  12.945 -0.4147 -0.1437  0.1853
11568W        W27037   2.998  16.473  11.158 -0.1548 -0.1510  0.0770
11569W        W27038  11.335   0.644   2.025  0.1908 -0.0381  0.1518
11570W        W27039  11.528  17.260  13.643  0.0735  0.2059 -0.0485
11571W        W27040   3.340   1.276  12.164  0.2965 -0.1236  0.0461
11572W        W27041  17.347   4.384  13.312  0.1606 -0.2035  0.1506
11573W        W27042   5.056  12.915   2.098 -0.2100  0.1992 -0.1051
11574W        W27043   7.701   7.669   3.719 -0.0665 -0.3468 -0.0133
11575W        W27044   7.176   5.708   4.973 -0.0074  0.0628  0.0941
11576W        W27045   3.824  14.227  10.372 -0.2419  0.2324 -0.1437
11577W        W27046  16.630  11.964   0.544 -0.0236 -0.0190  0.1524
11578W        W27047   7.328   6.289  13.608  0.4421  0.1363  0.1632
11579W        W27048   8.326   9.112   4.912 -0.0923  0.0438 -0.3174
11580W        W27049  15.950  16.323   6.294 -0.0821  0.1830 -0.1692
11581W        W27050   7.809   5.680  12.580  0.2262 -0.3612 -0.2819
11582W        W27051  10.255  10.023   3.190  0.2094 -0.0617 -0.2902
11583W        W27052  17.570   4.273   0.424 -0.0932  0.0319  0.0750
11584W        W27053  14.410   3.171  15.875 -0.1407  0.0419  0.0987
11585W        W27054   9.150   2.254   2.499  0.0538  0.1072  0.0685
11586W        W27055   7.032   8.335   0.829 -0.1078  0.0781 -0.1685
11587W        W27056   7.498   8.444  12.386  0.0909  0.0053  0.0038
11588W        W27057  11.756   3.658  15.544 -0.1766 -0.0604 -0.1693
11589W        W27058  12.934  14.306  15.729  0.2752  0.0262  0.1182
11590W        W27059   4.036  17.287   1.327 -0.2001 -0.2671  0.1732
11591W        W27060   9.473  11.419  15.365 -0.2361  0.0460  0.1843
11592W        W27061  10.354  17.371   3.157  0.0547 -0.0728 -0.3518
11593W        W27062   3.138  16.966  12.861 -0.1516 -0.2760 -0.3055
11594W        W27063   0.890   1.590  14.133  0.0842  0.0627  0.1704
11595W        W27064   3.682  10.301   3.300  0.1306 -0.0272 -0.0204
11596W        W27065   2.010  11.561   3.163 -0.1373 -0.3145 -0.0161
11597W        W27066   7.635  13.834  15.803 -0.0057 -0.1411  0.0858
11598W        W27067   3.515  14.750   2.957 -0.0392 -0.1357  0.2082
11599W        W27068  15.497  13.999   0.638 -0.0197 -0.1992 -0.1910
11600W        W27069   9.995  14.722  16.077  0.0254  0.0823  0.0213
11601W        W27070   0.502  13.317  13.684 -0.0607  0.2172 -0.2412
11602W        W27071  11.016  13.762   5.454 -0.1531 -0.2225  0.0319
11603W        W27072   2.150   5.376   0.187  0.2212  0.1109  0.1670
11604W        W27073   9.656   8.103   2.374 -0.2262 -0.0128 -0.1286
11605W        W27074   0.588   9.211   1.742  0.0525 -0.0883 -0.3138
11606W        W27075   9.890   5.003  13.070 -0.1814 -0.2775  0.1005
11607W        W27076  14.616   6.345  16.085 -0.3356 -0.0092 -0.1260
11608W        W27077   3.690   1.733  12.192  0.0670 -0.0202 -0.0303
11609W        W27078   4.953   6.715  15.633 -0.2241 -0.0666  0.2403
11610W        W27079  17.957   6.638   4.755  0.0141 -0.0108  0.2980
11611W        W27080  14.451   6.864   4.109  0.0751  0.1909  0.1798
11612W        W27081  15.185   4.701   3.237 -0.1710  0.2226  0.0399
11613W        W27082  11.560  15.226   3.285  0.0226 -0.0708 -0.0186
11614W        W27083  17.124   7.827   2.720  0.0380  0.0842  0.0519
11615W        W27084  14.639   5.423   5.488 -0.2041  0.0415 -0.1046
11616W        W27085   8.021  11.847   3.950 -0.0582 -0.3105 -0.0627
11617W        W27086  16.077   6.844   4.946 -0.0198 -0.0252  0.1033
11618W        W27087  14.162  12.576  12.030 -0.2244 -0.0228 -0.1061
11619W        W27088   6.205   8.886   0.524  0.2220  0.0934  0.1158
11620W        W27089  17.387  13.330  12.800 -0.1600 -0.1060  0.2118
11621W        W27090   0.064   6.101   4.878 -0.0549  0.0287 -0.0195
11622W        W27091  13.065   2.061   1.910  0.0710  0.0938 -0.1519
11623W        W27092   2.064  15.563  11.009 -0.2125  0.3543  0.0151
11624W        W27093   0.585   7.723   2.308  0.0847  0.1567 -0.0745
11625W        W27094  12.772   8.768   2.810 -0.0195  0.0046 -0.0473
11626W        W27095   0.172   8.767   3.455  0.0438  0.1573  0.2253
11627W        W27096   2.430   1.754   3.712  0.0568  0.2230 -0.1124
11628W        W27097   6.099  10.416   4.529 -0.3683  0.0627  0.1097
11629W        W27098   8.076  14.121  12.781 -0.1232 -0.0190  0.2318
11630W        W27099   7.474  11.681  14.134  0.3498 -0.0397  0.2248
11631W        W27100   2.819   5.057  12.060 -0.0713 -0.3353 -0.0171
11632W        W27101   9.427   2.280   4.216  0.0342  0.0746 -0.0191
11633W        W27102   6.103   5.256  12.449 -0.1067  0.2056 -0.1764
11634W        W27103  12.593  13.155   2.679  0.1953 -0.0172 -0.2138
11635W        W27104   2.793  11.425  10.820 -0.3027  0.2612  0.1104
11636W        W27105  11.620   4.515  13.328  0.4044  0.0463 -0.0370
11637W        W27106   3.352   8.598  12.563 -0.0997  0.1472  0.1065
11638W        W27107   0.626   1.205   1.149  0.1104 -0.0820 -0.0647
11639W        W27108  14.995  10.294   5.268  0.1244  0.2660 -0.1186
11640W        W27109  10.119   0.734   1.998 -0.2144 -0.1494  0.0698
11641W        W27110   3.564   0.432  15.086 -0.0168 -0.1091 -0.0165
11642W        W27111   5.127  14.740   4.241  0.0357 -0.3614  0.0730
11643W        W27112   1.078  11.069   0.466 -0.1232 -0.1019 -0.1686
11644W        W27113  12.761   4.719   3.337  0.0371  0.2788  0.3126
11645W        W27114   8.478  10.692   5.015 -0.1352  0.1336 -0.1365
11646W        W27115  10.253  12.679   3.752 -0.0388 -0.1285  0.0459
11647W        W27116  14.226   8.123   2.696  0.1008  0.0966 -0.3712
11648W        W27117   0.008   0.749  12.539  0.3468  0.0110 -0.0319
11649W        W27118  16.363   5.817   0.414 -0.1680 -0.0872 -0.0267
11650W        W27119   9.394  15.172  11.008 -0.3637 -0.0619  0.1922
11651W        W27120  10.222   4.690  13.320 -0.3557  0.1188  0.1661
11652W        W27121  17.572  11.587   1.709  0.0504 -0.0515  0.2159
11653W        W27122   4.671  18.263  12.804 -0.2482  0.0015 -0.1315
11654W        W27123  10.725   7.608   1.911  0.3191  0.0411  0.1048
11655W        W27124  17.971   9.438  14.884  0.1803 -0.1044 -0.0245
11656W        W27125  15.648   4.677   5.750 -0.1312  0.0282  0.1150
11657W        W27126  13.472   7.965  15.112 -0.0563  0.0717 -0.1371
11658W        W27127   8.050   6.568  15.241 -0.1742 -0.1262  0.2634
11659W        W27128  16.190   2.057   1.276  0.0245 -0.0167  0.0120
11660W        W27129  15.841   5.508   1.511 -0.1828  0.2080  0.1333
11661W        W27130   4.449  14.727   3.114 -0.0617  0.0519 -0.2796
11662W        W27131  15.396   7.581   3.164 -0.1760 -0.0090  0.1886
11663W        W27132  15.758   4.499   1.251 -0.1706 -0.4229 -0.2509
11664W        W27133   8.908   1.521   1.665  0.1276 -0.1294 -0.0478
11665W        W27134  10.768   9.334  13.155  0.2580  0.0311  0.1797
11666W        W27135  11.422  15.044   1.059  0.1480  0.2161  0.1289
11667W        W27136   5.820  13.118  10.824  0.2413 -0.2540 -0.1575
11668W        W27137   8.188   4.425  13.126 -0.0838 -0.2573  0.0265
11669W        W27138   9.454   1.487   1.874  0.1683  0.1180 -0.0507
11670W        W27139   4.716  17.565   0.592 -0.2350  0.1078 -0.3064
11671W        W27140   6.171  15.737  15.555  0.2070  0.0661  0.0759
11672W        W27141   9.590   9.541   2.548 -0.2238 -0.1692 -0.0408
11673W        W27142  10.340  16.040   0.519  0.2086 -0.0017 -0.3060
11674W        W27143   5.226   3.090   5.118 -0.0572 -0.0006 -0.1179
11675W        W27144   5.594  11.444  14.210 -0.0257 -0.1141  0.1665
11676W        W27145   6.070  11.714  14.894 -0.0868  0.2478  0.0487
11677W        W27146  10.121   2.335  14.901  0.1463  0.3482  0.0157
11678W        W27147  15.705  17.668   0.192 -0.1131 -0.3633  0.0091
11679W        W27148   5.752   7.610  14.970 -0.2492 -0.2701  0.0268
11680W        W27149  10.553  18.083   2.271  0.0413  0.0304  0.0846
11681W        W27150   6.658  10.985   1.838  0.0470 -0.1039  0.0756
11682W        W27151   8.956   0.685  13.795  0.0415 -0.1361 -0.0947
11683W        W27152  12.132   0.473   3.794 -0.0470  0.0287 -0.2485
11684W        W27153  17.816   8.473   4.741  0.1510  0.0904 -0.2347
11685W        W27154   5.014   4.567   4.751  0.4138 -0.3325  0.0114
11686W        W27155   1.951   8.210  15.157  0.3497 -0.0401 -0.3257
11687W        W27156  17.350  17.662   4.717  0.0872 -0.1215 -0.2124
11688W        W27157   0.091   3.875   3.973 -0.1081  0.2079 -0.0890
11689W        W27158   5.438   2.075  13.635 -0.1301 -0.0744  0.0543
11690W        W27159  15.844   4.837   4.348  0.0344  0.3021 -0.0254
11691W        W27160   6.282  10.807  13.503 -0.0045 -0.0951 -0.0264
11692W        W27161   4.413   9.262   4.696 -0.1280 -0.0043 -0.2220
11693W        W27162  17.107   8.520   0.002  0.2918  0.1642 -0.1504
11694W        W27163  17.081  13.126   2.248 -0.1058 -0.0251 -0.3444
11695W        W27164   1.331  16.858  12.470  0.0830  0.1521 -0.1262
11696W        W27165   4.777   6.996   0.390 -0.0748  0.1550  0.1711
11697W        W27166   9.933   9.823  15.201  0.2180  0.3613  0.0739
11698W        W27167   0.185   1.145   5.747  0.0596  0.0746 -0.1357
11699W        W27168  10.835  15.016  15.830 -0.2894  0.0171  0.1055
11700W        W27169   7.323  10.636  13.254  0.2473  0.1612 -0.3031
11701W        W27170   3.466  13.393  11.914  0.4565 -0.1282  0.5014
11702W        W27171  11.180   6.032  12.268 -0.3605  0.2256 -0.0525
11703W        W27172  12.345  15.606  14.634 -0.0496  0.2445 -0.0182
11704W        W27173  15.033  14.307   1.900 -0.1048  0.0427 -0.2430
11705W        W27174   7.433  17.582  11.560  0.0728 -0.0653  0.0555
11706W        W27175  16.132  10.907  11.224  0.0643 -0.0504  0.1607
11707W        W27176   0.322  12.827   4.084  0.1914 -0.1916  0.0613
11708W        W27177   8.679  11.576  11.618 -0.1363  0.1941  0.1504
11709W        W27178  16.080  12.182  15.903  0.1196 -0.1597 -0.0169
11710W        W27179  10.765  11.565   4.963 -0.0612  0.1950  0.0101
11711W        W27180  12.902  12.609   0.154 -0.0291 -0.1029  0.0339
11712W        W27181   3.192  10.227   5.100 -0.0935  0.0665  0.1270
11713W        W27182  13.537   8.456  15.232  0.5718 -0.0116  0.0750
11714W        W27183   5.576   4.570   1.562  0.0560 -0.0602  0.1469
11715W        W27184  16.788   5.073   1.707 -0.0238  0.0838  0.1566
11716W        W27185  15.999   7.454   1.713 -0.1516 -0.0644  0.1857
11717W        W27186   4.378  17.550   3.483 -0.3427  0.0743  0.0082
11718W        W27187  14.571  13.033   0.742 -0.0672 -0.2309  0.0687
11719W        W27188  11.579  17.513   3.668  0.2035 -0.2175 -0.0231
11720W        W27189   1.110   5.245   2.227 -0.0175  0.0574 -0.0805
11721W        W27190  14.114   4.372   6.358 -0.4267 -0.0430  0.1514
11722W        W27191  13.164   9.031  14.334  0.2117 -0.2585 -0.1002
11723W        W27192  10.779  10.183   0.073 -0.0681 -0.0462  0.2418
11724W        W27193   8.306   8.845  12.098 -0.1322  0.0193 -0.1773
11725W        W27194   4.011   1.918  15.826 -0.0782  0.0165 -0.2153
11726W        W27195  13.652   0.498   1.531 -0.0248 -0.3944 -0.2077
11727W        W27196   0.684   1.074   2.444 -0.0730 -0.1694  0.2485
11728W        W27197   5.813  15.540   3.982  0.1908 -0.1339  0.3489
11729W        W27198   4.788   2.051  11.865 -0.0039 -0.2083  0.0768
11730W        W27199  11.327  12.438  12.168  0.0996 -0.1900  0.2365
11731W        W27200   2.696   9.855  12.122  0.1107  0.2183 -0.1507
11732W        W27201   2.035  14.337  13.657  0.0082 -0.3527 -0.1153
11733W        W27202  15.820  17.545  14.817 -0.0679 -0.0725  0.0764
11734W        W27203  16.432   8.898  11.845  0.0139 -0.0425 -0.0936
11735W        W27204  11.237   6.829   0.836 -0.2507  0.2280 -0.1351
11736W        W27205   1.941   4.902  15.867 -0.2236  0.2735 -0.0415
11737W        W27206   9.545   1.555   3.508  0.0077 -0.0970 -0.0718
11738W        W27207   8.525   8.837  15.519  0.0102  0.0118 -0.1805
11739W        W27208   6.190  11.817  11.503  0.2019  0.1662  0.1925
11740W        W27209   4.003   7.152   1.552 -0.1786 -0.1226  0.2526
11741W        W27210   1.915   9.741  13.761 -0.2102  0.0181 -0.0347
11742W        W27211   6.827   0.702  15.668  0.1078  0.0989  0.0707
11743W        W27212   1.290  14.659  15.116  0.1806  0.2042  0.1659
11744W        W27213   8.492  12.998  13.653 -0.2110  0.0880  0.0926
11745W        W27214   3.621   1.729   3.475  0.1154  0.3086  0.0510
11746W        W27215  15.655   7.923   5.038 -0.1392 -0.1484 -0.0983
11747W        W27216   0.623   0.084  10.375  0.0776 -0.3395  0.2509
11748W        W27217   6.044   7.287  14.486  0.0928 -0.0572 -0.1162
11749W        W27218  13.788  14.796   1.409 -0.1521  0.1180 -0.1229
11750W        W27219  13.730  15.490  12.779  0.2176 -0.0260 -0.1440
11751W        W27220  18.131  16.843  13.785  0.0934  0.1506 -0.1251
11752W        W27221  12.958   9.510   5.119 -0.1580 -0.3666  0.2512
11753W        W27222   1.499   4.105  10.286 -0.2323  0.0852  0.4125
11754W        W27223   4.516   1.582   0.833 -0.1256 -0.0042  0.2288
11755W        W27224  11.133   8.734  13.404 -0.0968 -0.1157  0.1009
11756W        W27225  17.349  10.403   0.867  0.1760 -0.2409  0.4154
11757W        W27226  13.494   8.055   6.354 -0.3248 -0.0311  0.2902
11758W        W27227   4.014   9.682  11.581  0.0583 -0.0051 -0.0158
11759W        W27228   2.939  16.533  15.511 -0.1062  0.2315  0.1147
11760W        W27229  16.462   4.910   3.360  0.1927 -0.1852 -0.1227
11761W        W27230   9.007  16.355   3.724 -0.0885  0.2008  0.0256
11762W        W27231   7.555   2.665  11.102 -0.0703 -0.1110 -0.1078
11763W        W27232   9.296  16.573   5.445  0.0966 -0.3150 -0.2933
11764W        W27233   5.297  18.164  12.051 -0.0952  0.1526 -0.1003
11765W        W27234   6.707  10.732   2.379  0.0575 -0.2103 -0.2830
11766W        W27235   6.351   3.761  14.369 -0.2314 -0.3109 -0.0270
11767W        W27236   1.025  12.676  15.420  0.0301 -0.1359 -0.3467
11768W        W27237  15.634   2.026  14.804  0.1894  0.0365 -0.0005
11769W        W27238   7.210   3.871   4.008 -0.1693  0.1674  0.0256
11770W        W27239   0.923  16.919  14.795 -0.1555 -0.0785 -0.1335
11771W        W27240  10.290  16.022   4.343  0.2203  0.0416 -0.0696
11772W        W27241   9.226  17.795   4.610  0.0344  0.1030 -0.0033
11773W        W27242  11.137   3.802   4.632  0.0655 -0.0647 -0.4211
11774W        W27243   3.454   8.386   5.906 -0.1118 -0.1453 -0.0938
11775W        W27244  17.418   8.525   3.352 -0.0695 -0.0030 -0.2472
11776W        W27245  16.454  16.027   0.476 -0.1375  0.1326  0.3560
11777W        W27246  15.729   1.306  11.474  0.0505  0.1195  0.0235
11778W        W27247  10.157   5.909   0.210  0.3563 -0.0402 -0.1369
11779W        W27248  11.525  13.088   2.634 -0.1869 -0.0461  0.0312
11780W        W27249   6.346   2.211   1.795 -0.1124  0.2471  0.2019
11781W        W27250   7.397  17.970  10.093  0.1585 -0.0218  0.3145
11782W        W27251  15.482  14.365  11.540  0.0949 -0.1052  0.0524
11783W        W27252  16.238  15.008  12.013  0.0786  0.0502 -0.0868
11784W        W27253   6.808   1.297   1.223 -0.0493 -0.2179  0.2069
11785W        W27254  12.105   9.047   5.679  0.0056 -0.1580 -0.0976
11786W        W27255  16.387  15.428  12.878  0.1182  0.1034  0.0440
11787W        W27256  17.504   7.506  14.980  0.0958 -0.3959  0.0546
11788W        W27257  10.224   0.937  15.888  0.1344  0.0840 -0.0002
11789W        W27258   8.522   9.104  13.917  0.0102  0.2744 -0.2052
11790W        W27259   8.283   7.074   4.332 -0.0860 -0.1684 -0.1003
11791W        W27260  11.567   4.855  13.680 -0.0003 -0.1441  0.3332
11792W        W27261  17.607   0.924  13.166 -0.0703 -0.3240  0.1438
11793W        W27262  16.351   4.190  15.243  0.0344  0.2225 -0.2097
11794W        W27263  17.254   2.032   1.666 -0.0198 -0.4370 -0.1795
11795W        W27264  10.461   0.328  11.328 -0.5041 -0.0332 -0.2037
11796W        W27265  10.271   9.370  13.281 -0.3327 -0.1437 -0.0565
11797W        W27266   4.120   6.501  10.172 -0.1100  0.1355 -0.2968
11798W        W27267   7.278   8.898   3.609  0.0936 -0.1414 -0.0910
11799W        W27268  15.182   9.677   0.328 -0.2165  0.0640  0.2637
11800W        W27269  12.040   3.250  14.404 -0.1675  0.0594  0.3608
11801W        W27270  16.773   1.316   5.511  0.2062  0.3639 -0.0804
11802W        W27271  10.650   0.647   4.877 -0.3784  0.0615  0.2831
11803W        W27272  16.125   8.137   3.567  0.0409  0.1483  0.0326
11804W        W27273  17.422   9.418  15.867  0.0104  0.1843 -0.2198
11805W        W27274   7.516   3.840   5.035  0.0620  0.1566 -0.1106
11806W        W27275   7.822   6.402   3.195  0.1311 -0.2149 -0.0506
11807W        W27276   4.181   7.264  14.411  0.0236 -0.0391  0.3678
11808W        W27277  10.590   8.055   0.806  0.0843  0.0975 -0.0986
11809W        W27278  14.783  11.037  14.507 -0.3815  0.2007  0.3316
11810W        W27279  17.559  14.236   1.749 -0.3604  0.2801  0.2612
11811W        W27280   2.657  11.721  11.716  0.2119 -0.0500 -0.1331
11812W        W27281   7.145   7.981  14.310  0.2064 -0.0790  0.0116
11813W        W27282  16.166   0.491   4.572  0.1608  0.2225 -0.0814
11814W        W27283  15.669  18.251   1.846  0.1484  0.1108 -0.1063
11815W        W27284  10.987   4.170   1.630 -0.2075  0.1049  0.0750
11816W        W27285   4.476  14.592  12.663  0.2402 -0.2655  0.0445
11817W        W27286   7.727  13.529   3.228  0.1264 -0.1918  0.0146
11818W        W27287  16.498   1.946   3.461 -0.1411  0.1044 -0.0749
11819W        W27288   6.076   7.479   4.286 -0.1600  0.2290 -0.0044
11820W        W27289   5.630  14.354  13.889  0.0555 -0.0530 -0.0351
11821W        W27290   1.023   2.389  14.421 -0.0469  0.0004 -0.1187
11822W        W27291   8.913   1.015  14.975 -0.3014  0.0546 -0.0060
11823W        W27292   5.075  12.794   1.194  0.2115  0.0561  0.0535
11824W        W27293  18.058   5.723  15.160 -0.0701 -0.0890  0.3230
11825W        W27294  16.371  12.959  15.162  0.2271  0.0506 -0.1664
11826W        W27295  12.706  10.179   4.381  0.3108  0.0804  0.1110
11827W        W27296  17.769   8.727  11.922 -0.1102 -0.2257  0.0451
11828W        W27297   9.426   8.791  15.372 -0.2962  0.0323  0.0254
11829W        W27298  15.699   6.221  14.750 -0.0635  0.0774  0.0738
11830W        W27299   7.014   8.765  11.568 -0.1136 -0.1214  0.0345
11831W        W27300   0.087   1.807   4.635 -0.1773 -0.1729  0.2106
11832W        W27301  17.210   7.382   1.401  0.0833 -0.3307  0.1275
11833W        W27302  17.120   2.035   5.857 -0.0381 -0.1492  0.0278
11834W        W27303  10.974  12.323  16.068  0.2234 -0.0126  0.1848
11835W        W27304  14.504   4.063   2.868 -0.0097  0.1262 -0.0152
11836W        W27305  12.073  12.491  15.358  0.3316 -0.0285  0.2219
11837W        W27306   8.500   0.526  14.139  0.0297 -0.2149 -0.3595
11838W        W27307   8.782  11.704  13.901  0.0634 -0.2171 -0.5394
11839W        W27308   3.264  11.377   0.231 -0.0519  0.1076 -0.2043
11840W        W27309  14.699   1.854   3.432 -0.1440  0.1157 -0.1100
11841W        W27310   9.051   9.758  11.261  0.1300  0.3206 -0.0610
11842W        W27311  18.122   4.610   3.008  0.1692  0.0291  0.4509
11843W        W27312  12.263  15.702  13.486 -0.0102  0.2675  0.0391
11844W        W27313   7.318   3.720  14.863 -0.0115 -0.0814  0.0846
11845W        W27314   3.083   9.596  13.044  0.3288 -0.1125 -0.0348
11846W        W27315   4.335   3.901  10.589  0.0642 -0.0484  0.1461
11847W        W27316  15.306   6.761  13.959  0.1711  0.1557 -0.0739
11848W        W27317   2.138  16.361  15.184  0.1024  0.0888  0.1971
11849W        W27318  10.583  13.894   4.415 -0.2343  0.2284  0.0269
11850W        W27319   9.607   4.213  11.004 -0.0943  0.4642  0.0609
11851W        W27320  11.689  18.039  10.387  0.0033 -0.1505  0.0738
11852W        W27321  17.860   8.420   2.664  0.0054 -0.0353  0.1919
11853W        W27322   7.059   0.150  12.472  0.1208 -0.2368 -0.0983
11854W        W27323  16.168  17.808  15.100  0.2182 -0.1092 -0.2495
11855W        W27324   3.746   5.499  11.510  0.1122  0.0589 -0.0736
11856W        W27325  15.978   3.277   0.356  0.0924 -0.0059 -0.1783
11857W        W27326  12.905  16.205  11.206  0.0242  0.0095 -0.1262
11858W        W27327   3.215  16.081  14.669 -0.0392  0.4272 -0.1173
11859W        W27328   0.932  11.257  12.789 -0.2638 -0.1589 -0.1244
11860W        W27329  13.138   4.259  12.804 -0.3558  0.0832  0.1666
11861W        W27330  17.525  10.486  12.911 -0.0603  0.1199 -0.0820
11862W        W27331  11.838  13.236  12.342 -0.1238 -0.0212  0.0010
11863W        W27332  15.587  15.795  14.593 -0.1789 -0.1176 -0.0903
11864W        W27333  16.988   3.869  11.268 -0.2802  0.2879  0.0258
11865W        W27334  11.920   9.431   4.395  0.2407 -0.2248 -0.0625
11866W        W27335  16.127   1.414  13.465  0.2613  0.0671  0.2677
11867W        W27336   1.841  16.643  13.606  0.2068 -0.1475 -0.0792
11868W        W27337   8.853  10.351  12.427 -0.2299 -0.2226  0.0392
11869W        W27338  11.647   3.049   2.853  0.0659 -0.2515  0.0553
11870W        W27339  13.635  15.006  14.672  0.2196 -0.0149  0.3283
11871W        W27340  12.437   0.907   5.857 -0.2009 -0.1539 -0.3095
11872W        W27341  13.638   7.001   3.899 -0.1818  0.1010  0.0089
11873W        W27342   4.912  15.828  15.121  0.1795  0.1759 -0.2576
11874W        W27343  12.844  16.313   3.515  0.1925 -0.3372  0.1254
11875W        W27344  12.232   9.112  14.145 -0.0977  0.1949 -0.4070
11876W        W27345   5.049   1.016   4.559  0.1009  0.1848 -0.1923
11877W        W27346   7.689  12.991   3.819 -0.0411  0.2194 -0.1360
11878W        W27347  12.971   5.608   4.792  0.1697 -0.0278 -0.0647
11879W        W27348   8.378   8.882   4.289  0.1587  0.3090  0.0271
11880W        W27349  13.954   5.933  14.136 -0.1175  0.0964  0.0028
11881W        W27350  11.455  14.260  10.859  0.2485 -0.2161  0.0405
11882W        W27351  18.188   4.570  11.902  0.0783  0.1030  0.1265
11883W        W27352  17.396  15.517   4.447 -0.4129 -0.1753 -0.1409
11884W        W27353   4.757  14.152   2.341 -0.2206 -0.3666  0.0792
11885W        W27354  14.886  15.091   2.948 -0.3661  0.1511 -0.3786
11886W        W27355   3.690   7.309  10.651  0.4634 -0.1377  0.0192
11887W        W27356   6.479  11.790  13.773  0.0734 -0.3603  0.0096
11888W        W27357   2.455  16.681   5.460 -0.2014  0.0193  0.0936
11889W        W27358   7.214   4.650  14.573  0.0321 -0.0936  0.1620
11890W        W27359  15.937  15.103   5.471  0.1522  0.0078  0.1160
11891W        W27360  15.813  12.709   0.635 -0.0084  0.1910  0.2288
11892W        W27361  17.293   3.253   1.893 -0.1631 -0.4274 -0.1957
11893W        W27362  10.487  11.600  13.832 -0.1241 -0.2530  0.2405
11894W        W27363  14.045  10.187   1.050  0.1888 -0.0329  0.1290
11895W        W27364  11.898  12.774   1.090  0.0356  0.1081 -0.0643
11896W        W27365  17.731  13.415   2.278 -0.1334  0.1810 -0.0004
11897W        W27366  17.062   6.433   2.183 -0.0670  0.0468 -0.1762
11898W        W27367   7.298   3.480   0.960 -0.1270  0.1235  0.1251
11899W        W27368  17.518  14.670   0.744 -0.1646  0.1130  0.0895
11900W        W27369   6.231  17.600   4.414  0.2075 -0.1676  0.2069
11901W        W27370  11.853   7.838  13.002 -0.1735  0.0125  0.2105
11902W        W27371   1.435   6.767   0.299 -0.0745 -0.4785 -0.0728
11903W        W27372  12.411   7.731  15.256  0.2298 -0.3039  0.0326
11904W        W27373   5.625   0.544   2.254  0.3445  0.1879 -0.1784
11905W        W27374   0.120  10.754  11.769  0.0083 -0.1356 -0.1369
11906W        W27375   2.769   0.051   0.528  0.1833 -0.2135  0.0496
11907W        W27376   3.063  11.538  11.298 -0.0836 -0.3668  0.1814
11908W        W27377  13.647   4.854   1.893  0.2686 -0.1960  0.1549
11909W        W27378   0.216   2.028  15.969  0.2260 -0.0962 -0.1723
11910W        W27379   4.387  13.985  13.345 -0.2615 -0.1293  0.1140
11911W        W27380   1.599   0.168   1.958 -0.0032  0.1312 -0.0651
11912W        W27381  18.186   0.388  15.994  0.7086  0.1948  0.0464
11913W        W27382   4.218   7.573   1.492  0.2469 -0.0380 -0.1798
11914W        W27383   0.956   3.471   1.829 -0.2751 -0.1756  0.0848
11915W        W27384   9.857  12.663  12.317  0.0326 -0.1917 -0.0458
11916W        W27385  11.329  17.764   5.242  0.0392 -0.3131  0.3513
11917W        W27386   4.190   3.275  14.408  0.3524  0.0631  0.1210
11918W        W27387  13.183  17.452  15.082  0.0963 -0.0945  0.0098
11919W        W27388   9.967   7.550   5.010 -0.0122 -0.0717 -0.0594
11920W        W27389  15.520   9.998  14.606 -0.1125  0.2103  0.1442
11921W        W27390   1.724  10.208   0.247 -0.1920 -0.0511 -0.0918
11922W        W27391  14.046   9.122  11.820  0.0318  0.0034  0.1641
11923W        W27392   2.974  11.235  13.244 -0.1125  0.3929  0.2921
11924W        W27393   9.828  12.722  12.823 -0.1649 -0.0939  0.4329
11925W        W27394   0.841   6.363  14.384 -0.4295  0.1889  0.3340
11926W        W27395  16.701   4.319   3.596  0.1094 -0.1964  0.1442
11927W        W27396  10.920   7.322  12.448 -0.2931 -0.0149 -0.1837
11928W        W27397  18.136   1.364   4.861 -0.1515 -0.0939  0.3648
11929W        W27398   2.839   7.600  11.345  0.2121  0.1899 -0.0227
11930W        W27399   3.099  14.958   0.373  0.0690 -0.1854  0.2722
11931W        W27400   1.175   1.099  15.416 -0.0884 -0.3393 -0.0372
11932W        W27401  14.179   9.984   1.595  0.2059  0.3654 -0.0585
11933W        W27402  15.809  15.298   0.354  0.2848 -0.3307 -0.1462
11934W        W27403  12.490  12.678  11.815  0.1826  0.1583 -0.0845
11935W        W27404   8.291  12.003   4.372  0.1672 -0.1592  0.2489
11936W        W27405  10.384   8.665   1.674 -0.1838  0.0655 -0.0120
11937W        W27406   9.647  16.744   6.174  0.1842  0.0026 -0.2391
11938W        W27407  16.913   1.490   4.097 -0.0863 -0.1759 -0.0232
11939W        W27408   1.732  12.054   3.454 -0.0835  0.1334 -0.1520
11940W        W27409  13.587   7.186  15.700  0.1521 -0.4405  0.0728
11941W        W27410   1.679  13.025   3.809 -0.2438 -0.0539  0.1661
11942W        W27411   5.959  16.115   0.361  0.1242  0.0208 -0.0382
11943W        W27412  13.991   2.926  11.391  0.0818 -0.0689  0.0521
11944W        W27413  12.830  10.666  10.239 -0.3275 -0.0455 -0.1724
11945W        W27414   6.620   1.375   4.917  0.0249 -0.1197 -0.1513
11946W        W27415   4.294  15.846   4.164 -0.0835 -0.0050  0.1558
11947W        W27416  13.247  11.934   1.121  0.0687 -0.1177  0.0169
11948W        W27417  17.355  12.281   2.580 -0.0869  0.1574 -0.2523
11949W        W27418  13.183  10.656  14.878  0.0588 -0.0842 -0.1866
11950W        W27419  18.230   7.942  14.833  0.0143  0.0192  0.1770
11951W        W27420   4.790  11.188   0.566  0.0610 -0.1882  0.0186
11952W        W27421   1.174  12.912   5.224 -0.0398 -0.1894  0.1459
11953W        W27422   6.833  15.653  11.685 -0.0162  0.0098 -0.1962
11954W        W27423   3.125   2.786   4.009  0.1248  0.1367 -0.0594
11955W        W27424   1.394   6.311  12.650 -0.0495  0.0789  0.0227
11956W        W27425  17.944  13.563  12.862  0.1177 -0.0913 -0.0281
11957W        W27426   5.997   3.897  15.077 -0.2406 -0.0201 -0.1503
11958W        W27427  12.538  13.119   4.292 -0.0914  0.0396 -0.1388
11959W        W27428   7.358  15.425  11.052  0.0663  0.1295  0.1438
11960W        W27429  17.212  11.837   2.756 -0.1412  0.0660  0.1419
11961W        W27430   7.723  14.287   0.056  0.1507  0.0225  0.2396
11962W        W27431   8.672  16.361   4.444 -0.0420  0.0776 -0.0019
11963W        W27432   9.185  10.304   3.927  0.1682  0.2313 -0.2750
11964W        W27433   8.032  12.592   2.221 -0.0192 -0.1539  0.0519
11965W        W27434  12.447  15.766  15.097  0.0704 -0.0118  0.0368
11966W        W27435   5.565   3.157  11.719 -0.1413  0.1169  0.0840
11967W        W27436   8.470   2.739   0.313  0.1118  0.0772 -0.1440
11968W        W27437  14.888  17.743  11.743 -0.2828  0.0697 -0.0426
11969W        W27438   6.783   6.489  11.676 -0.0666 -0.0285 -0.3707
11970W        W27439   4.869   7.193   5.548 -0.0050  0.1945  0.1163
11971W        W27440   5.416  14.498   2.337  0.0548 -0.1723 -0.1672
11972W        W27441  12.768  17.009   4.323  0.0496 -0.3614  0.3427
11973W        W27442  10.369  15.126  12.613 -0.1017  0.2064 -0.0869
11974W        W27443   5.919   4.428  15.822 -0.1467 -0.3460 -0.3235
11975W        W27444   0.231  12.438  12.361 -0.2182  0.4128 -0.0891
11976W        W27445   1.634   7.217  12.504 -0.3512 -0.1447  0.3094
11977W        W27446  16.652   0.893  11.686 -0.2524  0.1477  0.2094
11978W        W27447  13.699   6.414  12.931 -0.0776  0.0729  0.0537
11979W        W27448   2.822  13.450   4.385 -0.1763  0.0248  0.0603
11980W        W27449  16.754   1.847   2.644 -0.1819 -0.0366  0.0609
11981W        W27450  14.414  10.694   1.140 -0.0081  0.3646 -0.4029
11982W        W27451  17.689  10.744   1.105  0.4132  0.0125 -0.0461
11983W        W27452   3.163   5.419  10.635 -0.1707 -0.1794  0.0446
11984W        W27453   0.790   8.339  12.335  0.2850 -0.1920  0.0913
11985W        W27454  17.233   3.287   4.133 -0.2470 -0.0950 -0.0562
11986W        W27455  10.656   1.360  15.961 -0.2494 -0.0309 -0.1165
11987W        W27456  13.151   8.487   0.675 -0.0223  0.5218  0.2198
11988W        W27457   9.286  12.055   2.275  0.0651 -0.1572 -0.1626
11989W        W27458   6.453   4.594  10.113 -0.2377  0.0924  0.1269
11990W        W27459  13.043   5.851   1.405  0.0866  0.0916 -0.0590
11991W        W27460   3.384   3.989   1.002  0.1930  0.0592  0.0409
11992W        W27461  15.601  11.840   2.989 -0.0272  0.1479  0.1541
11993W        W27462   6.929   0.101   5.472  0.4858 -0.1925  0.1577
11994W        W27463   6.455  16.262  13.875 -0.2384 -0.1389  0.1480
11995W        W27464   2.996   4.634   5.470 -0.1369 -0.2188 -0.1585
11996W        W27465  16.144   2.226   3.744 -0.1110  0.4900  0.4823
11997W        W27466  14.774  15.934   2.424 -0.1506 -0.0222  0.0221
11998W        W27467   5.801  15.956  14.908  0.0939  0.0386 -0.1404
11999W        W27468  11.979   0.886   0.951  0.0597 -0.0520  0.2634
12000W        W27469   2.812  11.907  10.966 -0.0122  0.1178  0.0927
12001W        W27470   3.950  15.285  12.930 -0.0480 -0.2372 -0.0220
12002W        W27471  16.386   7.860   1.687  0.0493 -0.2000  0.3289
12003W        W27472  10.021   5.578  10.468  0.1454  0.0343  0.1680
12004W        W27473  11.343   6.145   1.736  0.0965 -0.1341  0.1901
12005W        W27474  16.708   5.726  12.291 -0.0934 -0.0007  0.0721
12006W        W27475   9.839  11.848  15.903 -0.2336  0.0620 -0.0419
12007W        W27476  10.140   7.115   4.495  0.2415  0.2668 -0.0166
12008W        W27477  15.267   6.273   3.302 -0.3247  0.1373 -0.0375
12009W        W27478  12.363   2.083  12.108 -0.1679 -0.1072 -0.1061
12010W        W27479  17.673  14.484  11.631  0.0791  0.0868  0.1954
12011W        W27480  16.531   8.937  14.690 -0.5269 -0.1476 -0.1141
12012W        W27481  13.830   0.790  14.937  0.1526  0.1794 -0.1614
12013W        W27482  13.490   8.738  13.122 -0.0632 -0.0166 -0.2756
12014W        W27483  16.229   4.390   3.617 -0.1587 -0.0034  0.1598
12015W        W27484  12.623   1.407   2.506 -0.0468  0.0554  0.3946
12016W        W27485   1.887   5.718  13.471 -0.0653 -0.1703 -0.3267
12017W        W27486   4.694  10.718  14.097  0.4384 -0.1379 -0.0043
12018W        W27487   7.216   2.268  13.935 -0.0880 -0.2028  0.0603
12019W        W27488  10.861  14.163   2.562  0.1496  0.4823  0.1697
12020W        W27489  10.772  13.516  14.643 -0.0189 -0.0383 -0.1498
12021W        W27490   4.087   0.861   5.774 -0.3043 -0.3409  0.2210
12022W        W27491  11.238   5.084  11.411  0.2630  0.1147  0.0851
12023W        W27492   9.480  14.818   2.152  0.0666  0.2744 -0.0505
12024W        W27493  17.702  13.994   2.594  0.1938  0.0949  0.0310
12025W        W27494  10.967   6.797  15.122  0.1578  0.0135 -0.0320
12026W        W27495  15.411  13.939  12.940 -0.2677  0.0125  0.0914
12027W        W27496  10.526   3.866   4.820 -0.1878 -0.0235 -0.2785
12028W        W27497   9.253   6.883   0.425 -0.2291  0.0627 -0.1043
12029W        W27498  11.662  10.711  12.170  0.0797  0.1303 -0.2403
12030W        W27499   8.749  10.187  11.936 -0.1646 -0.1466 -0.0213
12031W        W27500  15.445  16.952   4.530 -0.1860  0.2653  0.2465
12032W        W27501   3.013  14.636   3.622  0.3075  0.0759 -0.1971
12033W        W27502   8.436   1.664   2.317 -0.0492  0.0593 -0.0285
12034W        W27503   9.394   2.937   5.361  0.3098  0.0458 -0.1846
12035W        W27504  17.913  16.007  13.463 -0.0140 -0.0952 -0.3422
12036W        W27505  16.385   7.459   5.488  0.4387  0.2891 -0.0081
12037W        W27506   8.128  15.293   4.820  0.3452 -0.1155  0.0555
12038W        W27507   9.900  11.293  14.102  0.0806 -0.1916  0.3071
12039W        W27508  11.984  11.564  12.621 -0.0509  0.0473 -0.0911
12040W        W27509   7.397  12.007   1.268 -0.2777  0.1736  0.0236
12041W        W27510  14.363   0.357  11.687 -0.1578  0.1346  0.0828
12042W        W27511   4.832   6.727  14.095 -0.0557  0.1427  0.0402
12043W        W27512   5.930   5.245  12.924 -0.1003 -0.0032  0.0133
12044W        W27513  10.150   9.935   4.234 -0.3056  0.0684  0.4772
12045W        W27514  18.000   1.886  14.209 -0.1955  0.0710 -0.4108
12046W        W27515   6.264   7.095  15.386  0.0876 -0.0827 -0.1357
12047W        W27516   8.504   4.391  15.295 -0.0187 -0.0464 -0.1832
12048W        W27517   0.061  17.102  14.388  0.0676 -0.0500  0.2005
12049W        W27518   1.589  17.620  14.895 -0.2966 -0.1544  0.0619
12050W        W27519  10.997   0.919  12.246 -0.1713 -0.1901  0.0229
12051W        W27520   8.863   2.823   0.034  0.1188  0.2515  0.0663
12052W        W27521   2.532   9.278   0.463 -0.0461  0.1944 -0.1528
12053W        W27522   4.313  15.576   5.587  0.1044  0.1325  0.1728
12054W        W27523   8.494  10.936   1.864 -0.2388 -0.3687  0.1506
12055W        W27524   1.769   1.929   1.674 -0.0314 -0.1406 -0.1975
12056W        W27525  10.922   4.345  12.805 -0.0991 -0.1066 -0.0231
12057W        W27526   4.860  14.651   2.458 -0.2698  0.1559 -0.1372
12058W        W27527   7.153  15.162   2.872  0.2226  0.0732  0.1096
12059W        W27528   1.458  11.809  11.170  0.2148 -0.1363 -0.1349
12060W        W27529  10.656   6.126   0.955  0.0701  0.2241 -0.0199
12061W        W27530  15.442   5.349   0.586 -0.1021 -0.0198  0.3267
12062W        W27531  13.317   4.497   0.964 -0.1568 -0.2172  0.4830
12063W        W27532  12.699   7.782  13.048  0.3331 -0.0276 -0.0271
12064W        W27533   0.150  16.156   1.713 -0.2696 -0.0346  0.2416
12065W        W27534   4.890   8.210  14.237  0.1216  0.1124  0.4769
12066W        W27535   4.587  12.340  15.331  0.0622 -0.2157 -0.3269
12067W        W27536  17.568   9.900  15.455 -0.1900 -0.0735 -0.1748
12068W        W27537  14.168  11.670   3.930  0.0879  0.1475 -0.0206
12069W        W27538   8.641  11.828   2.171 -0.0459  0.0900 -0.0082
12070W        W27539   9.314   7.192  13.406 -0.1208  0.0741  0.0966
12071W        W27540  14.123   9.563  11.080 -0.2449 -0.2160  0.0257
12072W        W27541   9.902  11.883  10.800 -0.0270  0.0856  0.0668
12073W        W27542   5.898   8.223   2.391  0.2536  0.0922 -0.1048
12074W        W27543  10.203  18.114  11.366  0.0302  0.1553 -0.0476
12075W        W27544  13.436   6.349   3.262  0.1911 -0.1236 -0.0048
12076W        W27545   5.895  15.213   1.488 -0.1603  0.1451  0.0786
12077W        W27546   2.801   3.822   0.559  0.0890 -0.2355  0.1614
12078W        W27547  16.643  16.421   5.598 -0.1918 -0.2581 -0.0421
12079W        W27548   3.810   4.063  13.652 -0.0635 -0.0152  0.0224
12080W        W27549  11.073  11.791  12.533  0.2147 -0.3993  0.1068
12081W        W27550  10.247   8.954  15.582  0.0380  0.1539  0.2861
12082W        W27551   2.457   0.813  15.940  0.0921 -0.3849  0.1699
12083W        W27552  17.971   7.989   4.800  0.2618  0.0967 -0.1497
12084W        W27553   5.774   7.449  12.223  0.4318  0.1386  0.0428
12085W        W27554  17.780   3.241   4.299 -0.0404 -0.0957 -0.2579
12086W        W27555  15.300  17.863   4.419  0.0835  0.0018 -0.0331
12087W        W27556  13.752   8.328   2.418 -0.2541  0.0504 -0.1769
12088W        W27557  14.486   2.571   0.313 -0.0097  0.2223 -0.0362
12089W        W27558  13.589   8.539  10.274  0.1965 -0.0456  0.0765
12090W        W27559   8.432  15.037  11.789  0.0878  0.1395  0.0576
12091W        W27560   4.742  15.788   1.659 -0.1566  0.1848 -0.1214
12092W        W27561  10.230   0.985   2.863 -0.0110  0.0455 -0.0394
12093W        W27562  17.560   2.130  15.041 -0.1540  0.3367 -0.1126
12094W        W27563  12.155  13.612  13.649 -0.1694 -0.4592  0.0545
12095W        W27564  16.141   5.204  11.914  0.1017 -0.1381  0.0365
12096W        W27565  17.780  10.310  15.229  0.2723  0.0101  0.1716
12097W        W27566   8.545   8.717   5.166  0.0334  0.2866  0.1033
12098W        W27567  10.526  10.440   3.075  0.3211 -0.1214  0.2056
12099W        W27568   9.702   4.411  14.804  0.2921  0.1282  0.1850
12100W        W27569  15.597   1.996   2.974 -0.0265 -0.0819 -0.2410
12101W        W27570  15.970   4.535   2.533 -0.1243 -0.1227 -0.1352
12102W        W27571  10.927  13.700   4.993  0.3026 -0.1311 -0.0697
12103W        W27572   4.900  12.523   1.854 -0.2531 -0.2311  0.3807
12104W        W27573  12.070   5.747   1.154 -0.0230 -0.4416 -0.0532
12105W        W27574  11.780   1.756  13.254 -0.0156  0.0754 -0.1815
12106W        W27575   8.278   3.632  12.737  0.2064 -0.0329  0.1569
12107W        W27576   4.484   4.343   3.495 -0.0926 -0.1216 -0.1224
12108W        W27577  13.779  12.692  14.877 -0.0049  0.1025 -0.0864
12109W        W27578   4.461   9.698  12.575  0.1844 -0.1121 -0.1599
12110W        W27579  18.285  14.377   1.082  0.0116  0.0297 -0.0085
12111W        W27580   4.885  14.122  15.523  0.2747  0.1859 -0.1334
12112W        W27581  15.637   6.974  15.380 -0.1314  0.0855  0.0664
12113W        W27582  11.825   9.775  15.140  0.1372 -0.1749 -0.0196
12114W        W27583   0.998  17.784   4.993 -0.1319 -0.1950  0.1892
12115W        W27584  12.820  11.816   2.634  0.0019 -0.2967  0.0612
12116W        W27585  18.149   4.173   2.668  0.0364  0.0856  0.3603
12117W        W27586   0.912   9.809  11.865  0.1778 -0.4303 -0.0650
12118W        W27587  17.172  11.515   4.413  0.0810  0.0360 -0.0331
12119W        W27588   4.272   6.562   4.961  0.2459 -0.1809 -0.1771
12120W        W27589   6.974   5.329  15.677 -0.2983 -0.2221  0.1764
12121W        W27590   1.318   7.213  11.635  0.0614 -0.1675 -0.2585
12122W        W27591   8.511  15.628   3.763  0.0254 -0.0422  0.1953
12123W        W27592  16.199   7.903   1.211 -0.2194 -0.3165  0.0386
12124W        W27593   1.717   1.052  13.375 -0.0231  0.0906 -0.2560
12125W        W27594  18.278  10.420  10.572  0.0450 -0.0056  0.1073
12126W        W27595  12.390   9.639   4.398  0.0744 -0.0735  0.2307
12127W        W27596   5.089   2.815   3.622  0.0466 -0.0292 -0.0987
12128W        W27597   0.253  14.265   3.189  0.1855 -0.0811 -0.2349
12129W        W27598  10.062  11.880  11.345  0.0763 -0.2744 -0.1582
12130W        W27599  12.921  16.312  12.354 -0.1744  0.2542 -0.3171
12131W        W27600   0.063  13.317   3.543  0.2369  0.0460  0.0014
12132W        W27601  15.920   7.305  13.433 -0.0072 -0.0961 -0.2699
12133W        W27602   9.267   3.220   3.148  0.1206 -0.1070 -0.1523
12134W        W27603   2.085  11.796  14.970  0.2497 -0.0154  0.1077
12135W        W27604  16.111   7.519  14.691  0.2877 -0.3216 -0.2022
12136W        W27605  12.851   6.033   0.054 -0.0640  0.1574 -0.0532
12137W        W27606  10.409   2.956   0.151  0.0936  0.0552  0.0257
12138W        W27607  14.895  12.163  13.754  0.1713  0.0609  0.2557
12139W        W27608   5.226   6.474  10.941 -0.0002  0.1892  0.3532
12140W        W27609  14.006   1.236   6.397 -0.0711  0.1523  0.0051
12141W        W27610  13.358  14.951   0.667  0.2709 -0.0676  0.1588
12142W        W27611  17.352  13.284  14.429 -0.0221  0.2747  0.0049
12143W        W27612   2.305  11.643  12.866 -0.1468 -0.1015  0.3394
12144W        W27613  18.122   2.572  11.745  0.0432  0.4474  0.0538
12145W        W27614   6.998   2.790   5.498 -0.1321 -0.3148 -0.0022
12146W        W27615  18.281   4.259  11.439  0.0382 -0.0847 -0.0342
12147W        W27616  10.449  13.947   1.691  0.1484  0.0064 -0.2396
12148W        W27617   4.931   0.688  15.211 -0.0404  0.2037 -0.3238
12149W        W27618  15.915  11.580  15.923  0.0493 -0.0975 -0.2162
12150W        W27619  10.407  11.979   3.663 -0.1618 -0.0763 -0.0455
12151W        W27620   8.056   8.941   1.260  0.3096 -0.0811  0.4862
12152W        W27621   9.246  14.619  12.278  0.1723 -0.3644 -0.0765
12153W        W27622   6.360   2.197  12.699  0.1094 -0.0413 -0.0711
12154W        W27623  14.214   0.109  13.466  0.0073 -0.0801 -0.0012
12155W        W27624  13.340  16.283   2.112  0.0824 -0.2140 -0.3084
12156W        W27625   3.985   1.372  13.960  0.1142  0.0532  0.0676
12157W        W27626  15.730   2.699  11.159  0.1886 -0.2400  0.1261
12158W        W27627  12.971   8.167  13.208  0.1591 -0.3187 -0.2394
12159W        W27628   2.480  18.197   0.882 -0.0601 -0.0893 -0.0948
12160W        W27629   4.960  12.676   9.920  0.0231 -0.0207  0.3725
12161W        W27630  14.370  13.647  16.012 -0.1553 -0.0044 -0.4214
12162W        W27631  15.778  15.228  15.706 -0.1598  0.0235  0.1305
12163W        W27632   2.966  17.785  12.113  0.1966 -0.0150  0.0953
12164W        W27633   9.157   2.156  12.139 -0.2506  0.2698 -0.1132
12165W        W27634   9.103  16.956   0.055 -0.0401 -0.1451  0.0448
12166W        W27635   0.462  17.119  11.488  0.0144 -0.1293  0.0545
12167W        W27636  13.400  17.499   1.366  0.1624  0.0425  0.0502
12168W        W27637   0.336  11.360  15.491 -0.0737 -0.4291  0.0275
12169W        W27638   0.602   2.213  11.171  0.1091  0.2113  0.1329
12170W        W27639  14.056   4.688   1.697  0.2245  0.2329  0.0252
12171W        W27640  17.681   8.515  13.279  0.1355  0.1035 -0.1969
12172W        W27641  12.648   7.993  13.573 -0.0685 -0.2478 -0.3302
12173W        W27642   5.244  14.935   4.883 -0.2511  0.1775  0.2900
12174W        W27643   9.813   7.280   3.660 -0.1849 -0.2743 -0.1503
12175W        W27644   3.891   0.926   2.550  0.1090  0.4277 -0.1284
12176W        W27645  13.784  14.461  15.665 -0.1188  0.2130  0.1147
12177W        W27646   0.052   7.966  11.071 -0.2896  0.2368  0.1112
12178W        W27647   7.047  15.587   3.163 -0.1677  0.1415 -0.1591
12179W        W27648  13.972   0.380  11.089 -0.2051  0.1754 -0.1133
12180W        W27649  16.074   1.508   1.136 -0.0205  0.2262 -0.0448
12181W        W27650  12.535  11.342  15.592  0.0854  0.3956  0.0255
12182W        W27651  14.018   1.555  13.113  0.2231 -0.0526  0.2128
12183W        W27652  13.471  15.816   5.802 -0.1090 -0.0688  0.1574
12184W        W27653  16.947   3.451  13.712 -0.1871  0.2098  0.1494
12185W        W27654   3.779  10.425  14.429 -0.1077  0.0047 -0.4337
12186W        W27655  13.215  10.462   0.871 -0.0344 -0.0132 -0.4371
12187W        W27656   7.784   4.060   4.002  0.0567  0.0180  0.0082
12188W        W27657  12.865   1.581   1.908 -0.4181 -0.1685  0.0117
12189W        W27658   2.581  16.068  14.829 -0.2903  0.1302 -0.0114
12190W        W27659   7.543   7.398   2.369  0.0511  0.2202 -0.1079
12191W        W27660  13.207  11.182   1.827 -0.0685 -0.2416 -0.0442
12192W        W27661  14.226   4.028   1.415  0.3300 -0.0482  0.0073
12193W        W27662   6.172   0.261   1.522 -0.4304 -0.2771  0.2104
12194W        W27663   3.473  16.652   0.572 -0.1680  0.1129 -0.0972
12195W        W27664  13.888  13.047   3.446  0.0918 -0.1344  0.0001
12196W        W27665   2.771  11.079   5.069 -0.2178 -0.1283  0.0203
12197W        W27666  12.120  11.165   2.209 -0.0811  0.0376 -0.4045
12198W        W27667  10.144   9.649  14.031  0.1194 -0.0521 -0.0377
12199W        W27668   8.467  10.497   4.164 -0.2210  0.1601  0.0348
12200W        W27669   4.598  11.972  13.924  0.2966 -0.2569  0.0059
12201W        W27670   7.620   6.928  11.842  0.3649 -0.3337 -0.1685
12202W        W27671   5.696  13.357   1.448 -0.0319 -0.0897  0.3142
12203W        W27672   6.536  13.538  15.170 -0.4174 -0.1081 -0.0968
12204W        W27673  14.710   9.221   2.115 -0.0067 -0.2559 -0.2012
12205W        W27674   9.561   0.698   3.120  0.3447  0.0237 -0.0257
12206W        W27675  15.576   6.318   0.528 -0.0969 -0.1067  0.2068
12207W        W27676  13.360  15.169  12.628 -0.0464  0.3435  0.1118
12208W        W27677   7.174   1.588  11.857  0.2208 -0.2668  0.3803
12209W        W27678  10.934   3.443   1.552 -0.0372 -0.1877 -0.0065
12210W        W27679   1.842  10.133   5.064 -0.2792  0.0945  0.2472
12211W        W27680   4.299   1.918   4.767 -0.0031 -0.0288 -0.0683
12212W        W27681   6.392   3.067  11.443 -0.1430 -0.3039 -0.0639
12213W        W27682  17.681  13.289  11.181  0.4277 -0.1101  0.1015
12214W        W27683   8.093  15.849  15.278  0.0288 -0.2583  0.1418
12215W        W27684   2.382   2.091  15.531 -0.2469 -0.0034 -0.0968
12216W        W27685  11.269   3.530   0.665 -0.2854 -0.0912 -0.2339
12217W        W27686   2.486   1.155   0.962 -0.1062  0.3626  0.0535
12218W        W27687  11.810   2.183  14.369  0.0417 -0.1050  0.0994
12219W        W27688   2.633  17.620  16.103  0.3498  0.1550  0.2001
12220W        W27689   9.361   5.927   4.093  0.2866  0.2905 -0.1124
12221W        W27690  12.821  11.666   5.273  0.2463 -0.2526 -0.0179
12222W        W27691  11.818   4.791   0.739 -0.1056  0.0045  0.0280
12223W        W27692   8.060  12.497   1.582  0.1853 -0.1536  0.3745
12224W        W27693   4.352   8.492  12.106 -0.2709  0.2184 -0.1365
12225W        W27694   0.529   9.646   5.184 -0.2888 -0.0050  0.0429
12226W        W27695  13.548  16.599   4.086  0.0355 -0.1014  0.0338
12227W        W27696  11.549   3.541  13.382  0.2096 -0.3212 -0.0310
12228W        W27697   6.976  13.675   2.479  0.0983 -0.2475 -0.2713
12229W        W27698  16.423   9.274   3.143  0.3580  0.1795  0.1149
12230W        W27699  12.896   9.163   5.559 -0.1536  0.0741  0.1319
12231W        W27700   4.734   1.927  14.144  0.1339  0.1261  0.0019
12232W        W27701   1.365  12.574   1.785  0.0838 -0.0865 -0.0012
12233W        W27702  14.072  15.668  11.080  0.5069 -0.5229  0.0785
12234W        W27703   2.409   6.152   3.206  0.0779 -0.1251 -0.4500
12235W        W27704   5.354  11.089   0.653 -0.0981 -0.1391 -0.0795
12236W        W27705   6.983   1.976  10.904  0.0888 -0.0213 -0.0941
12237W        W27706   3.095  12.885   5.156  0.1091 -0.1831 -0.1012
12238W        W27707  14.822  15.771  13.360  0.1136 -0.0962 -0.0265
12239W        W27708   8.619   3.206   1.825 -0.1080 -0.0175 -0.1042
12240W        W27709  10.518  17.524  10.732 -0.1303  0.3203  0.2285
12241W        W27710   5.057  10.324  10.904 -0.0867 -0.1831 -0.4857
12242W        W27711  17.835  15.671  12.596 -0.3708 -0.3703  0.0527
12243W        W27712   1.617   6.413  15.051  0.1840 -0.0777 -0.2894
12244W        W27713  11.577   8.000   0.228  0.3925 -0.0741 -0.1720
12245W        W27714   8.822  16.122   2.569 -0.2288 -0.1741  0.2858
12246W        W27715  10.731  17.888  15.088  0.0028  0.1756  0.0530
12247W        W27716  11.766   6.730  12.094  0.1974  0.4160  0.0810
12248W        W27717  10.217  11.630  10.056 -0.0494 -0.2357  0.1204
12249W        W27718   9.635   9.066   1.094 -0.0033 -0.1578 -0.0697
12250W        W27719   9.568   2.077   1.763  0.2247  0.0665 -0.1651
12251W        W27720  12.749   1.851  15.657 -0.1520  0.1331  0.1478
12252W        W27721  17.041   6.921   1.276  0.1487 -0.0995  0.2882
12253W        W27722   8.340   6.019  13.800 -0.0380  0.0099 -0.2299
12254W        W27723   0.867   0.663  10.219 -0.0645  0.0985 -0.2017
12255W        W27724  11.282  12.648   4.569  0.0687  0.0599 -0.0224
12256W        W27725   9.087   7.418  14.925 -0.3327 -0.0896  0.3185
12257W        W27726   6.659   9.446  12.828  0.1879  0.0909  0.1896
12258W        W27727  17.135  14.587  11.515 -0.0874 -0.3404 -0.0441
12259W        W27728  11.239  14.465  11.381 -0.1909 -0.3971  0.0263
12260W        W27729  16.244   8.656   3.316  0.1293 -0.0808  0.0748
12261W        W27730   0.566   4.810   0.401 -0.4150 -0.2176 -0.0909
12262W        W27731   3.136  17.133   6.141  0.1141 -0.0523  0.0408
12263W        W27732  13.062  18.186   3.349 -0.1463 -0.1829 -0.0256
12264W        W27733  13.327  15.242  11.064 -0.0438 -0.2388  0.0429
12265W        W27734   4.918  13.102  10.952 -0.1107  0.1273  0.1206
12266W        W27735   5.177   0.689  16.029 -0.0093  0.1119 -0.2771
12267W        W27736   1.632  16.284  11.384  0.3538 -0.0068  0.0199
12268W        W27737   8.609  14.352   0.697 -0.1829  0.1560  0.1192
12269W        W27738  14.756  14.286   5.120 -0.3242  0.1351 -0.2786
12270W        W27739  13.871   3.954  15.746 -0.1903 -0.1573 -0.3147
12271W        W27740  11.995   6.317  11.968  0.1978  0.1932  0.0272
12272W        W27741  14.585   8.933  14.642 -0.2040 -0.2554  0.0257
12273W        W27742   7.760   2.239  15.963 -0.3547 -0.0602  0.0731
12274W        W27743   3.731   8.846  14.688  0.0519  0.1682 -0.1071
12275W        W27744   0.101   0.012   3.155  0.2056  0.0478  0.3342
12276W        W27745   9.704   7.003   0.751  0.0680 -0.1748  0.0412
12277W        W27746   6.309  16.752   4.146  0.2214 -0.2558  0.1441
12278W        W27747   6.492   6.516  10.761  0.1035 -0.1594  0.2476
12279W        W27748  13.021   7.819  12.273 -0.1810  0.2172  0.1888
12280W        W27749   2.072   7.078   3.414  0.0592 -0.5573 -0.0042
12281W        W27750   1.959   1.807  13.010  0.1728  0.0548  0.3110
12282W        W27751   4.408   1.332  12.653  0.4476 -0.1858  0.1130
12283W        W27752  13.356  16.403  12.576  0.1420  0.0511  0.0870
12284W        W27753   7.401   6.786  12.840 -0.1308  0.2179 -0.3578
12285W        W27754  14.561   3.477  11.315  0.0959  0.1903  0.0916
12286W        W27755   5.787  12.863   1.281  0.0305 -0.0843  0.0818
12287W        W27756  13.266   3.858  13.127 -0.0363  0.2042 -0.0081
12288W        W27757  12.485   7.873  12.440  0.1469 -0.1166  0.0671
12289W        W27758   5.486  15.980   3.666  0.1705 -0.1473 -0.2244
12290W        W27759  16.614  17.767   5.776  0.4182 -0.1417  0.0325
12291W        W27760   9.253  13.637   1.354  0.0246  0.1557 -0.0114
12292W        W27761   7.777   5.436  15.356 -0.1269 -0.1979  0.0412
12293W        W27762   2.736   4.430   2.056  0.1190  0.1315  0.1391
12294W        W27763  11.773   0.097   1.096  0.0174  0.0512 -0.1437
12295W        W27764   8.990  13.286   3.805 -0.2975  0.1097  0.0700
12296W        W27765  11.488   3.357   1.405  0.1981  0.0825 -0.1263
12297W        W27766   3.578  11.640  11.268  0.0258  0.1001  0.2162
12298W        W27767  13.630   8.691   0.605 -0.0245  0.3560  0.2077
12299W        W27768  12.360  14.492  12.677 -0.1032 -0.2039 -0.0041
12300W        W27769   3.798  10.157   4.959  0.0868 -0.1853  0.2797
12301W        W27770   3.846   3.065  12.170 -0.0116 -0.1251 -0.2773
12302W        W27771  14.083  17.339  14.933  0.1396 -0.2621 -0.0643
12303W        W27772   3.772   3.621  11.290 -0.0963  0.3132 -0.4642
12304W        W27773   7.299  11.701  15.436 -0.0485 -0.1140 -0.2783
12305W        W27774  16.498   0.941   0.521  0.0728  0.2138  0.0642
12306W        W27775   4.002   7.631  13.394 -0.0946  0.3429  0.3742
12307W        W27776  11.971  13.477  11.955  0.1275  0.0826  0.0144
12308W        W27777  15.507  15.968  15.441 -0.2777  0.2435 -0.0885
12309W        W27778  12.257   4.663   1.639 -0.0838  0.1586  0.1699
12310W        W27779   3.112   2.536  13.666 -0.0222  0.1608 -0.1477
12311W        W27780  18.011   2.914  15.228  0.1091  0.2699 -0.3472
12312W        W27781   2.245  16.634   1.264  0.1555 -0.0493 -0.2064
12313W        W27782  13.796   1.219  14.596 -0.0875  0.2220  0.1990
12314W        W27783  17.019  14.143   1.885 -0.0784 -0.0246 -0.0472
12315W        W27784   4.145   1.034  10.915 -0.0308 -0.1772  0.0405
12316W        W27785   4.456  11.279  15.620 -0.1664 -0.2612  0.3175
12317W        W27786  14.313   2.173  15.483  0.1205 -0.0777  0.1017
12318W        W27787   2.008  13.544   1.883  0.0895 -0.1130  0.0209
12319W        W27788  11.982  18.008   4.370  0.2742  0.1203 -0.0869
12320W        W27789   2.240   6.325   4.130  0.0785 -0.2073  0.1252
12321W        W27790   2.372  14.096  13.347 -0.3097  0.4658  0.0112
12322W        W27791  10.866   0.837   3.420 -0.0595  0.0710 -0.0184
12323W        W27792  13.013   0.425  13.883 -0.1348 -0.1538  0.0116
12324W        W27793   5.504   6.532   2.667  0.0796  0.3171 -0.1673
12325W        W27794  17.037   0.831   0.367 -0.0360 -0.1489 -0.0993
12326W        W27795  15.874   2.891  14.516  0.1047  0.1632 -0.1126
12327W        W27796  14.460   1.378   6.516 -0.1660 -0.0632  0.0824
12328W        W27797   5.877  17.493   2.769  0.5139 -0.1252 -0.0742
12329W        W27798   1.753   3.738  10.461  0.1314 -0.0892  0.1552
12330W        W27799  17.212   5.596  13.228  0.0078 -0.1116 -0.2585
12331W        W27800   7.144   0.478   0.112  0.0441 -0.0937 -0.0638
12332W        W27801  11.092  10.043   4.600  0.4579  0.0397  0.2135
12333W        W27802   7.988  16.740  10.534 -0.0943 -0.0708  0.0566
12334W        W27803   1.382   3.230  12.379  0.0143  0.3373  0.0085
12335W        W27804   7.559   4.018   3.558  0.4095 -0.0903  0.0967
12336W        W27805   3.998  13.320  12.635  0.2033  0.1934  0.1337
12337W        W27806   7.501   5.539  12.022  0.1248  0.1833 -0.0317
12338W        W27807  12.736  10.287   1.273 -0.0632  0.3189 -0.0507
12339W        W27808   5.964   0.111  15.749 -0.1360  0.1514 -0.2603
12340W        W27809   3.354  15.146  12.030 -0.1132 -0.1623  0.0389
12341W        W27810   3.082   6.630   0.269 -0.1671  0.2157 -0.1300
12342W        W27811   3.452   0.415  11.473  0.0982  0.0806 -0.2199
12343W        W27812  15.737  14.789   1.517  0.1337  0.4542  0.1918
12344W        W27813  10.105  12.712   4.456 -0.2314 -0.1925 -0.2478
12345W        W27814  10.836   4.182  16.088 -0.0816 -0.0616  0.1095
12346W        W27815   1.933  13.339   4.098 -0.1082  0.0505 -0.1130
12347W        W27816  15.380  17.607  14.520  0.0963  0.1282  0.0429
12348W        W27817   5.246   4.738   4.109 -0.0080  0.2074  0.4697
12349W        W27818   2.123  12.456  13.348  0.1192  0.1567  0.1984
12350W        W27819  16.993  11.674   0.436 -0.3336 -0.2430  0.3464
12351W        W27820  12.288  16.982  13.964  0.1602  0.1293  0.0849
12352W        W27821  11.904   8.546  13.486 -0.1162  0.4258 -0.4018
12353W        W27822  11.156   0.546   5.377  0.0753  0.0685  0.2476
12354W        W27823   2.524   0.374  11.049  0.1944  0.1697 -0.0228
12355W        W27824   0.984   7.118  14.907  0.1159  0.0563 -0.1372
12356W        W27825   9.511  15.294   0.045 -0.0525  0.0885 -0.2871
12357W        W27826   7.870   6.520  11.580 -0.2567 -0.0573 -0.0013
12358W        W27827   1.678  12.832   0.106  0.3178  0.1989 -0.0094
12359W        W27828   3.041   5.742   1.953 -0.2068 -0.0026  0.0209
12360W        W27829  16.775  13.870   4.665 -0.1015  0.0722 -0.0459
12361W        W27830   2.410   5.750  12.426 -0.0873  0.0667  0.0254
12362W        W27831  17.909   8.234   0.028 -0.1687  0.0293 -0.2924
12363W        W27832  10.077   1.396  16.099  0.0892 -0.1917 -0.0930
12364W        W27833   0.070   0.199   0.292 -0.3015  0.3019 -0.0454
12365W        W27834  12.373   0.747  15.498 -0.0752  0.0539 -0.0824
12366W        W27835   8.475  10.053   1.621  0.0356  0.0569 -0.0682
12367W        W27836   0.388  13.092  12.574 -0.0691 -0.0467  0.1612
12368W        W27837   7.075  17.585   4.047 -0.2441  0.1366  0.0964
12369W        W27838  12.340  10.605   1.407 -0.2789  0.2884 -0.1583
12370W        W27839  15.448  12.468  13.190  0.1207 -0.0729  0.1907
12371W        W27840   5.655   2.856  13.133  0.1082  0.1109  0.0988
12372W        W27841  14.375   5.231  12.084 -0.2498 -0.1590  0.2094
12373W        W27842   6.961  11.408  14.654  0.2883 -0.0481 -0.0102
12374W        W27843   3.345   4.589   1.231  0.3999  0.0706 -0.2008
12375W        W27844   8.668  10.553   0.170  0.0497  0.0971 -0.2208
12376W        W27845   6.908   3.656   0.686 -0.1849 -0.0250  0.1899
12377W        W27846   2.538   1.133   1.520 -0.0793 -0.1912 -0.1788
12378W        W27847   4.206   4.110   1.071  0.0052 -0.1893 -0.1272
12379W        W27848   5.223  18.254  12.874  0.2384 -0.0238 -0.0156
12380W        W27849  12.269  16.765   5.378  0.1057  0.1520 -0.1220
12381W        W27850   2.081  13.567  10.760  0.0433  0.0105  0.1728
12382W        W27851   0.088   5.285  13.819 -0.1164 -0.2301  0.0107
12383W        W27852   4.499  10.615  11.088 -0.0721  0.0947  0.1907
12384W        W27853   7.797   6.526  13.083  0.2980 -0.0049 -0.1023
12385W        W27854   6.359   3.156   4.390  0.2193 -0.0796  0.2019
12386W        W27855  14.751  14.871   1.189  0.3585 -0.1332  0.0003
12387W        W27856  14.093   3.832  12.598 -0.0361 -0.0249 -0.1534
12388W        W27857  14.580  17.374  15.035  0.0395 -0.4362  0.1751
12389W        W27858  10.511   6.790   4.807  0.0494 -0.0175 -0.2450
12390W        W27859   4.041  13.125  13.086 -0.0317  0.2681 -0.1485
12391W        W27860   4.950  16.874  15.008  0.0105 -0.5046 -0.0947
12392W        W27861  13.009  14.214   0.257  0.0908  0.1072 -0.0505
12393W        W27862  14.235   2.651  13.069 -0.1446  0.0908 -0.0636
12394W        W27863   3.537   1.964   0.950 -0.0278  0.2100  0.0374
12395W        W27864  13.622  17.465   3.833  0.0765  0.2024 -0.4101
12396W        W27865  14.818   0.288  15.575 -0.0945  0.0921  0.0941
12397W        W27866  10.266   5.182   0.774  0.1175 -0.1382  0.2297
12398W        W27867  10.701  16.937  14.103 -0.1724  0.0742  0.2988
12399W        W27868  11.686   1.988   2.660 -0.0367  0.1403  0.1245
12400W        W27869   1.083  15.816   5.622  0.0111  0.0462 -0.1677
12401W        W27870   1.641   1.521   2.541 -0.0115 -0.1745 -0.0206
12402W        W27871   6.525   7.939   0.215 -0.1430 -0.0539  0.0301
12403W        W27872   9.626  11.948   0.311 -0.1899 -0.0855  0.4750
12404W        W27873   1.440   7.270  14.397 -0.2744 -0.0887  0.0634
12405W        W27874  13.816   3.712  14.444  0.0658  0.0547  0.0602
12406W        W27875   8.050   7.382  14.824 -0.1271 -0.0606 -0.4300
12407W        W27876  15.532   5.425  11.757 -0.0607  0.1399 -0.0038
12408W        W27877   9.223  17.715   1.828  0.2314  0.0284 -0.2421
12409W        W27878   5.570   5.435  14.612  0.1239 -0.0173  0.0299
12410W        W27879   0.676   6.159   1.343  0.5661  0.2092 -0.0370
12411W        W27880  16.979  10.937  11.750 -0.0762 -0.1384 -0.3500
12412W        W27881  12.105  12.994  15.335  0.0654 -0.1043  0.1388
12413W        W27882   9.966  16.090   2.231  0.3763  0.0431  0.2605
12414W        W27883   3.622   7.982   4.106  0.2377 -0.1503 -0.1654
12415W        W27884   1.459  14.434   0.363  0.0839  0.2192 -0.0092
12416W        W27885   2.523  16.636   4.945  0.1237 -0.1448 -0.0269
12417W        W27886   4.180   2.369   0.369 -0.0103 -0.0499  0.0673
12418W        W27887   2.938  16.552  16.107 -0.0872 -0.1145 -0.1197
12419W        W27888   7.308   8.638  10.875 -0.0277  0.0160 -0.0199
12420W        W27889  17.318  16.895  12.903  0.1971  0.0692  0.0793
12421W        W27890   1.657   7.792  15.360  0.0186 -0.1931  0.2087
12422W        W27891   2.229   8.880   2.670 -0.1811 -0.1794 -0.0170
12423W        W27892   9.494   8.962  11.707 -0.0685  0.0840 -0.0161
12424W        W27893   5.576   1.900  13.201 -0.1743  0.1148 -0.0582
12425W        W27894  12.274   4.895   3.915  0.2970 -0.0895  0.1268
12426W        W27895   0.857  16.772   0.178  0.1355 -0.0136  0.0308
12427W        W27896   1.148   8.231   3.216 -0.3324 -0.2261 -0.1487
12428W        W27897   8.210  12.859   4.988  0.0765 -0.1605  0.2250
12429W        W27898   4.605  13.639  15.556  0.1727 -0.1451 -0.2245
12430W        W27899  10.181  16.425  12.375 -0.3849  0.1124 -0.3123
12431W        W27900   1.668   9.869   3.817  0.0022 -0.0182  0.1447
12432W        W27901  17.419   3.382   5.104  0.3446  0.3207  0.0190
12433W        W27902   0.986   9.701   4.419  0.3598 -0.0280 -0.0319
12434W        W27903  15.302  13.042  11.269 -0.1888  0.0778 -0.2103
12435W        W27904  11.278   6.504  11.433 -0.0885 -0.0726  0.3020
12436W        W27905  15.108   1.248   3.867  0.2330  0.2358  0.1139
12437W        W27906  14.391  16.663   0.420 -0.0055  0.4402  0.0218
12438W        W27907  17.244  16.319   4.561  0.0046 -0.0730 -0.1771
12439W        W27908   6.617  14.462  13.347 -0.0343  0.0926  0.2023
12440W        W27909  12.149   5.921  11.538 -0.4312 -0.2287  0.1434
12441W        W27910  16.204   5.974  15.611 -0.1087  0.1675  0.1866
12442W        W27911  11.913   7.975  10.179  0.2503 -0.0510  0.1731
12443W        W27912   4.874  16.755   0.386  0.0601  0.1352 -0.0549
12444W        W27913   0.351   6.691  10.772 -0.1793  0.1668  0.2359
12445W        W27914   4.663  17.927  13.726 -0.1845  0.2221  0.0666
12446W        W27915   3.037  12.862   2.384 -0.0899 -0.3581  0.0909
12447W        W27916  11.932  14.991  15.138  0.2366  0.1898  0.0258
12448W        W27917   0.146   1.708   2.030  0.1335  0.0955 -0.0158
12449W        W27918  10.088  14.085  13.675 -0.1151 -0.2070  0.0960
12450W        W27919  10.256   2.248   3.578  0.0245 -0.1019 -0.0795
12451W        W27920   8.427   2.815   2.203 -0.1729 -0.0430 -0.1279
12452W        W27921   0.110   9.320  12.651  0.1045  0.1273  0.0633
12453W        W27922  15.253  16.705   1.470  0.0248  0.1354  0.0210
12454W        W27923  15.163  16.618   4.810  0.0809 -0.1468 -0.0237
12455W        W27924   6.821  10.386   4.459 -0.1944 -0.0490  0.1789
12456W        W27925  15.591   1.561  12.900 -0.0364  0.1039 -0.0388
12457W        W27926  10.509  17.339  15.817 -0.0390 -0.1312 -0.1839
12458W        W27927   6.469   6.538  14.552  0.0211 -0.0911 -0.0300
12459W        W27928  15.757  10.518  11.901 -0.2317  0.3344 -0.4135
12460W        W27929  12.318   7.700   1.186 -0.3715  0.2703 -0.3835
12461W        W27930   0.854  15.757  15.560 -0.1237  0.0724 -0.0565
12462W        W27931  16.013  11.868  15.039  0.1255  0.2833  0.1036
12463W        W27932   5.425   7.748  15.427 -0.0833 -0.0232 -0.0153
12464W        W27933  13.582  15.468   4.810  0.0127  0.0872 -0.1111
12465W        W27934  15.041  16.999   3.166 -0.2155  0.0100 -0.0217
12466W        W27935   6.442   4.538   4.408 -0.5252 -0.1778  0.0537
12467W        W27936   0.589   6.444   4.875 -0.1483 -0.2349  0.1878
12468W        W27937  16.406   3.653  14.744 -0.1339 -0.4277  0.1059
12469W        W27938   0.514  13.966  14.930  0.2178  0.1385  0.2910
12470W        W27939  17.515   7.827  12.104 -0.0096  0.2607  0.1397
12471W        W27940   6.947   3.802  15.170 -0.1234 -0.0509  0.1445
12472W        W27941  10.856  16.857   1.992 -0.0610 -0.0570  0.1112
12473W        W27942   5.689  10.206  13.889 -0.0965  0.1525 -0.2382
12474W        W27943   3.644  12.269  14.826  0.0651  0.0348  0.0954
12475W        W27944   1.699  16.960   4.473  0.0547  0.0665  0.1310
12476W        W27945   3.695   1.669   4.635  0.1493 -0.1250 -0.1689
12477W        W27946  15.082  12.822  15.009 -0.2541  0.1379 -0.1617
12478W        W27947  14.481  15.941   5.171  0.0084 -0.1763 -0.0577
12479W        W27948   5.620   0.479   4.230 -0.1327  0.1538 -0.0157
12480W        W27949   0.997  16.712   5.191  0.0292 -0.1797 -0.3088
12481W        W27950   6.326   4.520   9.475  0.1635  0.1626 -0.1070
12482W        W27951  16.681  12.800   2.127 -0.0776  0.1985  0.2702
12483W        W27952   1.481  18.088   2.304  0.0552  0.0296  0.0156
12484W        W27953   4.072   3.921   3.598  0.3657  0.2391  0.2012
12485W        W27954  12.174  10.433  12.670  0.1549  0.1699 -0.2237
12486W        W27955   2.792   0.558   0.425  0.1537 -0.0410 -0.2162
12487W        W27956   1.138   7.927  12.157  0.1488  0.2261 -0.2868
12488W        W27957   2.379  17.720   0.830 -0.0553 -0.1756 -0.2155
12489W        W27958   8.350   3.433  11.346 -0.0878 -0.1744 -0.0022
12490W        W27959  17.402   9.838   1.689 -0.2424  0.0576  0.3138
12491W        W27960  16.892   9.184  13.474  0.0713  0.0120  0.0987
12492W        W27961   9.356  18.224   3.177  0.2983 -0.0177 -0.0877
12493W        W27962   0.000   5.365  14.894  0.0054  0.0408  0.0746
12494W        W27963   7.785   7.033  13.126 -0.1550 -0.1643  0.1274
12495W        W27964  14.604   7.750   2.489  0.0357  0.3603  0.0741
12496W        W27965  17.698  16.871  12.595  0.1750  0.0823 -0.1420
12497W        W27966  12.289   9.131  11.250 -0.3593 -0.0961  0.2558
12498W        W27967  15.003   0.177   1.836  0.0439  0.1043 -0.3115
12499W        W27968  13.014   7.020   0.726  0.0157 -0.0431  0.2052
12500W        W27969   0.079   1.915  15.088 -0.0140 -0.0316 -0.1142
12501W        W27970   2.196   1.632   4.147 -0.1962  0.2702 -0.0260
12502W        W27971  15.100   3.438   5.180  0.2629  0.0608 -0.2180
12503W        W27972  12.924   6.359  14.500  0.0248  0.2867 -0.0236
12504W        W27973   3.235  17.397  11.883 -0.0061 -0.1233  0.1081
12505W        W27974   0.373   4.405   3.157  0.3999  0.1094 -0.0070
12506W        W27975  15.584   7.476   3.649  0.1171  0.2392  0.0779
12507W        W27976   0.905  12.257  11.511  0.0074 -0.2399  0.1475
12508W        W27977   3.589  12.764  14.990 -0.1505  0.1963 -0.0381
12509W        W27978   4.278  18.214   4.277 -0.1159 -0.1005 -0.2984
12510W        W27979  10.707  10.658   5.021 -0.0343  0.2168  0.1905
12511W        W27980  10.993   8.280   5.158 -0.1091  0.0784 -0.0916
12512W        W27981  10.657   9.675   3.953 -0.2183  0.1031  0.2224
12513W        W27982  14.117   0.279  12.069 -0.0983  0.2971 -0.1446
12514W        W27983  14.919   3.246  11.583  0.2332 -0.1735 -0.0340
12515W        W27984   6.102  17.444   0.461 -0.0675 -0.5592 -0.0949
12516W        W27985   4.999  16.213  13.667  0.1215  0.0736 -0.1753
12517W        W27986   2.599  13.947   3.678 -0.1789 -0.1287 -0.3642
12518W        W27987  14.192   7.969   2.228  0.0275  0.3758 -0.0406
12519W        W27988  14.755   6.215   3.499 -0.1673  0.1810  0.1204
12520W        W27989  12.516   0.092  12.738 -0.1202  0.1283 -0.0486
12521W        W27990   9.507  13.301   3.622  0.0128  0.3450  0.2241
12522W        W27991   3.346   6.351  14.872  0.2874 -0.2077  0.0783
12523W        W27992  13.683   1.300   2.605  0.1148 -0.3296  0.1266
12524W        W27993  13.135   5.773  14.267 -0.1967 -0.0855  0.1719
12525W        W27994   1.378   8.185  10.955 -0.2366  0.0689  0.3251
12526W        W27995   0.001   2.445  12.604 -0.0473 -0.0783 -0.2839
12527W        W27996   9.885  14.109  13.138 -0.0009 -0.0546  0.0072
12528W        W27997   2.096  14.886   4.958 -0.1060 -0.2951 -0.4188
12529W        W27998   6.677  14.750  12.909  0.0889  0.2373 -0.1791
12530W        W27999   6.765  14.786   1.733 -0.1260 -0.1678 -0.3710
12531W        W28000   7.482  16.221   1.423  0.0726 -0.0012 -0.0330
12532W        W28001   9.205  10.727  14.764  0.3509 -0.0988  0.4606
12533W        W28002   7.038   2.782   4.335  0.0657 -0.3624 -0.0871
12534W        W28003   1.273  15.266   4.978  0.1597 -0.0883  0.1442
12535W        W28004  13.338  13.645   1.192  0.0482 -0.2455  0.1551
12536W        W28005  15.788   1.883   3.959  0.1086 -0.0005 -0.0964
12537W        W28006   1.595   4.552   0.480 -0.3336  0.2358  0.1652
12538W        W28007   7.751   3.988  15.753 -0.0538  0.2019 -0.0785
12539W        W28008  15.295   0.910   3.393 -0.1710  0.2460  0.3736
12540W        W28009   3.425   2.233  14.154  0.0313  0.3351  0.2727
12541W        W28010   2.909  16.999  11.940  0.1261 -0.0223 -0.2290
12542W        W28011   5.946   1.408   4.713  0.0697 -0.4036  0.0262
12543W        W28012  11.820  10.296   4.856 -0.5539  0.0959  0.2850
12544W        W28013   3.936   5.076  14.791  0.2490  0.3360 -0.0258
12545W        W28014   0.107   1.366  13.621  0.1932  0.0311  0.0093
12546W        W28015   4.735   8.947   4.371 -0.1451 -0.1764 -0.1721
12547W        W28016   7.516  16.849   0.575  0.0468  0.0533  0.0003
12548W        W28017   0.651   3.590   3.897  0.0006 -0.0177 -0.0042
12549W        W28018   8.484   5.407  15.272 -0.0152 -0.0047  0.2935
12550W        W28019  10.067   1.476  12.028  0.0517  0.1380  0.2600
12551W        W28020   6.921  18.184   4.003 -0.2796 -0.0142  0.1107
12552W        W28021  17.409  11.888  13.214  0.2118  0.1299 -0.1279
12553W        W28022  13.716  10.234   1.707  0.0407  0.1426  0.0741
12554W        W28023  16.289   4.894   3.842  0.0936 -0.0333  0.1647
12555W        W28024  16.325  14.893   5.761 -0.0269 -0.4645  0.0490
12556W        W28025  18.111   2.597  14.022  0.0047  0.2454 -0.0268
12557W        W28026   5.732  17.862  14.451 -0.0226 -0.0444 -0.2457
12558W        W28027   8.650  17.321   0.642  0.2428  0.2395  0.0215
12559W        W28028   6.647   6.127  12.950 -0.4197 -0.0960 -0.1270
12560W        W28029  15.907   9.226  11.936  0.0267  0.0869 -0.0890
12561W        W28030   5.748   4.914  11.248  0.0150 -0.1629  0.0911
12562W        W28031   3.672   0.691  12.291  0.1085  0.1564  0.1963
12563W        W28032  14.672  11.234   0.592 -0.1687 -0.2225 -0.2644
12564W        W28033  17.231  16.304   5.061 -0.3013 -0.0644 -0.0547
12565W        W28034  16.580   5.986   5.062  0.0926  0.0114 -0.1251
12566W        W28035  18.145   5.570  13.454  0.4239  0.4247 -0.1427
12567W        W28036  13.289   8.019   4.147 -0.0766  0.3277  0.1294
12568W        W28037  12.257  11.001   1.660 -0.1727  0.1524  0.1154
12569W        W28038  16.931   1.980   0.079  0.1066  0.2698  0.1487
12570W        W28039  11.293   9.194   4.300 -0.1082  0.1924 -0.1795
12571W        W28040  17.444   7.784   3.212  0.0593  0.1203  0.0105
12572W        W28041   9.794   0.742  12.928 -0.1899  0.0385  0.1720
12573W        W28042   3.179  16.087   5.117 -0.2620 -0.1258  0.1710
12574W        W28043  16.210   1.049   1.391  0.0859 -0.0513 -0.0941
12575W        W28044   1.431   9.728  13.955  0.1242 -0.1641 -0.0286
12576W        W28045   9.244  15.502  12.306  0.0216 -0.0003 -0.2560
12577W        W28046   3.922  12.716  13.968 -0.1423  0.2321  0.0724
12578W        W28047  14.190  13.464  12.765  0.0113 -0.0939  0.1788
12579W        W28048  13.564   8.783   5.175 -0.0850 -0.0607  0.2330
12580W        W28049  15.808   4.820  12.116 -0.0611  0.3933 -0.0444
12581W        W28050  17.944   5.754  12.052 -0.1158  0.0179  0.1201
12582W        W28051   5.095  17.274  12.066 -0.0913 -0.0806 -0.1618
12583W        W28052  16.713   4.485   1.036  0.0519 -0.0577 -0.1440
12584W        W28053   9.234   6.656  12.225  0.5092 -0.0988 -0.3905
12585W        W28054   0.106   2.564   1.425  0.0415  0.0290 -0.1257
12586W        W28055  11.511  15.933  14.193 -0.1322 -0.0950  0.3899
12587W        W28056  10.201  10.458   3.437  0.1996  0.1709  0.0025
12588W        W28057  15.629  11.194   2.858 -0.3550 -0.0666  0.0400
12589W        W28058  17.657   2.292  11.935  0.1936 -0.2442  0.0363
12590W        W28059   2.675   1.837  14.638 -0.1961 -0.0869  0.1257
12591W        W28060   0.965   6.424  11.268  0.1084 -0.0217 -0.0370
12592W        W28061   6.124  16.748   3.250 -0.1390  0.2304  0.0982
12593W        W28062   9.349  15.871  14.293  0.1940 -0.1485  0.1373
12594W        W28063  15.461   4.053  13.646 -0.2956  0.0192  0.1100
12595W        W28064  12.839   8.688  14.850 -0.3102 -0.1058 -0.0226
12596W        W28065   7.546  13.225  15.008  0.1164 -0.1790  0.0286
12597W        W28066   3.862   7.002   0.600 -0.0877 -0.0030  0.1142
12598W        W28067  15.924   2.500  11.721  0.1385  0.0507 -0.1003
12599W        W28068   1.489  13.835  14.422 -0.2625  0.3230  0.0846
12600W        W28069   9.828  17.324   3.283 -0.1114  0.0437 -0.0283
12601W        W28070   7.895  18.249  11.947 -0.1004 -0.3652 -0.1434
12602W        W28071   0.592  12.171   3.488 -0.3810  0.1931 -0.1898
12603W        W28072  14.692   9.437  15.503 -0.0087 -0.1149  0.0646
12604W        W28073   6.267   1.559   4.162  0.1833  0.0334 -0.3420
12605W        W28074  13.441   3.316   1.339  0.0640  0.3374 -0.0094
12606W        W28075  13.598  16.725   2.021  0.5377  0.0694  0.0564
12607W        W28076  13.839   9.230  12.525 -0.1049  0.1884 -0.0530
12608W        W28077   8.581  12.604   2.016  0.0564 -0.1512  0.1050
12609W        W28078   3.488   9.866   0.588 -0.1024 -0.1814 -0.2090
12610W        W28079  16.852   5.965   0.839 -0.0881  0.1021  0.1417
12611W        W28080   2.379  17.139   2.330 -0.0319  0.0310 -0.3522
12612W        W28081   1.628   8.977   4.500 -0.0054  0.1155 -0.0155
12613W        W28082   7.688  11.167  15.640 -0.0326  0.1062  0.1031
12614W        W28083  11.357   1.346   0.388 -0.0508  0.1070 -0.5629
12615W        W28084   3.466   7.886   1.311  0.0475  0.0396  0.1448
12616W        W28085   5.345  16.116  11.664 -0.1892 -0.0285 -0.0186
12617W        W28086   3.958   0.722   3.032 -0.2170  0.3212  0.1084
12618W        W28087   0.843   0.335   3.644  0.1240 -0.0088  0.0612
12619W        W28088   0.955  10.230  13.150  0.2713 -0.2040 -0.0405
12620W        W28089   4.379   3.377   3.501  0.2119  0.1083  0.1599
12621W        W28090   7.960   4.019  10.736  0.0321  0.1071 -0.1278
12622W        W28091  18.077  17.577   4.211 -0.2887 -0.1706  0.0346
12623W        W28092   8.463  17.286  14.214 -0.0664  0.2947  0.0403
12624W        W28093  12.845  15.685   0.409 -0.1951  0.1318 -0.1079
12625W        W28094   8.056   5.594  13.727 -0.0917 -0.2067 -0.1284
12626W        W28095  14.728   5.073   3.938  0.2536 -0.2215  0.0016
12627W        W28096   9.136   5.231   2.753 -0.0212  0.0122  0.0425
12628W        W28097  17.213  13.837   4.915 -0.3930 -0.0445 -0.1337
12629W        W28098   7.480  15.370   2.270 -0.0673 -0.0937 -0.4698
12630W        W28099  11.562   9.734  15.699  0.1576  0.0376  0.0098
12631W        W28100   9.628  16.827  11.217 -0.2316  0.0737  0.1226
12632W        W28101  18.119  10.412  14.127 -0.0776 -0.0437 -0.0717
12633W        W28102   4.155  18.241  13.732 -0.0707  0.1415  0.1924
12634W        W28103  16.762  15.870   0.816  0.1149 -0.0794 -0.2463
12635W        W28104   5.859   0.180   3.907 -0.0296 -0.1531 -0.0954
12636W        W28105  13.741  13.618  14.107 -0.0760 -0.1935 -0.2820
12637W        W28106  11.427  11.976  11.664  0.1786  0.2878 -0.1459
12638W        W28107   3.247   1.299  14.877  0.1905  0.1335 -0.0578
12639W        W28108   6.745  16.290   4.367  0.3539 -0.0283 -0.0942
12640W        W28109  12.409  11.553   4.060  0.3545 -0.1289  0.0863
12641W        W28110   4.063   3.497  13.947 -0.2874 -0.0645  0.2049
12642W        W28111   5.501   4.687  12.884  0.1247 -0.2219  0.3046
12643W        W28112  11.325   6.697   2.695  0.1541 -0.1581 -0.0895
12644W        W28113   4.876  10.410   1.883  0.0413  0.0727  0.0179
12645W        W28114   9.208  17.200  12.343  0.1304 -0.0715 -0.1853
12646W        W28115   7.349  17.045  14.501 -0.1564  0.1027  0.1287
12647W        W28116   3.923   6.450   4.368 -0.0301  0.1541 -0.3509
12648W        W28117   4.219   3.777  12.012  0.0679  0.1816  0.1328
12649W        W28118   5.670   1.443  15.882 -0.2097  0.2491 -0.1877
12650W        W28119   3.795   7.333   0.233  0.3890  0.1385  0.3284
12651W        W28120  18.169   2.986   4.483  0.1775 -0.1047  0.2514
12652W        W28121  11.429   5.757   2.658  0.1081 -0.2783  0.1559
12653W        W28122   8.339  17.681  12.006 -0.0824  0.1136 -0.0893
12654W        W28123   2.455  14.663   1.320 -0.0148 -0.2009 -0.0836
12655W        W28124   3.151   2.988   1.807 -0.0236  0.2633  0.2529
12656W        W28125   2.738   1.367  14.847  0.1220 -0.3104 -0.2803
12657W        W28126   3.955   3.493   3.887  0.0714  0.1378  0.0175
12658W        W28127  12.132  14.337   2.404  0.0428  0.1452 -0.1166
12659W        W28128   3.692  16.105  14.984  0.2405  0.0747 -0.0047
12660W        W28129  15.019  15.716   2.023  0.0220 -0.0687 -0.0043
12661W        W28130  14.584  15.460   4.950  0.2633 -0.3148 -0.2345
12662W        W28131   1.329  16.633   4.353  0.0261 -0.0147  0.0291
12663W        W28132  17.584   5.643  15.418  0.1039 -0.0633  0.2207
12664W        W28133   9.383   1.425  14.141  0.1323 -0.0680  0.1246
12665W        W28134   5.019   7.426  11.901  0.0613 -0.0243 -0.0644
12666W        W28135  15.762  15.849  15.041  0.2592 -0.2062 -0.1588
12667W        W28136   9.755  13.281   0.108  0.1394 -0.1344  0.0253
12668W        W28137   8.298  15.523  12.866 -0.1926  0.0197  0.0548
12669W        W28138   6.055   2.401   3.915  0.0403 -0.0023  0.0995
12670W        W28139  14.279  11.262   3.668 -0.0610  0.3079 -0.0010
12671W        W28140   5.386   0.580   0.813 -0.0900 -0.1418 -0.2664
12672W        W28141   9.127   7.008  12.814 -0.0386 -0.0040  0.0240
12673W        W28142   8.717   5.521  11.913 -0.1474  0.1391  0.1162
12674W        W28143   9.051  16.131  13.100 -0.0849  0.0120  0.1735
12675W        W28144  11.955  12.941  12.789 -0.1242 -0.1817  0.3876
12676W        W28145   8.923  16.739   3.434 -0.0150 -0.4230 -0.1922
12677W        W28146  10.870   9.997   0.770 -0.0966 -0.1697  0.2198
12678W        W28147  10.615   9.971   4.521  0.0101  0.0722  0.0482
12679W        W28148   7.382   6.393   1.515 -0.0797  0.1362 -0.2496
12680W        W28149  13.547  16.268  15.061  0.1236  0.0081  0.1215
12681W        W28150   9.274   6.352   1.716 -0.0394  0.2325  0.0228
12682W        W28151  16.747  12.386  11.621 -0.0745 -0.2161  0.0280
12683W        W28152   4.775  11.663   4.274  0.0499 -0.1763  0.1984
12684W        W28153  10.079  14.118   5.002  0.0549  0.0591 -0.0075
12685W        W28154   4.024  10.281  10.717 -0.2208 -0.1434  0.1608
12686W        W28155   5.592   4.835   1.985  0.1295 -0.2264 -0.0653
12687W        W28156  17.633   2.840   1.537  0.0493  0.0195 -0.1631
12688W        W28157  13.070   9.188  12.111 -0.1932  0.0438 -0.2987
12689W        W28158  11.894  14.840   0.880 -0.2532 -0.0461 -0.0212
12690W        W28159   7.000   7.438   3.775  0.1189  0.2136 -0.1067
12691W        W28160   3.816  11.108  11.168 -0.0901  0.1143 -0.1189
12692W        W28161  17.139   2.872   1.615  0.3405  0.0233  0.0232
12693W        W28162   4.580   2.432   3.470 -0.0097  0.0566 -0.1268
12694W        W28163  17.784  12.878  12.162  0.1148 -0.0461 -0.2168
12695W        W28164   5.718   1.650   5.126  0.0890  0.0007  0.0486
12696W        W28165  12.887   7.781  14.454  0.1951 -0.0394 -0.0570
12697W        W28166   3.117   1.532  13.460  0.0157 -0.2430 -0.0437
12698W        W28167  15.618   6.994   1.676 -0.0968 -0.0799 -0.1205
12699W        W28168   3.464   9.362   3.765 -0.2792 -0.3545  0.0795
12700W        W28169  16.102  12.165   4.701  0.4003  0.4150  0.1139
12701W        W28170  17.881  10.178  12.758 -0.2733 -0.0733  0.1755
12702W        W28171   3.052   7.345  12.742 -0.3382  0.1776 -0.1349
12703W        W28172   1.194   8.795  14.614  0.0141 -0.1803 -0.1703
12704W        W28173   2.920   1.230  15.953  0.0572 -0.0852  0.2764
12705W        W28174   9.121   8.622  14.340 -0.2757 -0.1283  0.2110
12706W        W28175   9.251   9.191   2.506  0.1848 -0.0896  0.1317
12707W        W28176   7.137  13.091   0.528  0.0966 -0.0152 -0.0664
12708W        W28177  10.472  17.126  11.765  0.0255 -0.1188 -0.0810
12709W        W28178   0.041   1.597  13.122  0.0154  0.2819  0.0724
12710W        W28179   3.528   8.248   4.574 -0.1179 -0.0481 -0.0739
12711W        W28180   3.146  16.397   1.430  0.0956 -0.0718 -0.1536
12712W        W28181  16.831   6.915   0.811 -0.0240 -0.0590 -0.1762
12713W        W28182   2.814  11.975   3.441  0.1263 -0.1424 -0.2080
12714W        W28183   2.869   0.319  12.049 -0.0062  0.2195 -0.1139
12715W        W28184  13.085   7.255  15.095  0.2630 -0.2040  0.2510
12716W        W28185  15.249   0.219  13.487 -0.0484 -0.1351 -0.1912
12717W        W28186   7.542  14.055  11.613 -0.5962 -0.1574 -0.3401
12718W        W28187   4.440  16.571   2.548  0.0429  0.0715  0.0116
12719W        W28188   1.619   7.085   3.253  0.0111 -0.2382  0.3864
12720W        W28189  15.710   8.503  13.614  0.0656 -0.0793  0.0550
12721W        W28190  11.622   7.176   0.946  0.2040 -0.0909 -0.3255
12722W        W28191   8.976  16.482  14.268  0.1758 -0.1244  0.3159
12723W        W28192   1.986  10.964  15.506  0.2345  0.3866  0.0135
12724W        W28193   2.940   0.126   5.742 -0.1663 -0.3547  0.1000
12725W        W28194  12.917   4.997  14.359  0.1455  0.0838 -0.0221
12726W        W28195   1.395   0.348   6.821 -0.3748 -0.3625 -0.1253
12727W        W28196   2.773   6.794  10.571 -0.0159 -0.0787  0.1920
12728W        W28197  16.112   1.698   2.629  0.6488  0.0502 -0.2062
12729W        W28198  14.934  17.426   3.466 -0.2411 -0.0369 -0.1533
12730W        W28199   7.832   6.923   4.179 -0.0452  0.1287 -0.0252
12731W        W28200   9.314   8.539  13.055  0.3628  0.4000 -0.1442
12732W        W28201   3.461   6.720   4.651 -0.2224  0.1679  0.0679
12733W        W28202   7.227   4.805   2.154  0.0203  0.1948  0.0150
12734W        W28203  11.982  12.364  14.867 -0.0424  0.0616 -0.2913
12735W        W28204  11.000  15.706  12.818 -0.2720  0.1637  0.0441
12736W        W28205  12.076   2.008  11.584 -0.0780  0.1466 -0.0463
12737W        W28206  10.745  16.915   4.262 -0.1202  0.1084  0.1476
12738W        W28207   2.257   5.015  13.987 -0.4507 -0.1596 -0.0003
12739W        W28208   0.382   8.473   2.968  0.0966 -0.1679 -0.2705
12740W        W28209   6.558  10.130  15.452  0.0268 -0.1661  0.1073
12741W        W28210   6.032  15.421  11.343  0.0287  0.1366 -0.1047
12742W        W28211   7.346   2.679   3.507  0.1201  0.0559 -0.1407
12743W        W28212   4.568   6.541  15.952 -0.1166 -0.2593  0.0436
12744W        W28213  12.766  17.251  12.997 -0.1837  0.0249  0.0849
12745W        W28214   1.055  17.086   4.348 -0.2694  0.1742 -0.1696
12746W        W28215   6.503  16.191  13.120  0.5021 -0.1814 -0.1924
12747W        W28216   9.273   4.461   2.084 -0.2339 -0.0972 -0.1142
12748W        W28217  12.081  11.984  12.351  0.1707 -0.0065  0.1013
12749W        W28218   6.769   5.412   3.815 -0.2671 -0.0668 -0.3577
12750W        W28219   9.026  12.986   1.916  0.5253 -0.2288  0.1005
12751W        W28220   4.587   0.331   1.217  0.2091  0.1766 -0.0945
12752W        W28221  11.243  11.959  12.109 -0.1520  0.2792  0.0865
12753W        W28222   2.238   7.548   1.266  0.1892  0.1935  0.1306
12754W        W28223   2.809  11.687  13.503 -0.5133 -0.4325  0.1830
12755W        W28224  10.285  10.934   3.435 -0.0512 -0.0198 -0.2072
12756W        W28225  14.616  13.325  15.627 -0.3050  0.3358  0.0322
12757W        W28226   0.683   3.326   2.652 -0.0865  0.0777 -0.1805
12758W        W28227   8.245  16.857  14.111  0.1910 -0.0622 -0.0429
12759W        W28228  16.826   1.832   4.981  0.1124  0.2548 -0.0478
12760W        W28229  16.004  11.011   4.024 -0.0900 -0.2977  0.0354
12761W        W28230  12.157   1.188   5.011  0.0702 -0.0107  0.2167
12762W        W28231   7.087  10.313   2.228 -0.1157 -0.2035 -0.0147
12763W        W28232   8.673   8.042  16.074 -0.1897 -0.1789 -0.0093
12764W        W28233   7.700   0.930   3.200  0.0944 -0.3248 -0.0419
12765W        W28234  17.207   3.327  12.814 -0.3285  0.1884  0.0878
12766W        W28235  17.756  10.204   0.595 -0.1763 -0.0542 -0.5665
12767W        W28236  16.746   2.417  11.891 -0.0538  0.0187 -0.0655
12768W        W28237   9.135  13.980  15.733  0.0093  0.0336  0.0082
12769W        W28238   5.964   8.573  12.049 -0.3234  0.0685 -0.0584
12770W        W28239  16.401   1.715  15.672  0.0700 -0.0231 -0.1309
12771W        W28240   1.173  15.917  12.431  0.2711  0.1350 -0.0000
12772W        W28241   7.610   3.082   1.711  0.1374 -0.0554  0.0358
12773W        W28242   8.088   7.381   0.189 -0.0058 -0.2159 -0.0189
12774W        W28243  12.805   7.929   4.191 -0.1001 -0.3440 -0.1372
12775W        W28244   5.770   0.668  12.946 -0.0599  0.0468  0.0923
12776W        W28245   4.772   9.028   4.939  0.0343 -0.0897  0.0985
12777W        W28246   6.921  13.402   1.077 -0.1709  0.1113 -0.2323
12778W        W28247  12.528  15.491   0.796 -0.0458 -0.0922 -0.4341
12779W        W28248  11.707   4.492   5.068 -0.0022 -0.0862  0.0100
12780W        W28249  15.813   8.354   3.191 -0.0147 -0.2321  0.1137
12781W        W28250   5.445  16.669   5.629  0.0380  0.3650 -0.0298
12782W        W28251  13.117  16.949  11.760 -0.1496  0.0256  0.3988
12783W        W28252   1.386   9.927   4.914 -0.0893  0.2225 -0.3971
12784W        W28253  10.297  13.499  11.601  0.0178 -0.2710 -0.1089
12785W        W28254   4.067  10.854  12.089  0.0342 -0.1820  0.2895
12786W        W28255  14.353   5.365  15.073 -0.2057  0.0154 -0.0409
12787W        W28256   1.592   1.388  12.574  0.0159  0.0032 -0.3072
12788W        W28257   4.171   4.755   3.053 -0.1517 -0.1234 -0.0856
12789W        W28258   0.072  14.561   4.885 -0.1964 -0.0098 -0.2103
12790W        W28259   1.945  10.605   0.417 -0.0391 -0.2928 -0.1904
12791W        W28260  11.973  12.929   2.415 -0.1575  0.1088 -0.3339
12792W        W28261   6.417   0.293  15.614 -0.1251 -0.0123 -0.1658
12793W        W28262   9.776  12.887   2.022  0.0108  0.2552 -0.0490
12794W        W28263   5.839   5.833   5.052  0.0241 -0.1799 -0.0547
12795W        W28264   3.960  12.794  12.682  0.2556  0.0716  0.2180
12796W        W28265  17.146   4.218   0.844  0.1811 -0.0780 -0.0535
12797W        W28266   8.335  11.518  16.085  0.2836  0.0449 -0.1141
12798W        W28267  16.113   0.641   0.606  0.2103 -0.5888  0.1457
12799W        W28268  12.309   9.752   3.577  0.1299 -0.3682  0.1231
12800W        W28269  12.201   7.230   4.098  0.0155 -0.2559 -0.1961
12801W        W28270   6.398   4.887  12.460  0.0126 -0.2052 -0.0392
12802W        W28271  16.279   2.807   3.105 -0.0000  0.0057 -0.5933
12803W        W28272  13.499  18.209   4.113  0.0169 -0.0703  0.1083
12804W        W28273   1.659  13.912   4.726  0.1517 -0.1020 -0.0699
12805W        W28274  10.654  17.073  14.659  0.0224  0.0575 -0.0698
12806W        W28275  14.047  14.893   0.742 -0.2482  0.0537  0.2213
12807W        W28276   0.653  13.203   1.030 -0.2838 -0.2691 -0.1977
12808W        W28277   2.449   6.368  15.108 -0.0543  0.2384 -0.1485
12809W        W28278   8.051  15.293  10.891 -0.0299 -0.3497 -0.0557
12810W        W28279   6.932   8.457  14.030 -0.2820 -0.2134  0.2493
12811W        W28280   8.472   6.965  13.498  0.1794 -0.2136 -0.2013
12812W        W28281  11.715  16.759   2.632  0.2335 -0.0745 -0.1300
12813W        W28282  10.579   1.411  15.142  0.2592  0.0228  0.0923
12814W        W28283  15.660   8.313  11.423 -0.0169  0.1243 -0.1019
12815W        W28284   9.705  11.387  15.910  0.2016 -0.0097 -0.0133
12816W        W28285   1.072  11.190   1.960  0.1996 -0.0247  0.1334
12817W        W28286   8.659   9.154  13.387  0.0948  0.2788 -0.0264
12818W        W28287   2.174   9.738  12.890 -0.0964  0.2130  0.3331
12819W        W28288  14.961   1.449  14.204  0.2424  0.3267  0.0336
12820W        W28289  16.999   0.966  15.393 -0.1082  0.0673 -0.0559
12821W        W28290   1.425   6.958   4.806 -0.0156  0.1946  0.2001
12822W        W28291   2.061   1.134   0.746  0.1293 -0.0269  0.0327
12823W        W28292  17.849  16.981   4.790  0.0294  0.0715  0.0089
12824W        W28293  15.336   2.752   4.646  0.2167 -0.1657 -0.0775
12825W        W28294   0.151   2.648  14.796 -0.3188 -0.0059  0.2365
12826W        W28295   0.055  11.800  13.482 -0.1879  0.1582 -0.1190
12827W        W28296  17.178   2.122  12.004 -0.1129 -0.1862  0.1220
12828W        W28297  10.756   6.654  14.234  0.2315  0.1131 -0.2747
12829W        W28298   0.372   3.223   4.553 -0.0925 -0.1148 -0.5232
12830W        W28299  12.693  10.869  15.423 -0.0131  0.0031 -0.3258
12831W        W28300   3.783   2.620   0.443  0.1149 -0.2898  0.0325
12832W        W28301   9.198   8.223   0.042  0.0038 -0.0045 -0.1702
12833W        W28302   1.574  13.100   4.897 -0.0985  0.3012 -0.0455
12834W        W28303   1.013  10.796  14.453  0.0803 -0.0133  0.1077
12835W        W28304  14.626   1.078  14.422  0.0252 -0.2740 -0.2153
12836W        W28305  15.395  15.273  12.297  0.3579  0.0323  0.2206
12837W        W28306   2.970   6.842   2.120 -0.0018 -0.1682 -0.2858
12838W        W28307  11.252   4.559  15.418 -0.1232 -0.5644  0.0431
12839W        W28308   8.882   7.572  15.348  0.1463 -0.5725 -0.0806
12840W        W28309   7.702   5.446   4.237  0.2498  0.1320  0.2474
12841W        W28310   5.608  15.969   3.098  0.1933  0.0145 -0.1414
12842W        W28311   2.939   3.000  10.342 -0.3552  0.1648 -0.0003
12843W        W28312  12.082  10.293  15.651 -0.0074  0.0652 -0.0223
12844W        W28313   1.066   1.985  14.702 -0.1108  0.1108 -0.0110
12845W        W28314  13.798   9.702   3.376  0.2941 -0.2213 -0.2087
12846W        W28315   6.489   6.035   0.569  0.1062 -0.1126 -0.0879
12847W        W28316   3.245   5.000  12.676 -0.0030 -0.2601 -0.1165
12848W        W28317  14.729  10.789  11.857  0.0493  0.2614 -0.0066
12849W        W28318   2.077  18.150  13.086  0.0714 -0.1509  0.1835
12850W        W28319  15.639   1.082  14.620  0.1246 -0.0519 -0.0339
12851W        W28320  11.610  14.110  15.494  0.0546 -0.0253 -0.1341
12852W        W28321  12.161  14.629   2.012  0.1791  0.2086  0.0488
12853W        W28322  11.082  13.610  11.885  0.0341  0.3646 -0.2469
12854W        W28323   5.404  11.266  11.012  0.0171  0.2066 -0.4611
12855W        W28324  13.554  13.550   2.754 -0.0432  0.0357 -0.3059
12856W        W28325  13.368  11.494  14.542  0.1205  0.0911 -0.0343
12857W        W28326   0.259  15.232   2.920 -0.3044  0.0648  0.0549
12858W        W28327  10.079   4.438   2.361  0.0258 -0.2236 -0.0124
12859W        W28328  17.425   6.584  13.946 -0.0406  0.0727 -0.2278
12860W        W28329   5.237   6.850  12.174 -0.1491  0.2170 -0.0603
12861W        W28330  11.890   9.143   2.327 -0.4082 -0.1653 -0.0281
12862W        W28331  18.055   0.171   5.869 -0.0486  0.3841 -0.1460
12863W        W28332  11.601   8.377  15.380 -0.2721 -0.0572  0.0252
12864W        W28333  17.605  10.199   4.241 -0.1661  0.3659 -0.1139
12865W        W28334   3.277   7.984  14.807 -0.2725  0.1602  0.3595
12866W        W28335   5.045   2.486   2.155  0.0611 -0.0503  0.0365
12867W        W28336   5.419   2.437  10.805 -0.4093 -0.1661 -0.1502
12868W        W28337  15.104  14.811   2.248  0.1027 -0.1649 -0.1654
12869W        W28338  11.971   9.942   4.078 -0.0534 -0.0651  0.0357
12870W        W28339  17.380   6.409  12.420  0.0386 -0.1096  0.1587
12871W        W28340  13.514   2.062   3.535  0.1055 -0.0577 -0.1454
12872W        W28341   5.357   2.025   3.081 -0.1504  0.0428  0.0460
12873W        W28342  16.921   9.780   4.879 -0.1174 -0.1159 -0.2460
12874W        W28343   0.162  12.697  11.034 -0.0349  0.2010  0.1280
12875W        W28344   1.661  14.786  12.016 -0.0970 -0.1372 -0.1811
12876W        W28345   0.144   5.236   2.206  0.3878  0.0312 -0.1008
12877W        W28346   3.427   4.733  14.711 -0.0602 -0.1089  0.0836
12878W        W28347   8.906  12.816   4.473  0.1501 -0.2129 -0.0648
12879W        W28348   0.839   9.579   2.040 -0.0773 -0.1290 -0.0350
12880W        W28349   6.672  12.507   3.234 -0.0591  0.2964  0.2605
12881W        W28350   7.497   7.956  11.452  0.0314 -0.0622  0.4548
12882W        W28351   4.650  10.008  11.018 -0.1081 -0.2471  0.2293
12883W        W28352  13.408   0.930  13.161  0.0646 -0.1443 -0.0610
12884W        W28353   8.744   3.004  13.088 -0.1524  0.0083 -0.3181
12885W        W28354   8.533  17.985   1.230  0.0206  0.3261  0.0149
12886W        W28355   4.383  11.147   3.163  0.1292  0.2316 -0.0792
12887W        W28356  10.650  11.624  15.233  0.0255 -0.1572 -0.2330
12888W        W28357  15.392   7.856  16.029 -0.2377 -0.0756  0.2051
12889W        W28358  13.358   0.856   4.468  0.3181 -0.1064  0.1246
12890W        W28359  14.216  17.715  14.601 -0.1562 -0.0120  0.0022
12891W        W28360   3.451  16.889   3.931 -0.3536  0.0197  0.0341
12892W        W28361  17.615  16.301  15.027 -0.0876  0.0823 -0.0701
12893W        W28362   6.786   3.253   5.279  0.0240 -0.0427  0.0356
12894W        W28363   0.618   3.945   1.957 -0.0898  0.0296 -0.1244
12895W        W28364  13.519  18.084  15.873  0.1219 -0.3898 -0.2811
12896W        W28365  18.204  13.351  15.380  0.0729  0.0588 -0.1167
12897W        W28366   3.780   1.984  11.188  0.0959  0.0397  0.0124
12898W        W28367  10.708  10.814  11.019  0.1394  0.1645 -0.0554
12899W        W28368  17.352  11.765   2.250 -0.1311  0.0885 -0.2855
12900W        W28369   0.391   7.314  13.202  0.2444 -0.0740  0.0788
12901W        W28370   4.971  13.462   3.777  0.0615 -0.2064 -0.0479
12902W        W28371   5.838  11.392   4.156  0.0108  0.0035  0.0515
12903W        W28372   7.295  14.295  14.910 -0.2376  0.1393 -0.1282
12904W        W28373   6.009   8.251  10.693 -0.1162  0.0557 -0.3374
12905W        W28374  12.704   8.560   6.464 -0.2506  0.1058  0.2479
12906W        W28375  18.154  14.024  13.792  0.1126  0.0298 -0.3346
12907W        W28376   7.693   3.908  15.198 -0.0956  0.3476  0.1029
12908W        W28377   8.661   6.051  12.644 -0.5379 -0.2758 -0.1337
12909W        W28378   7.479  14.920  13.284  0.2173  0.0011  0.1876
12910W        W28379  11.675   2.776  12.071  0.2505 -0.2443 -0.3474
12911W        W28380   1.160   0.577   3.941  0.0940  0.0311 -0.0906
12912W        W28381   0.776   0.373  14.961 -0.1699 -0.0595 -0.2421
12913W        W28382   7.282  13.550   5.110 -0.0802  0.0174 -0.0139
12914W        W28383  11.731   1.371   2.319 -0.0330  0.1781 -0.1364
12915W        W28384  16.083  11.969   1.439  0.0526 -0.3383  0.0374
12916W        W28385   4.780  11.069  11.140 -0.0649  0.1845  0.0852
12917W        W28386   2.807  11.666  13.015  0.3281  0.0229 -0.1986
12918W        W28387  13.709  12.331  13.979  0.2502 -0.0846 -0.1187
12919W        W28388  13.551   0.691   3.605 -0.0384 -0.0565  0.0868
12920W        W28389  11.316  15.248  15.994 -0.3553 -0.1661  0.3888
12921W        W28390   6.738  16.187   1.094 -0.1451 -0.1390  0.2776
12922W        W28391  17.240   9.373   5.488  0.1515 -0.0962  0.0055
12923W        W28392   3.937  15.053  13.387  0.0018  0.3217  0.0979
12924W        W28393   2.435   5.922  11.002  0.0134 -0.2006  0.0905
12925W        W28394  12.686   1.402  14.917  0.0144  0.0926 -0.1038
12926W        W28395   0.960   1.746  11.180  0.0299 -0.0955  0.0473
12927W        W28396  15.830   0.580   3.460 -0.1236  0.2520  0.0807
12928W        W28397   6.943  14.694   2.742 -0.2067  0.5480 -0.4500
12929W        W28398   1.207   1.526  14.534  0.0288  0.0394  0.0560
12930W        W28399   0.290   6.568  11.231 -0.1191 -0.2817  0.0731
12931W        W28400   6.200   8.903  12.381  0.1679 -0.1898  0.0275
12932W        W28401   5.242  11.150  11.438 -0.1088  0.1316  0.1552
12933W        W28402  15.026   0.501   1.403  0.1774 -0.0899 -0.0045
12934W        W28403   2.815  14.973  15.998  0.0987 -0.1869 -0.0971
12935W        W28404   6.354  15.974   4.567  0.2247  0.0385  0.2069
12936W        W28405   6.737   7.265   1.244 -0.3685 -0.2562 -0.0607
12937W        W28406  12.068   9.601  14.195 -0.0562  0.0164 -0.0706
12938W        W28407  11.405   1.820   0.096 -0.0359  0.4282  0.0351
12939W        W28408   7.110  11.927   5.283 -0.0704 -0.5024 -0.1897
12940W        W28409  18.098   8.708  13.118 -0.2170  0.3208 -0.2931
12941W        W28410  11.143  14.666  13.657 -0.0282 -0.0346 -0.1440
12942W        W28411   5.432  13.150  14.615 -0.1086 -0.0528  0.1907
12943W        W28412   0.322  16.279   0.835 -0.0030 -0.2234 -0.2647
12944W        W28413   3.865  11.799   4.351 -0.1301  0.2282  0.1763
12945W        W28414  11.827   7.250  12.005  0.1623  0.0819 -0.4372
12946W        W28415  14.868   6.750   3.992 -0.1617 -0.0694  0.1870
12947W        W28416   0.662   4.017  12.774 -0.2669  0.1733 -0.1484
12948W        W28417   0.107  15.219  13.042 -0.2220 -0.1502  0.1722
12949W        W28418  15.478   0.809   1.364 -0.0859  0.1044  0.2048
12950W        W28419   6.139  14.822   1.116  0.0125  0.2571 -0.1913
12951W        W28420   6.875   6.177   2.910  0.1514  0.0141 -0.0510
12952W        W28421  16.096  10.751   0.928  0.0546 -0.3004 -0.0769
12953W        W28422   0.337   7.237   0.030 -0.1170 -0.0252 -0.2722
12954W        W28423  15.467   9.745   3.917 -0.2640  0.1035 -0.2841
12955W        W28424   5.304  14.721  11.953 -0.0513  0.1373  0.1252
12956W        W28425   3.827  16.471   2.287 -0.1078 -0.3239 -0.3133
12957W        W28426   7.411  13.724   1.446  0.1482  0.3480  0.2137
12958W        W28427   4.134   8.103   0.763 -0.0464 -0.0400  0.1707
12959W        W28428   9.003   4.558   0.258 -0.3949  0.1064 -0.2098
12960W        W28429   5.761   8.794  15.593 -0.0014 -0.0658 -0.1379
12961W        W28430  10.057  12.164   0.106 -0.1704 -0.0158 -0.2918
12962W        W28431   5.499   1.518  10.661 -0.0836 -0.2168  0.0352
12963W        W28432   3.160   6.169  11.282 -0.0401  0.0429  0.2631
12964W        W28433   6.187   0.106  11.792  0.1049  0.2949  0.0328
12965W        W28434  12.653  14.548   0.148 -0.1650  0.2318  0.0827
12966W        W28435  14.550  17.546   0.615  0.0290  0.1963 -0.2439
12967W        W28436  16.353  15.437   3.529 -0.0664  0.0259  0.3742
12968W        W28437  18.017   7.164  13.703  0.0638  0.1529  0.1425
12969W        W28438   8.231  13.529  12.265 -0.0589  0.2391  0.0886
12970W        W28439   2.864   4.160  13.091 -0.1380  0.0652 -0.3940
12971W        W28440  14.054   3.823   0.957  0.3777 -0.0494 -0.1696
12972W        W28441  12.581   6.719  15.760 -0.1516 -0.2463  0.0453
12973W        W28442   8.731  17.259   0.125  0.1003 -0.1560  0.1496
12974W        W28443  11.201   9.295  13.991  0.2667 -0.0022 -0.1308
12975W        W28444   8.615   5.229   2.953 -0.0244 -0.0398 -0.1117
12976W        W28445   9.208  11.839   0.992 -0.1690 -0.0748  0.1122
12977W        W28446   3.349   5.906   4.101  0.2228 -0.1821  0.0453
12978W        W28447   5.799   5.311   1.971 -0.0338 -0.1145 -0.1470
12979W        W28448   9.344  12.738   5.609  0.1393  0.0747  0.4420
12980W        W28449   7.122   9.192   4.041  0.2613  0.1460 -0.1971
12981W        W28450  11.362   6.082  13.692  0.1519 -0.1956  0.0542
12982W        W28451  18.049   6.105   0.995 -0.3057 -0.0689 -0.3834
12983W        W28452  11.943  12.244  11.524  0.0379  0.1405  0.0574
12984W        W28453  17.375   9.678  15.068  0.2069 -0.0864 -0.1738
12985W        W28454   0.760  13.322  11.394  0.0429 -0.2774  0.1385
12986W        W28455   7.954   3.236  12.203 -0.1577  0.1146  0.0396
12987W        W28456  13.758   7.183   0.309 -0.0279 -0.1105 -0.1769
12988W        W28457  14.332  14.270  11.013 -0.1437 -0.0080 -0.1314
12989W        W28458   8.346   8.671   3.377  0.0216  0.1222  0.0742
12990W        W28459  16.177   6.923   5.461  0.0255 -0.1697 -0.2303
12991W        W28460   6.142   9.842   3.900  0.2214  0.0344 -0.1417
12992W        W28461   1.183   7.891   2.818 -0.1264 -0.0848 -0.1043
12993W        W28462  10.883  13.946  14.229 -0.1902 -0.0492  0.2066
12994W        W28463  17.030  11.099  15.422 -0.2274 -0.0519 -0.0408
12995W        W28464   7.972   6.922  14.045 -0.3085  0.2786  0.0066
12996W        W28465   0.768  11.239  11.810  0.0613 -0.0366 -0.2032
12997W        W28466   6.727  15.950   2.057 -0.0527  0.1908  0.1673
12998W        W28467  17.851   4.021   3.081 -0.0458 -0.1786 -0.3820
12999W        W28468   5.881  10.165   0.636 -0.3307 -0.0824  0.1051
13000W        W28469   9.868  11.932   3.954  0.2278 -0.1043 -0.2287
13001W        W28470   4.366   6.742  14.239  0.1942 -0.0920  0.0325
13002W        W28471   8.440   7.566   1.978 -0.3017  0.2338 -0.2345
13003W        W28472  16.128   2.508   2.682 -0.0912  0.0793  0.1790
13004W        W28473   4.392  13.686   3.098 -0.2740 -0.2831 -0.1141
13005W        W28474  15.486   4.447  14.631 -0.2802 -0.1629  0.0554
13006W        W28475  15.754  14.692  13.161  0.0854 -0.0570 -0.2084
13007W        W28476  15.324  11.379  14.686  0.2644 -0.1278  0.1048
13008W        W28477  10.551  17.279   5.440 -0.0680 -0.1611  0.1430
13009W        W28478   3.421   1.880  15.502  0.2152 -0.1941 -0.0933
13010W        W28479   9.107   8.480  13.565 -0.2817 -0.0638 -0.2414
13011W        W28480   3.744   0.864  11.397 -0.1232 -0.0127  0.3278
13012W        W28481   1.251   1.499  15.048 -0.0882 -0.0239  0.1609
13013W        W28482   8.235   6.647   0.953  0.2211  0.1519  0.1464
13014W        W28483  12.626  17.917  13.717 -0.2865  0.2403 -0.2957
13015W        W28484   0.874   5.810  15.215  0.1082 -0.3480 -0.3632
13016W        W28485  16.469  16.708   2.665 -0.0790 -0.2843 -0.1820
13017W        W28486   9.087   3.895  14.723 -0.1975  0.3228  0.0655
13018W        W28487   9.627   1.001  13.382 -0.0010 -0.2225  0.1291
13019W        W28488  12.760   8.274   2.568 -0.0957 -0.0960  0.2270
13020W        W28489   1.354  13.650   5.056 -0.0802  0.0279 -0.2408
13021W        W28490   3.547   9.807  10.767  0.0803 -0.2291  0.1109
13022W        W28491  13.329  14.446   1.392 -0.0004  0.2707  0.1515
13023W        W28492  14.834   6.020  14.719 -0.2816 -0.0025  0.0034
13024W        W28493  13.823   9.731  10.746 -0.1418 -0.1024 -0.0233
13025W        W28494  12.354   6.677  14.774  0.0757 -0.0755 -0.1223
13026W        W28495  10.440   4.142  12.721 -0.1027 -0.3096 -0.0699
13027W        W28496   8.882   0.716   1.038  0.1759  0.1220  0.0096
13028W        W28497  11.331  12.546   0.304 -0.1357  0.0713  0.0777
13029W        W28498   7.523   9.533   5.049 -0.1963  0.1929  0.3398
13030W        W28499   6.696   8.242  11.751  0.1011  0.1377 -0.1660
13031W        W28500   3.857   6.315   4.885  0.1081 -0.1390 -0.0640
13032W        W28501   2.048   3.914  14.113  0.2060 -0.0033 -0.0060
13033W        W28502   9.630  15.591  14.561 -0.2816  0.1734  0.1156
13034W        W28503   5.070  12.059  13.469  0.0895 -0.0681  0.1973
13035W        W28504  17.160   7.612  11.061 -0.0201  0.1268 -0.3286
13036W        W28505  15.221  14.416  14.789  0.0215  0.0049 -0.0567
13037W        W28506  15.918  10.120  14.930 -0.1754  0.0112  0.1668
13038W        W28507   2.232  16.527  15.686  0.0632 -0.0653 -0.1248
13039W        W28508  15.179   5.914  12.515  0.0271  0.1373  0.0004
13040W        W28509  17.584   7.638   3.709  0.0953  0.0373 -0.1343
13041W        W28510  10.879  17.842   6.149  0.0994  0.0150  0.1261
13042W        W28511   6.622  13.350   1.810  0.1260 -0.0788  0.1643
13043W        W28512  10.145   1.513  11.144  0.0600  0.0845 -0.2174
13044W        W28513  16.223  10.545  15.078  0.1119 -0.1972 -0.2771
13045W        W28514  15.928   9.655  12.269 -0.0415  0.1896 -0.1713
13046W        W28515   1.270  11.516  14.629 -0.2882  0.0540  0.1435
13047W        W28516  16.845  14.693  13.289  0.0246  0.1348 -0.2383
13048W        W28517   6.823  16.280   5.031  0.0010  0.1122  0.2197
13049W        W28518   0.770  10.180  14.382  0.1627  0.0605  0.2199
13050W        W28519  13.516   0.953   4.015 -0.0103  0.0216  0.0127
13051W        W28520  15.453  17.792  11.664 -0.2550 -0.2407 -0.1565
13052W        W28521  11.251   6.513   4.791  0.0424 -0.1652 -0.0920
13053W        W28522   3.196   0.454   3.060  0.2186  0.1407 -0.4854
13054W        W28523   2.020  14.036  10.986  0.1241  0.1780  0.0657
13055W        W28524   0.611  10.938   0.759 -0.0273  0.0542  0.0006
13056W        W28525   9.256  13.304   0.132 -0.0862 -0.1682 -0.1272
13057W        W28526  12.103  18.050  11.631  0.2272 -0.4067 -0.2573
13058W        W28527  16.450   2.766   0.833  0.0595 -0.1433  0.4736
13059W        W28528  14.637   4.768  14.362  0.2968  0.1086 -0.0526
13060W        W28529   3.357  17.811  13.203 -0.1924  0.0246 -0.0034
13061W        W28530  13.702   4.438  12.205  0.0311  0.0080 -0.0108
13062W        W28531  10.913   4.205   2.130 -0.0854 -0.5125 -0.0561
13063W        W28532   7.694  17.127  13.714  0.0051  0.1805 -0.1596
13064W        W28533  12.731   8.171   3.089  0.4038  0.2304 -0.2801
13065W        W28534   3.026   3.707  13.202  0.3032  0.0961  0.2445
13066W        W28535  12.147  10.015  12.225 -0.2712 -0.0630 -0.0157
13067W        W28536   4.803   3.756  13.292 -0.1858 -0.0901  0.3133
13068W        W28537  12.791   2.724   4.569  0.1139  0.1474  0.1464
13069W        W28538  13.960  13.850   3.633  0.1512  0.1077 -0.1389
13070W        W28539  15.509  13.060   5.376 -0.2508 -0.2411  0.0381
13071W        W28540  16.512  13.373   4.499  0.2095  0.0474 -0.1381
13072W        W28541   6.864  17.180   5.341 -0.1472 -0.2001  0.0544
13073W        W28542  14.162   7.583   0.486 -0.3948 -0.2396 -0.2307
13074W        W28543  17.090  17.428   5.492  0.3358  0.1229  0.1336
13075W        W28544   9.572  14.146  10.829 -0.2268  0.0393  0.4153
13076W        W28545  10.929   4.524   5.168 -0.2648 -0.2029  0.0563
13077W        W28546   4.964   0.446  13.119  0.1067 -0.1505  0.1589
13078W        W28547  13.659   0.288   5.075  0.0756 -0.1638 -0.1142
13079W        W28548  15.570   3.080   4.335  0.1997 -0.0724 -0.2387
13080W        W28549   8.958  17.093   4.128 -0.0599  0.4546  0.2251
13081W        W28550  12.443  13.059  14.426  0.1862 -0.0479 -0.0678
13082W        W28551   7.406  17.663   0.494  0.4754 -0.4147 -0.1635
13083W        W28552   9.853  16.899  13.073 -0.1013  0.5121  0.0415
13084W        W28553  10.645  18.153   1.762  0.1802  0.0783 -0.2486
13085W        W28554   0.198   8.290  11.754 -0.1340 -0.0328 -0.1227
13086W        W28555  14.236  16.504  11.996 -0.1859 -0.0206 -0.1412
13087W        W28556  17.488  13.918  12.123 -0.0889 -0.2616 -0.0570
13088W        W28557  15.446   5.235   5.169 -0.3527 -0.1471  0.3914
13089W        W28558  12.982  12.927  14.468 -0.1554 -0.2823  0.0900
13090W        W28559   7.500  17.508   4.341 -0.1041  0.2252  0.3402
13091W        W28560  16.924   7.253   5.222  0.0621  0.2178  0.1729
13092W        W28561   2.849   8.435  13.749 -0.1255  0.2537  0.0870
13093W        W28562   2.905   8.633   2.601 -0.3479  0.1649  0.1352
13094W        W28563  12.830   6.772  14.117 -0.0743  0.1937  0.2222
13095W        W28564   0.400   8.689   1.054 -0.2203 -0.0231  0.3011
13096W        W28565  12.204   4.381   4.838  0.2624  0.0930  0.1739
13097W        W28566   6.237   1.348  12.344 -0.1990 -0.3340 -0.0142
13098W        W28567  18.162   3.950   5.242 -0.1038  0.2744 -0.0801
13099W        W28568  11.256  15.361   0.359  0.0651  0.1122 -0.3487
13100W        W28569  15.959  14.004   0.425 -0.0944 -0.0683  0.1989
13101W        W28570   7.762  17.896   5.194 -0.0504  0.4376 -0.1240
13102W        W28571   4.950  18.020   2.003 -0.5918  0.1764  0.0349
13103W        W28572   3.419   9.496  12.009  0.0844 -0.1187 -0.1418
13104W        W28573  14.851   8.091  14.801  0.2750  0.1017 -0.2686
13105W        W28574   8.682   6.236  14.229  0.1757  0.1264 -0.5114
13106W        W28575   9.726  10.303   5.410  0.0163 -0.1825 -0.0089
13107W        W28576  11.669   2.656  11.596 -0.0744 -0.0636  0.1270
13108W        W28577  14.660  14.622   5.557 -0.1283 -0.1138 -0.1714
13109W        W28578   2.704   5.399   2.137  0.1100  0.0347 -0.2403
13110W        W28579   7.545  14.530   1.523 -0.1157  0.3124 -0.1870
13111W        W28580  16.557  15.342  12.357 -0.0545 -0.0825  0.0603
13112W        W28581  16.168   9.179   4.921 -0.1791 -0.1376  0.0903
13113W        W28582   7.952   7.884  11.743  0.1025 -0.0196 -0.2716
13114W        W28583   5.483   4.922  14.066  0.0136 -0.1398  0.2219
13115W        W28584   8.769  17.700   3.943 -0.1574 -0.0562 -0.0027
13116W        W28585  11.542  17.578  11.267  0.0775  0.0905  0.0486
13117W        W28586   7.262   9.210  16.042  0.1689 -0.0793  0.1646
13118W        W28587  17.511   2.483  14.686  0.0600  0.1136  0.0426
13119W        W28588   9.030   9.665  11.784  0.2341 -0.1839  0.4455
13120W        W28589  14.392  17.819  15.039 -0.2800  0.0562 -0.0233
13121W        W28590   7.631   9.494  13.733  0.1446 -0.3334  0.1527
13122W        W28591   7.995  16.424  13.987 -0.3711 -0.2150  0.2832
13123W        W28592   2.886   0.718   5.128 -0.1247 -0.2032 -0.2416
13124W        W28593   4.500  13.662  11.156 -0.0780  0.2390  0.0299
13125W        W28594   5.565   0.843  14.481 -0.1091  0.0240  0.2441
13126W        W28595  14.653   8.551  11.652  0.1166  0.2792 -0.1232
13127W        W28596   6.464  14.302   5.791 -0.1746 -0.1571  0.3079
13128W        W28597   6.882  18.151   2.922 -0.0232 -0.0045 -0.1193
13129W        W28598  18.179   2.115  12.170 -0.2277  0.1860  0.1855
13130W        W28599   7.422   4.845   4.094 -0.0103 -0.2701 -0.1735
13131W        W28600   4.059  16.232   2.777 -0.0893  0.1447  0.3190
13132W        W28601   9.963   3.268  15.779  0.1996 -0.4299 -0.1093
13133W        W28602   0.910  16.269   3.437  0.1666  0.1791 -0.0453
13134W        W28603  10.202   1.167   5.720  0.1042 -0.1503 -0.0282
13135W        W28604  14.895   3.335   1.827 -0.3675  0.2186 -0.0890
13136W        W28605   8.265   0.134   1.282  0.1205 -0.2572  0.1970
13137W        W28606  16.754   0.283   1.922 -0.0821 -0.1776  0.1995
13138W        W28607   3.503  16.803   3.398 -0.1315  0.2489 -0.2203
13139W        W28608   7.520  12.381   4.793 -0.1987 -0.4881 -0.0245
13140W        W28609   7.180   4.656  15.072 -0.0867  0.0917  0.1792
13141W        W28610  17.333   7.000  13.159  0.2063  0.1367  0.2388
13142W        W28611  10.113  15.997   0.964  0.3247  0.1153  0.0902
13143W        W28612  16.984   8.858  13.789 -0.0247 -0.1048  0.2630
13144W        W28613   2.729   6.553  11.895  0.0508  0.0407  0.1182
13145W        W28614  14.369   4.613  12.907  0.1966  0.2912 -0.2441
13146W        W28615   1.973   1.327   2.869  0.0694  0.2534  0.0135
13147W        W28616   6.667  16.988   1.022 -0.1104  0.0758  0.0793
13148W        W28617  13.093  17.893   0.686  0.1185  0.1680  0.3206
13149W        W28618   7.054  12.340   2.132 -0.1641  0.2971 -0.0753
13150W        W28619  16.361   8.320  15.920 -0.1835 -0.1079 -0.0606
13151W        W28620   9.910   2.991  13.697  0.2186  0.1150  0.0497
13152W        W28621  16.103   0.511  11.032 -0.1841 -0.0084  0.3148
13153W        W28622  16.272  17.061   5.130 -0.2425 -0.0032 -0.1446
13154W        W28623   2.279   4.753  11.796  0.0859 -0.1331  0.0226
13155W        W28624   2.193   7.261   2.020 -0.0736 -0.0980 -0.1250
13156W        W28625   3.827  16.972   0.281  0.0694 -0.3491  0.1095
13157W        W28626   5.678   9.248  12.852  0.0552  0.0498  0.3447
13158W        W28627  14.485  10.183   4.804  0.1972 -0.2276 -0.2003
13159W        W28628  12.720  10.010   0.866 -0.1984 -0.2780  0.4181
13160W        W28629  14.048  10.094   3.521  0.1164 -0.3914  0.2978
13161W        W28630   5.099  12.047   2.868 -0.1832 -0.0465  0.1821
13162W        W28631   2.361   4.871  12.652  0.0332  0.1082  0.2138
13163W        W28632   1.013   9.951  13.960  0.2609 -0.0529  0.2797
13164W        W28633   5.616  10.111   1.071  0.1244 -0.0912  0.0626
13165W        W28634  11.474   0.165   3.888 -0.3783  0.0014  0.1718
13166W        W28635  13.937  15.939   1.348  0.0123 -0.3457  0.3316
13167W        W28636   6.358  11.174   3.322 -0.0758  0.0261 -0.0116
13168W        W28637   5.596   0.002   2.695 -0.1825  0.0641 -0.0641
13169W        W28638   0.207  12.859   3.275 -0.0721 -0.3428  0.1369
13170W        W28639  11.429  16.406   5.905 -0.0776  0.0418  0.5194
13171W        W28640   3.794   9.135  10.054  0.1839  0.0477 -0.0037
13172W        W28641  14.735  17.327  13.262  0.0487 -0.5287 -0.1177
13173W        W28642  10.274   8.992   3.135  0.1635  0.1299 -0.0133
13174W        W28643   0.933   6.349   0.277  0.0139  0.1682  0.1550
13175W        W28644  11.345   0.004   5.411 -0.0672 -0.0357 -0.2003
13176W        W28645   4.695   8.475  10.828  0.2798 -0.1893  0.1941
13177W        W28646   1.722  13.323   0.992  0.0711 -0.1033 -0.3097
13178W        W28647  15.974   1.307  14.199  0.2477 -0.0338 -0.0191
13179W        W28648   4.177   8.037  13.002 -0.0651  0.0054  0.3416
13180W        W28649   7.024   5.932  14.335  0.1616  0.1212 -0.1965
13181W        W28650  18.139  16.736  14.755  0.0979  0.1587  0.0619
13182W        W28651   3.288  14.418  11.623 -0.5977  0.1766  0.3957
13183W        W28652   4.512  13.312  14.481 -0.3073  0.0311  0.0759
13184W        W28653  15.948  15.322   2.096 -0.2458  0.0662 -0.0918
13185W        W28654  18.102   2.436   0.749  0.1775 -0.0033 -0.4135
13186W        W28655  15.409   2.089   5.308  0.0964  0.0507 -0.0849
13187W        W28656  11.786  12.456   4.724  0.0372 -0.2054  0.0500
13188W        W28657   0.822  10.851  10.535  0.0605  0.2991 -0.0542
13189W        W28658   4.127   1.385   4.666  0.2176 -0.1411  0.2169
13190W        W28659  14.355   8.478   3.324 -0.2408  0.2686  0.0626
13191W        W28660   7.857  16.124  14.808 -0.1388 -0.1265  0.0808
13192W        W28661  11.769   1.381  12.429  0.0306  0.1700 -0.1330
13193W        W28662  10.053   9.796   0.758 -0.0090 -0.1294 -0.0279
13194W        W28663  17.504   9.991  10.404 -0.0667 -0.1275  0.2098
13195W        W28664  17.847  12.146  15.329 -0.0061  0.2425 -0.3159
13196W        W28665  16.451   6.967   1.674 -0.1276 -0.1682 -0.0081
13197W        W28666   9.109  18.078  10.438 -0.1056 -0.1254 -0.0539
13198W        W28667  15.483   4.060  14.971 -0.1627 -0.0020  0.1617
13199W        W28668   3.828   1.222   2.967 -0.0604 -0.0751 -0.1824
13200W        W28669  17.778   7.552  11.695  0.3628  0.1497 -0.0693
13201W        W28670   1.136  16.680  15.197  0.0386 -0.3691  0.0651
13202W        W28671  13.442  12.518   0.160 -0.0991  0.0438  0.2162
13203W        W28672   8.530  16.019  15.469  0.0853 -0.0043 -0.1647
13204W        W28673   4.744   7.447   0.721 -0.0339 -0.2330  0.0077
13205W        W28674  15.738   9.456  14.603 -0.1605 -0.0073 -0.1743
13206W        W28675  15.696  10.679  11.413  0.0335 -0.2267  0.2345
13207W        W28676   3.663   8.551  10.088 -0.0198  0.2184  0.0836
13208W        W28677  16.851  12.819  11.355  0.1808  0.3269 -0.1440
13209W        W28678   6.565   5.323  14.912 -0.0615  0.5278 -0.1194
13210W        W28679   5.107   5.710  14.594  0.1912 -0.0233 -0.0015
13211W        W28680  11.600   7.408  13.992 -0.0760 -0.1486  0.3449
13212W        W28681   3.182   3.759   2.295 -0.1224  0.2052 -0.2162
13213W        W28682  18.155  16.592   5.153  0.0542 -0.1647  0.1316
13214W        W28683  11.813   2.814   4.981  0.0380 -0.5070 -0.2637
13215W        W28684  17.864   7.949  15.180  0.1098  0.1684 -0.1018
13216W        W28685  16.719   5.561  14.436 -0.1222 -0.2451 -0.1473
13217W        W28686   3.187   8.360   0.846  0.3761  0.0096 -0.1128
13218W        W28687   0.575   9.836  15.830  0.2712 -0.2692 -0.1407
13219W        W28688  14.696  12.439  11.303  0.0549 -0.0328 -0.1191
13220W        W28689  14.468   4.381   0.391 -0.3277 -0.1173  0.2131
13221W        W28690   7.627  16.116   5.385 -0.1572  0.0125  0.1908
13222W        W28691   7.003   6.083   1.446 -0.1989  0.1740  0.4520
13223W        W28692  15.997  14.641  14.006 -0.3227  0.1488  0.1355
13224W        W28693   3.432  16.582  12.616 -0.0842 -0.3127 -0.1316
13225W        W28694   3.519  13.052  14.298  0.1655 -0.0283 -0.1241
13226W        W28695   3.627  16.043  12.409 -0.1181  0.0539  0.1890
13227W        W28696  15.328   1.235   2.165  0.1434 -0.1203  0.1143
13228W        W28697   7.361  13.877   3.725 -0.1706 -0.0776 -0.0735
13229W        W28698  17.145  17.639   6.002 -0.0578 -0.0434  0.2316
13230W        W28699  10.953   3.820   5.711  0.0879  0.1265 -0.2112
13231W        W28700  12.415   7.274  11.761  0.1278 -0.1946 -0.0452
13232W        W28701  16.684  14.909  14.656 -0.3761  0.3712 -0.2473
13233W        W28702   4.197   3.413  12.399 -0.2681 -0.0698 -0.1331
13234W        W28703  13.737  17.281   0.250 -0.0725  0.1339 -0.2165
13235W        W28704   2.692   9.674  14.376 -0.0718  0.3185 -0.2102
13236W        W28705   8.254  10.165   0.839  0.1904  0.2158  0.1825
13237W        W28706  12.699   5.960   5.484  0.0847 -0.1039 -0.0563
13238W        W28707  15.819   7.468  12.907 -0.0510  0.1781 -0.0773
13239W        W28708  10.335  13.159  11.941  0.2185  0.1517 -0.2147
13240W        W28709   8.121   0.560  15.123  0.3364  0.3641  0.1023
13241W        W28710   8.497  14.891  15.426 -0.2621  0.2832 -0.1088
13242W        W28711  16.394   4.749  12.827  0.0432  0.2397  0.2751
13243W        W28712   8.633  16.832  14.453  0.0691 -0.5732  0.1604
13244W        W28713   5.411   7.979   0.162  0.2111  0.2234  0.3152
13245W        W28714  11.021   0.074   4.053  0.2243 -0.1625 -0.0076
13246W        W28715   4.353   6.792  11.148  0.0670 -0.0223 -0.0010
13247W        W28716   8.431   4.346  12.679  0.0740  0.1786 -0.0541
13248W        W28717   3.691  17.589   2.787  0.3742 -0.1592 -0.1343
13249W        W28718  15.050  13.010  15.577 -0.2655  0.1285  0.1248
13250W        W28719   9.313   2.888  10.120  0.1004 -0.1138  0.2072
13251W        W28720   3.436  10.684  14.755 -0.0042 -0.3651 -0.0767
13252W        W28721  13.924  16.116  14.019  0.0878  0.0724  0.0475
13253W        W28722   3.166   9.975   2.677 -0.1606  0.0133  0.0870
13254W        W28723   2.500   7.371  15.185  0.0153  0.1949 -0.0847
13255W        W28724  14.385   5.069   4.325 -0.0093 -0.1767 -0.2676
13256W        W28725   3.895  14.540  12.481  0.3066  0.3296 -0.0120
13257W        W28726  11.955  18.158  15.103  0.0995  0.0524 -0.2986
13258W        W28727   2.127  13.235  14.245 -0.2465 -0.0692 -0.2583
13259W        W28728   8.106   0.256   4.806 -0.0360 -0.3205  0.2242
13260W        W28729   3.878  13.290  13.898 -0.2147 -0.3830 -0.0255
13261W        W28730   8.984  14.658  15.085 -0.2218 -0.0176 -0.0648
13262W        W28731  16.597   7.998  12.089 -0.3786 -0.0908 -0.1773
13263W        W28732   4.400   2.852   4.757 -0.3704 -0.0436  0.5323
13264W        W28733   3.771  11.629  13.284  0.1040  0.0234  0.2549
13265W        W28734   8.226   2.062   2.950 -0.1046  0.1241 -0.1129
13266W        W28735  11.740  17.354   2.367  0.1800  0.1490  0.1614
13267W        W28736   4.962  13.065  14.325 -0.0080  0.1218 -0.0460
13268W        W28737  14.201  16.242  11.583 -0.2350 -0.3860 -0.1778
13269W        W28738   5.741   3.067   1.556  0.4197  0.2465  0.0149
13270W        W28739   9.893  15.132  13.421 -0.3115  0.2385 -0.1094
13271W        W28740   8.866   6.359  15.769  0.0122 -0.3641 -0.0105
13272W        W28741  11.762  14.518  11.309  0.0236 -0.0466  0.0960
13273W        W28742   6.242   9.436  12.465  0.2555  0.2608  0.1630
13274W        W28743  11.439  10.570   5.235 -0.0155 -0.0443  0.0836
13275W        W28744   5.251   2.828  10.999 -0.1527 -0.1573 -0.1948
13276W        W28745   0.687   5.666   3.184  0.1871 -0.0398  0.0469
13277W        W28746   9.802  12.913   0.915 -0.1532  0.0351  0.0515
13278W        W28747   2.213   9.414   4.709 -0.0020 -0.1370 -0.1880
13279W        W28748   3.476  12.869   0.977 -0.0349 -0.3258  0.0800
13280W        W28749  10.815   2.069  13.195  0.0513 -0.0909  0.0649
13281W        W28750  12.864   2.628  12.387  0.0156  0.2237 -0.1864
13282W        W28751   6.679  14.953   5.162  0.0283 -0.0922 -0.2400
13283W        W28752  16.788  16.662  15.033  0.4052 -0.1960  0.1425
13284W        W28753   6.832  13.529   3.018  0.2174  0.2704 -0.1197
13285W        W28754   6.353  15.929   3.573  0.3362 -0.1281 -0.2235
13286W        W28755  14.143   8.778   0.362  0.4275 -0.0790  0.3759
13287W        W28756  11.901   1.626  15.499 -0.0312  0.1460  0.0306
13288W        W28757   7.882  12.793   4.623  0.2447  0.0715 -0.0926
13289W        W28758   3.437  16.510   5.221 -0.0743 -0.3571  0.1096
13290W        W28759  17.695   7.483   5.930 -0.1241 -0.0171  0.1556
13291W        W28760   7.564  15.898   2.238  0.1596 -0.1252 -0.1178
13292W        W28761  14.943  17.076   4.821  0.0894 -0.3716 -0.0648
13293W        W28762   2.183  10.384   9.970 -0.0186 -0.2716  0.0532
13294W        W28763   3.407  16.281  10.977 -0.0476 -0.2363 -0.1340
13295W        W28764   2.441   7.890  13.917  0.0189 -0.4543  0.0578
13296W        W28765   9.026   6.039   5.476 -0.0427 -0.0634  0.1630
13297W        W28766   9.027  11.360   0.562  0.5264 -0.1755 -0.0247
13298W        W28767   5.306   0.307   0.382 -0.2131 -0.2056 -0.3183
13299W        W28768  12.387  17.645   3.041 -0.0341  0.1417  0.0780
13300W        W28769   9.055   7.895   4.712  0.0677  0.2884 -0.0200
13301W        W28770  11.942  10.671   1.975 -0.1045 -0.0466 -0.1054
13302W        W28771   8.392   0.691   2.577  0.1251  0.1946 -0.0262
13303W        W28772  13.254   7.079  13.275 -0.0331 -0.1007 -0.1031
13304W        W28773   2.136   1.838   5.493  0.0186 -0.0442  0.2848
13305W        W28774  16.253   0.401  14.341  0.0482  0.0533  0.1403
13306W        W28775   0.789   2.525   1.003 -0.1212  0.2043  0.1616
13307W        W28776  13.359   9.690   1.897  0.1302  0.0203  0.1393
13308W        W28777   2.372  13.915  13.852 -0.3071 -0.1726 -0.1393
13309W        W28778   5.485  14.583   0.980 -0.2075  0.1789  0.1025
13310W        W28779  16.858   4.302   4.080 -0.3181  0.0299  0.1016
13311W        W28780   1.263  12.415   1.319  0.1417  0.2421 -0.0190
13312W        W28781  18.275  17.460  12.095 -0.0653  0.3241 -0.2289
13313W        W28782  16.051   2.825   2.231  0.0735  0.3491 -0.0841
13314W        W28783  13.734  18.245  12.301  0.2438 -0.1910 -0.0365
13315W        W28784   4.095  14.244  12.876 -0.2059  0.0188 -0.1978
13316W        W28785   6.422   4.322   1.505  0.0648 -0.0745  0.0376
13317W        W28786   1.677   0.157  13.012  0.1129  0.0382 -0.0859
13318W        W28787   4.068   8.976   2.926  0.2068 -0.1588  0.1642
13319W        W28788  12.006   5.270   3.682  0.0587 -0.2074 -0.3207
13320W        W28789   5.329   4.895   3.239 -0.2262  0.1220  0.0918
13321W        W28790  13.001  15.758   0.881  0.0677  0.0241  0.0213
13322W        W28791   1.847   7.900  11.547 -0.2543  0.0994  0.1548
13323W        W28792   1.947  17.572   0.599 -0.3180  0.0332 -0.2507
13324W        W28793  12.792  13.302   2.196 -0.2893  0.1370 -0.2100
13325W        W28794   8.017  16.198   6.117 -0.1674  0.0322 -0.2672
13326W        W28795   8.386  11.736   5.553 -0.1664  0.2218 -0.1697
13327W        W28796   7.564   2.819  12.146  0.0376  0.0134  0.0536
13328W        W28797   3.891  11.317   2.235 -0.0245  0.2411 -0.2921
13329W        W28798   8.382   0.671   1.100  0.2342  0.0374  0.2032
13330W        W28799   5.394  17.365  16.079  0.0371 -0.0322 -0.2713
13331W        W28800  10.016   0.254  13.095  0.1867  0.0285 -0.1671
13332W        W28801  11.226  10.151   2.331 -0.1665 -0.0282  0.2699
13333W        W28802   1.468   7.884   1.866  0.1895 -0.0512  0.0171
13334W        W28803  14.116  15.235   1.993  0.0365 -0.1555 -0.0687
13335W        W28804  16.168  14.818  12.503 -0.0999  0.3899 -0.0327
13336W        W28805  16.822  14.837  12.343  0.2498 -0.1003  0.3333
13337W        W28806   2.056   8.223  15.694 -0.0627  0.0517  0.4655
13338W        W28807  14.832  16.780   1.147  0.2817  0.2291 -0.5166
13339W        W28808  11.325  15.514  12.442 -0.0526  0.0067 -0.1013
13340W        W28809  14.241   1.834  13.486  0.1668 -0.1204  0.0854
13341W        W28810  11.707   7.069  15.515  0.0916  0.1085  0.1844
13342W        W28811   1.702   9.171  12.289 -0.1820  0.1090  0.0320
13343W        W28812  11.228   3.704  15.415 -0.0854  0.0519 -0.2126
13344W        W28813  14.510   5.487   4.523  0.1997  0.1040 -0.3565
13345W        W28814  12.612   2.421   6.129  0.0964 -0.0559 -0.1125
13346W        W28815  14.445   0.208  11.142 -0.1077 -0.0879  0.1659
13347W        W28816  15.615   7.500   2.605  0.1118  0.1052 -0.4115
13348W        W28817   4.711   0.184  11.567  0.0218  0.2049 -0.0576
13349W        W28818   6.619  15.281  14.259  0.3571  0.1719  0.3307
13350W        W28819   8.469   9.325   4.503 -0.3765 -0.0026  0.0364
13351W        W28820   0.540   1.811  13.047 -0.0256  0.0592  0.0179
13352W        W28821  13.541   3.461   2.352 -0.1107  0.0218 -0.1049
13353W        W28822  13.544   5.850  13.875  0.0689  0.0520 -0.2984
13354W        W28823   4.808   9.876  12.255  0.2448 -0.0227 -0.2308
13355W        W28824   4.213  15.456  14.296  0.0701 -0.2209 -0.0936
13356W        W28825   6.509  12.627   4.339  0.0279  0.0127 -0.0360
13357W        W28826   7.555  11.155   3.430 -0.2172 -0.1041  0.0498
13358W        W28827   5.498   4.220  13.461  0.0295 -0.0089  0.0384
13359W        W28828  11.333   1.075  12.636 -0.1142 -0.1979  0.1614
13360W        W28829  15.266   1.038   5.609  0.3906 -0.0610 -0.0771
13361W        W28830   9.427   1.350  12.472 -0.1282  0.0229  0.0222
13362W        W28831   1.638  15.854   0.887 -0.0260  0.1308  0.0398
13363W        W28832   1.727  15.576   3.539  0.0957  0.3277 -0.0272
13364W        W28833   1.336   3.956  15.392 -0.1033 -0.0750  0.1870
13365W        W28834   8.143   5.437   0.010  0.0412 -0.1215 -0.0210
13366W        W28835  16.329   9.386   5.464  0.0287 -0.0771 -0.2925
13367W        W28836   1.611   8.208  11.866  0.0704  0.1176  0.2455
13368W        W28837   5.948   7.943  11.607  0.0192  0.2245  0.1202
13369W        W28838   9.903   8.579  15.404 -0.1016  0.2781 -0.2398
13370W        W28839   6.290   6.098  10.468 -0.0274  0.1614  0.1189
13371W        W28840  10.186  10.746  15.274 -0.0407  0.0046  0.1382
13372W        W28841  12.626   6.129   4.948 -0.0143  0.2672  0.4223
13373W        W28842   1.603   4.537  11.214  0.2335  0.0977  0.2563
13374W        W28843   2.170  12.442  14.228  0.1149  0.0577 -0.1097
13375W        W28844   3.011  14.027  15.545 -0.0746  0.1302 -0.0750
13376W        W28845   2.787   7.310   6.103  0.0262 -0.0156  0.0442
13377W        W28846  11.413  14.970  12.399  0.2630 -0.0954 -0.1069
13378W        W28847   9.638   0.106   4.092  0.3409  0.1120 -0.1466
13379W        W28848   2.619   7.568   5.188 -0.1753  0.0281  0.0886
13380W        W28849  14.960   0.805  11.420 -0.0917 -0.2826  0.0992
13381W        W28850  17.085  18.079   4.387 -0.1241 -0.1855  0.2538
13382W        W28851  14.273   1.160   5.526 -0.0052  0.0123 -0.4397
13383W        W28852  14.866   9.430   3.626  0.2473  0.1171  0.0387
13384W        W28853  13.884   0.713  12.912  0.2017  0.0069 -0.2150
13385W        W28854  14.665   6.449  14.639 -0.1398 -0.1971  0.5664
13386W        W28855   8.379  14.768   4.666  0.1654  0.1042  0.0385
13387W        W28856   8.581  10.019  12.742  0.3122 -0.0477 -0.2949
13388W        W28857  15.486  13.429   3.653  0.0904  0.2425 -0.1594
13389W        W28858  17.232  13.605   5.868 -0.1603 -0.1772  0.1525
13390W        W28859   7.567   8.239  11.025 -0.5007 -0.3044 -0.3182
13391W        W28860  14.264   7.787   0.006 -0.2368 -0.2104 -0.0540
13392W        W28861  14.845   4.724   1.442  0.0792  0.1621 -0.1693
13393W        W28862  12.606  17.416  11.032 -0.1307 -0.1489 -0.0902
13394W        W28863   6.982  15.330   5.192  0.0003  0.1451 -0.1023
13395W        W28864  16.402  14.788  14.290  0.2296 -0.0499  0.1705
13396W        W28865   4.540  10.829   2.633  0.1102 -0.3683  0.1317
13397W        W28866   8.486  12.550   3.318 -0.1147  0.1681  0.1287
13398W        W28867  14.344   2.718   5.007  0.0241  0.3342  0.4024
13399W        W28868  10.792   0.559   4.325 -0.3238  0.0876 -0.0744
13400W        W28869   3.551   4.049  10.899  0.0403  0.0253 -0.1055
13401W        W28870   9.827  14.568  13.341  0.1016 -0.2514  0.0008
13402W        W28871   7.599  13.265   4.890 -0.1330  0.1837  0.2244
13403W        W28872   7.997   1.870  12.003  0.3766 -0.1209  0.2500
13404W        W28873   5.867   0.559   1.226  0.1326 -0.1547 -0.1015
13405W        W28874  10.312   6.204  14.719 -0.0234  0.0167  0.0102
13406W        W28875   4.548   2.636   3.961  0.1033  0.0410  0.0966
13407W        W28876  11.621  11.230  11.377 -0.2478 -0.1099 -0.1931
13408W        W28877   0.431   4.870   3.022  0.4444  0.2020  0.4644
13409W        W28878  16.066   4.984   0.079 -0.0355  0.1040 -0.1480
13410W        W28879   8.728  10.761   4.570 -0.0996  0.1165 -0.0229
13411W        W28880  13.336  10.864   4.768 -0.3253 -0.1815 -0.1520
13412W        W28881   5.773   4.146  14.670  0.1279 -0.1627  0.3116
13413W        W28882  17.059   6.088  13.299 -0.1401  0.0359  0.0726
13414W        W28883   9.660   3.089   1.982 -0.3495  0.2889 -0.1950
13415W        W28884   0.492   2.277   1.295 -0.1517 -0.1116 -0.1018
13416W        W28885  17.264   8.795  12.045 -0.1720 -0.1123 -0.3124
13417W        W28886   6.314  16.958  10.483  0.2050  0.2133  0.2084
13418W        W28887  10.567  15.839  14.401  0.3544 -0.1035  0.1622
13419W        W28888  14.577   9.509  14.583 -0.2366 -0.0213 -0.4439
13420W        W28889  11.498   4.818   2.708 -0.2734 -0.2463  0.2778
13421W        W28890  10.261   1.575   1.827 -0.1782  0.1032 -0.0387
13422W        W28891   3.727  11.534  11.868  0.1830  0.0131 -0.0876
13423W        W28892   4.992   1.770  15.361 -0.1963  0.1827 -0.3954
13424W        W28893   3.702  17.762   1.512  0.2935 -0.1329 -0.1000
13425W        W28894  11.378  13.219  11.517 -0.1056  0.5365  0.1561
13426W        W28895  17.188  10.738   9.499  0.2251  0.1338  0.0534
13427W        W28896  17.587   5.382   0.635  0.2257  0.2543 -0.1429
13428W        W28897  16.135   7.069  12.652 -0.0800  0.1941  0.1198
13429W        W28898   8.739   2.219  12.502 -0.1693 -0.2951  0.1384
13430W        W28899   6.039  11.686   0.374 -0.0210  0.3007 -0.0750
13431W        W28900   8.201  12.915   3.982 -0.0088 -0.0137  0.1496
13432W        W28901  13.796   8.918  15.412 -0.1038 -0.0977 -0.0805
13433W        W28902   2.631  13.744  12.236  0.2861  0.1122  0.1372
13434W        W28903  16.171   1.268  15.963  0.3162  0.2152 -0.2905
13435W        W28904  13.624   3.566  13.967  0.1342 -0.0434 -0.1380
13436W        W28905  11.960   4.933   2.990 -0.0660  0.2736 -0.0485
13437W        W28906   4.385  13.821   0.165  0.2017  0.0791  0.3854
13438W        W28907   5.008   2.804  12.417 -0.2521 -0.0196 -0.1406
13439W        W28908  14.854   5.107   4.485  0.1215  0.0625  0.0211
13440W        W28909   9.150  13.968  10.505  0.0132 -0.0073 -0.2461
13441W        W28910  12.343  14.857  15.353  0.2150 -0.1025  0.0566
13442W        W28911  10.694  16.044   3.653  0.1225  0.3959 -0.0390
13443W        W28912   5.877  10.177  12.872 -0.1472  0.0969 -0.0156
13444W        W28913   9.659   5.447   2.216  0.1598  0.2233  0.1165
13445W        W28914   0.102  13.175   0.052 -0.1431  0.1115 -0.0222
13446W        W28915   5.586  16.444   1.114 -0.2858  0.0501 -0.0693
13447W        W28916   2.926   5.764  12.586 -0.2562  0.0664  0.0001
13448W        W28917   8.283   2.562  11.710 -0.2386 -0.0795  0.3790
13449W        W28918  13.020  12.744  15.756 -0.2507  0.2754 -0.2018
13450W        W28919   8.976   9.025   2.068 -0.0059 -0.2399  0.0220
13451W        W28920   0.065  12.028   4.935 -0.0740 -0.0126 -0.1104
13452W        W28921   6.840  10.435   0.262  0.1747 -0.2838 -0.0204
13453W        W28922  14.718   7.956  15.799 -0.2129  0.0231  0.0722
13454W        W28923  15.567   9.790  13.263  0.0175  0.2193  0.0981
13455W        W28924   9.697  14.069   5.392 -0.2427 -0.1462 -0.1864
13456W        W28925  11.144  16.329  14.736  0.3510  0.2278 -0.1922
13457W        W28926   0.256  15.396  11.992 -0.0333 -0.4011 -0.1567
13458W        W28927   0.227   4.699  11.565  0.0486 -0.2010  0.3547
13459W        W28928   5.589  11.446   1.236 -0.0899  0.0773  0.0718
13460W        W28929   1.232   2.335   4.220  0.0576  0.0445  0.2775
13461W        W28930  17.167   2.970   3.724  0.0531  0.2292 -0.2732
13462W        W28931   9.878  17.334  13.761 -0.1983  0.3159 -0.4302
13463W        W28932   4.128   0.745  12.197 -0.0319  0.0766 -0.1218
13464W        W28933   9.054   2.229  11.102 -0.0158 -0.0098 -0.2514
13465W        W28934   8.970  16.699  14.845  0.2070  0.1326 -0.0049
13466W        W28935  11.170   5.029  15.689 -0.1276  0.1328 -0.1121
13467W        W28936   1.517   3.712   0.970 -0.1109 -0.2409 -0.0938
13468W        W28937   1.592   9.511  14.391 -0.3195  0.1053  0.0543
13469W        W28938  15.649   4.135   5.421  0.2375  0.1287 -0.1937
13470W        W28939  15.312   8.941   1.209  0.1379  0.4857  0.3739
13471W        W28940  12.985   4.923  10.951  0.1895  0.2960  0.0094
13472W        W28941   6.202  11.680  10.199  0.1291 -0.0653  0.1699
13473W        W28942  12.046   9.583   1.138  0.0042 -0.2380  0.1932
13474W        W28943   7.136   2.449  12.983 -0.0180 -0.2835 -0.1688
13475W        W28944   6.823   4.782  11.057  0.0144  0.1322 -0.0328
13476W        W28945  16.507  14.173  14.427  0.2877 -0.1367 -0.0400
13477W        W28946   7.043  13.722   4.704  0.0912  0.1958 -0.0057
13478W        W28947   8.912  16.286   5.478  0.0360 -0.1338 -0.2797
13479W        W28948   8.823  14.686  13.109  0.1445  0.0935 -0.0161
13480W        W28949   5.034   1.948  12.280 -0.3174  0.1277  0.0834
13481W        W28950  12.617   1.554   0.570 -0.2014  0.2502  0.1047
13482W        W28951  14.304   4.936   0.275  0.0764  0.1265  0.1035
13483W        W28952  11.626   0.020   5.814 -0.0844 -0.1290  0.0038
13484W        W28953   9.030  13.003  15.732 -0.0961  0.1189  0.0266
13485W        W28954   0.046  14.067  12.023  0.0236  0.2129  0.2306
13486W        W28955  15.081   5.993   4.490  0.1409 -0.0043 -0.2455
13487W        W28956   9.841   3.758   2.275  0.1321 -0.1662 -0.3194
13488W        W28957  12.329  16.988   0.076  0.1120  0.2155 -0.1039
13489W        W28958  12.556  16.346   5.076 -0.1976 -0.0123 -0.1759
13490W        W28959   9.107   7.008   2.590 -0.0294  0.1356  0.1542
13491W        W28960   4.352  15.503   4.607  0.3088  0.1955  0.1872
13492W        W28961   6.902  15.654  14.410 -0.1829  0.0799  0.0849
13493W        W28962  11.058   8.281  13.215 -0.1071 -0.1212  0.1800
13494W        W28963   2.362  14.220  12.318 -0.3091  0.2150  0.1363
13495W        W28964   0.812  15.291   6.175 -0.1306 -0.2120  0.0497
13496W        W28965   2.639   2.301  13.810  0.0112  0.4164 -0.0312
13497W        W28966  14.261  14.163   4.707  0.0574 -0.0519 -0.0235
13498W        W28967   0.595  13.789   4.839 -0.2335 -0.0087  0.2454
13499W        W28968  11.489  11.196   5.208  0.1286  0.1711 -0.1127
13500W        W28969   5.927  17.466  16.069 -0.1493  0.0004  0.0061
13501W        W28970  17.363   1.033  13.604  0.2751  0.3005  0.0284
13502W        W28971   1.983   2.654  10.320 -0.2434  0.2144  0.0780
13503W        W28972   0.949   1.351   2.716 -0.0519  0.0283 -0.1937
13504W        W28973   4.854   3.137   3.978 -0.0641  0.2351 -0.3331
13505W        W28974   9.741   9.205  11.374 -0.1992  0.4631 -0.1279
13506W        W28975   6.330   4.168  15.967 -0.1682  0.1159 -0.0475
13507W        W28976   0.070  10.706   3.125  0.3164  0.1282 -0.0050
13508W        W28977   7.353  17.074   5.433  0.1535 -0.3534 -0.1112
13509W        W28978   2.128  12.809  12.007  0.0620 -0.1423  0.2206
13510W        W28979  16.858  13.144  14.258 -0.0678  0.1027  0.3246
13511W        W28980   7.719  17.851   1.872 -0.2073  0.1842 -0.0315
13512W        W28981   1.468   1.547   0.227  0.2127  0.1396 -0.0529
13513W        W28982   5.960  14.110  15.696 -0.1249 -0.2601  0.1907
13514W        W28983   9.301  13.580   4.128  0.1441 -0.1676  0.0590
13515W        W28984  14.589  11.021   6.053  0.1121  0.1214  0.1471
13516W        W28985   4.750  13.330   5.391 -0.1414  0.0422  0.3271
13517W        W28986   8.541  15.822   4.440 -0.0293 -0.1771 -0.0286
13518W        W28987   3.344  15.468  11.391 -0.0901  0.1783  0.0133
13519W        W28988  17.979  14.235   1.390 -0.1289  0.0428  0.0385
13520W        W28989   1.735  13.496   3.599  0.0360 -0.0843  0.0294
13521W        W28990   5.335   4.751  10.920 -0.1287 -0.0456 -0.2495
13522W        W28991   6.368   8.336  14.693 -0.0464 -0.0414  0.1696
13523W        W28992   9.872  14.638  14.819  0.3486 -0.0663  0.2080
13524W        W28993   4.611  18.145   9.706  0.1286 -0.2169 -0.1779
13525W        W28994   9.599  16.798   1.211 -0.2295 -0.3533 -0.0118
13526W        W28995   0.387   7.323  12.654  0.4141 -0.0559  0.1773
13527W        W28996   4.330  11.342   2.556 -0.0254  0.1455  0.2229
13528W        W28997   3.376  12.602   4.117 -0.1181  0.0867 -0.3812
13529W        W28998  15.081  10.868   5.409 -0.2045  0.2043 -0.0267
13530W        W28999  13.351   2.602   5.503 -0.0211 -0.0157  0.0270
13531W        W29000   6.261   2.924   3.317 -0.1915  0.0864  0.2482
13532W        W29001   1.052   9.944  15.383  0.1154  0.1297  0.0424
13533W        W29002   6.591  12.338   4.745  0.0470  0.0237  0.2120
13534W        W29003   3.901  15.806  10.996 -0.0795 -0.2674  0.0471
13535W        W29004  14.745  12.864   1.351  0.2773 -0.0594 -0.3610
13536W        W29005  18.006   3.255   1.482 -0.1761  0.3256  0.0186
13537W        W29006   6.812  11.742   9.921  0.2928 -0.1285 -0.1241
13538W        W29007  17.837  13.941   3.702  0.2864 -0.0915 -0.1088
13539W        W29008   9.419   3.841   0.777  0.0239  0.1040 -0.3274
13540W        W29009  15.217   2.829  12.867 -0.0555  0.0577 -0.0304
13541W        W29010   3.647  14.893   0.853  0.0841 -0.2411  0.0920
13542W        W29011  17.463   7.941  10.727  0.1699 -0.2353 -0.0253
13543W        W29012  14.790  13.487  12.250 -0.0237  0.2300 -0.1767
13544W        W29013   8.972   4.907  12.996 -0.1877  0.0479 -0.0416
13545W        W29014   7.644   5.431   0.336 -0.1090  0.4905  0.1037
13546W        W29015   1.453   1.504   3.916  0.0703 -0.0354 -0.3832
13547W        W29016   1.648   2.658   0.272  0.2786 -0.0627 -0.0573
13548W        W29017  11.272   7.061  14.837 -0.2532  0.0084  0.2222
13549W        W29018  14.867   2.712   3.949 -0.0997  0.1503 -0.1418
13550W        W29019   4.318   6.574   4.094 -0.1332 -0.2907 -0.0213
13551W        W29020   1.744   5.906   3.727  0.1413 -0.0610  0.0254
13552W        W29021  10.118  12.235   4.717 -0.0656  0.2562  0.1109
13553W        W29022  13.121   6.359  13.829 -0.0638 -0.1936  0.1870
13554W        W29023   2.737   7.255   1.915 -0.1081  0.2973  0.4388
13555W        W29024  12.105  11.330  13.796 -0.1379  0.0451 -0.0554
13556W        W29025   6.732   4.021   3.845  0.0744  0.0120 -0.0294
13557W        W29026   6.002   8.505  14.999  0.1486 -0.1386  0.0716
13558W        W29027  12.376   9.116   3.566 -0.0561  0.0477 -0.0174
13559W        W29028  16.019   4.298   4.425  0.1221  0.2420 -0.1340
13560W        W29029   8.590   4.033  14.575  0.3136 -0.0252 -0.3005
13561W        W29030  15.674   9.660   5.514 -0.0322 -0.2175 -0.1196
13562W        W29031   9.828   1.719   4.151 -0.0185  0.0302 -0.2387
13563W        W29032  11.144  11.488  15.220  0.4047 -0.2948 -0.4864
13564W        W29033  11.322  10.511   4.057  0.4065  0.4200 -0.1972
13565W        W29034   5.005   9.252  14.534 -0.0665 -0.0921 -0.1021
13566W        W29035  15.323  16.671  11.809  0.1110  0.0602  0.0346
13567W        W29036   7.878   0.647   0.646 -0.3433 -0.1010 -0.2001
13568W        W29037  14.373   5.833   5.152 -0.0731  0.0855 -0.0238
13569W        W29038  13.099   3.617   2.050  0.0775 -0.0346 -0.1892
13570W        W29039  17.034   4.124   1.775 -0.1207  0.0590 -0.2471
13571W        W29040  13.356   2.148  10.470  0.0751  0.0653 -0.4358
13572W        W29041  15.062  10.688   4.896  0.0109  0.1456 -0.3177
13573W        W29042  11.006   9.773  12.451 -0.0295  0.0281 -0.1938
13574W        W29043   4.197  14.040  11.544 -0.1956 -0.1262  0.0079
13575W        W29044  11.413   7.677   1.390  0.0017 -0.2406 -0.0723
13576W        W29045  15.674   6.021  13.894 -0.1236  0.0239  0.1769
13577W        W29046   0.006  10.992  12.445 -0.3481 -0.1286  0.0831
13578W        W29047   9.254   4.014   3.654 -0.3012 -0.1534  0.1828
13579W        W29048  16.965   7.822   4.866  0.2705  0.1163 -0.0121
13580W        W29049   2.908  12.585   2.783 -0.0824 -0.0032  0.2258
13581W        W29050   8.058  15.116  13.140  0.0489 -0.1306 -0.1713
13582W        W29051  17.580  13.955  13.942 -0.1367  0.1862  0.1033
13583W        W29052   5.439  13.377  11.439 -0.0866  0.1070  0.1406
13584W        W29053   7.014  16.409  16.028 -0.0954 -0.0589  0.0206
13585W        W29054   8.291   9.006  12.647 -0.1604  0.2024  0.1068
13586W        W29055  16.864  16.026   5.854  0.3893  0.5039 -0.1140
13587W        W29056  16.069   7.496  13.870  0.0753 -0.0659 -0.0020
13588W        W29057  15.176  11.322   1.082 -0.0115  0.2182 -0.2378
13589W        W29058  16.919   7.720   0.743  0.2240  0.0471  0.1597
13590W        W29059  14.709  12.017   1.492 -0.3260 -0.1409 -0.2470
13591W        W29060   7.313  18.249  15.681  0.0306 -0.0624 -0.0615
13592W        W29061   5.870  16.679   4.679  0.3671  0.2785  0.1373
13593W        W29062  17.714   0.975   1.451 -0.0244  0.1369 -0.2508
13594W        W29063   2.459   6.316   0.931 -0.1882  0.2375 -0.0661
13595W        W29064   1.374  15.144   2.489  0.3581 -0.0621  0.0054
13596W        W29065   7.841  14.794   5.664  0.0053  0.1692 -0.1630
13597W        W29066  11.154   8.058  15.978  0.0460  0.1606 -0.1232
13598W        W29067   5.210  13.017   1.606  0.5729  0.0698 -0.1444
13599W        W29068   6.939   5.078  14.755  0.2203 -0.1751 -0.3091
13600W        W29069  11.732   5.287   4.530  0.0873  0.0940 -0.0265
13601W        W29070   8.350   1.972  13.352 -0.0647  0.1228  0.1517
13602W        W29071  17.022  13.811  15.200  0.0858 -0.1431 -0.1675
13603W        W29072   0.501   6.226   2.232 -0.1802 -0.0540 -0.3767
13604W        W29073   9.676  14.404  15.862  0.0327  0.0223  0.2738
13605W        W29074   9.446   9.465  12.503  0.1237 -0.1093  0.5636
13606W        W29075  15.077   8.007  12.524  0.0270  0.0916 -0.1314
13607W        W29076   0.518  14.162  15.500 -0.0816  0.1005 -0.1654
13608W        W29077   3.150  13.555  13.119 -0.1307 -0.0653  0.1522
13609W        W29078   9.148  10.249  13.727 -0.0455 -0.0457 -0.2062
13610W        W29079  14.074  10.145   2.949 -0.0767  0.0100 -0.2601
13611W        W29080   6.701   6.763  12.141  0.0868 -0.5054  0.0244
13612W        W29081  16.624  16.758   1.182 -0.0040 -0.4413  0.2597
13613W        W29082  12.919   2.118  11.494  0.4261 -0.0056  0.1266
13614W        W29083   3.686   1.356  13.545  0.2327 -0.0034 -0.0403
13615W        W29084   0.343   1.350   1.608 -0.1916  0.2217  0.3604
13616W        W29085  10.270  11.379   4.702 -0.2533  0.2582 -0.0267
13617W        W29086   8.892   7.875  14.953 -0.1281  0.1476 -0.0175
13618W        W29087  11.751  15.618   2.027  0.1513 -0.0200  0.0306
13619W        W29088  17.963   1.319   2.897  0.0465 -0.1095  0.1604
13620W        W29089  12.711  14.444  11.154 -0.1600  0.2089 -0.1081
13621W        W29090   6.948   5.221   4.844 -0.0068  0.3327  0.0164
13622W        W29091   5.289  17.984   3.303 -0.0800 -0.0748 -0.0366
13623W        W29092   7.245   7.468   1.387 -0.0128 -0.2409 -0.4877
13624W        W29093   0.082   2.881   3.544 -0.0237 -0.3356 -0.2657
13625W        W29094   2.929  10.342  12.914  0.1095 -0.2832  0.0382
13626W        W29095  13.038  13.754   0.671 -0.0664 -0.0734  0.1647
13627W        W29096   5.176  16.588   4.271 -0.1529  0.1567 -0.0768
13628W        W29097   3.246  14.401  15.283 -0.0625 -0.2870  0.0422
13629W        W29098   8.628   6.142   2.750  0.1293 -0.3173  0.1891
13630W        W29099  11.689   5.806  11.343  0.2243  0.0283 -0.1257
13631W        W29100   9.896  16.341   0.563 -0.1069 -0.0675  0.1078
13632W        W29101  16.284   7.431   3.770  0.2185  0.0300 -0.0622
13633W        W29102   7.087  14.575  13.966 -0.0270 -0.2324 -0.1447
13634W        W29103   5.209   0.174  11.580  0.1073 -0.1915  0.0605
13635W        W29104   6.328   0.535   4.886  0.1874 -0.1278  0.2651
13636W        W29105   3.279  13.242  13.876  0.0135  0.0763 -0.1316
13637W        W29106   8.183  17.186   3.637  0.2028 -0.1087  0.2882
13638W        W29107   5.504   0.411   3.002  0.2656  0.1020 -0.3654
13639W        W29108  11.536   9.678  14.261  0.1030  0.0038  0.0041
13640W        W29109   2.983   0.157  12.545  0.0555 -0.3118 -0.3142
13641W        W29110   9.716   9.809  12.816 -0.3100 -0.0350  0.0853
13642W        W29111  16.157  17.082   2.962 -0.3438  0.2268 -0.0415
13643W        W29112   6.621   9.973  12.734  0.0872 -0.1410  0.1672
13644W        W29113   5.000   9.689   0.678 -0.1501  0.2782 -0.0863
13645W        W29114   2.664   8.929  13.062  0.1241  0.1636  0.0185
13646W        W29115   6.094   4.637   1.796 -0.0040 -0.0761 -0.0574
13647W        W29116  14.427  14.995  12.129  0.1607 -0.0192 -0.2152
13648W        W29117   3.916  11.094   1.316 -0.1001 -0.1441 -0.0043
13649W        W29118   0.992   4.968   4.467 -0.0662 -0.2299  0.2001
13650W        W29119   1.379   9.694   1.441  0.2195  0.1952 -0.2025
13651W        W29120   3.988  17.784   4.185  0.4792  0.0152  0.1074
13652W        W29121  10.640   6.760  13.029 -0.1075  0.0825 -0.0130
13653W        W29122  16.400   0.524  11.427 -0.0341 -0.3992  0.1872
13654W        W29123  18.140  14.754   5.380  0.0185  0.3578  0.1562
13655W        W29124  15.114  17.298  15.371 -0.0229  0.1735 -0.2312
13656W        W29125   9.146   3.717   2.814 -0.1710 -0.0656 -0.0769
13657W        W29126  15.838  15.469  14.241 -0.1606  0.0436  0.0791
13658W        W29127   1.604   2.756  12.533  0.0741 -0.2012  0.2175
13659W        W29128  17.107   3.533  12.105 -0.1522  0.1134 -0.2383
13660W        W29129  15.672  12.609   2.547  0.1716  0.0800 -0.1376
13661W        W29130  11.932  14.117  12.720  0.2310 -0.2539  0.3957
13662W        W29131   4.382   0.296  11.186  0.0501  0.1015  0.1692
13663W        W29132   9.338  10.090  14.472  0.0218  0.0075 -0.0866
13664W        W29133   9.420  14.716  14.617  0.0857  0.1353  0.1016
13665W        W29134   2.021   0.700   0.091  0.1008 -0.0699 -0.0276
13666W        W29135   1.651  11.633   4.524  0.0336  0.1411  0.3582
13667W        W29136  11.751   4.088   3.353 -0.5207  0.4222 -0.0684
13668W        W29137  15.801   4.934  13.753  0.0797  0.0546 -0.0062
13669W        W29138   0.220  15.152  15.645 -0.1869  0.0054 -0.1612
13670W        W29139  17.144   2.742   4.435  0.1172 -0.0983 -0.0301
13671W        W29140   7.194  15.540   4.716  0.1270  0.1917  0.2038
13672W        W29141   5.988   1.597  15.510  0.1096 -0.0244  0.0545
13673W        W29142   3.484  12.847  12.988 -0.1639  0.1864 -0.1776
13674W        W29143  10.012  17.224   4.129 -0.2652  0.0837  0.0214
13675W        W29144   1.513  14.293   1.865  0.0319 -0.1069 -0.2605
13676W        W29145   0.592   1.841  15.079  0.2393  0.1101  0.3522
13677W        W29146   8.158   9.362  11.197  0.0579 -0.0352 -0.2280
13678W        W29147   2.638  12.520  13.938  0.0914  0.0886 -0.1984
13679W        W29148   7.695   5.132   4.651 -0.0233 -0.0311  0.1085
13680W        W29149  12.677   9.343   4.723 -0.0328 -0.0493  0.1125
13681W        W29150  12.640  10.360  15.098  0.4165  0.0426  0.0313
13682W        W29151  11.133   6.943   4.233  0.0653 -0.2461  0.0773
13683W        W29152  17.554   7.528  12.606  0.1811  0.0927  0.0813
13684W        W29153   4.972  10.853  12.046  0.0257  0.1287 -0.2100
13685W        W29154  10.995   9.641   4.308 -0.0506  0.3090  0.1454
13686W        W29155  16.119  10.775  14.234 -0.0217  0.3549 -0.1258
13687W        W29156   5.011   3.221   0.709  0.2378  0.0471  0.1483
13688W        W29157  10.983  17.476   0.039 -0.2733  0.0964  0.4057
13689W        W29158   2.073   2.579   0.511  0.1308  0.0073 -0.3198
13690W        W29159   4.536  12.306  15.877  0.0420  0.1993  0.1192
13691W        W29160  12.939   4.072   4.989  0.2465  0.0957 -0.0436
13692W        W29161  13.443   4.157   5.076 -0.2107  0.0975 -0.3710
13693W        W29162   0.021  10.924   0.749  0.1933 -0.2244  0.2539
13694W        W29163   7.686   0.334  15.354 -0.2092  0.0474  0.2679
13695W        W29164   4.345  15.891  12.955 -0.2664  0.2321  0.0954
13696W        W29165   8.962  12.734  10.972 -0.1757  0.0771  0.0606
13697W        W29166   4.993  11.092  15.710  0.0183  0.1290  0.0809
13698W        W29167  15.492  11.283   5.315 -0.2219  0.1641 -0.2131
13699W        W29168  13.667   6.607   4.231  0.4864 -0.2086  0.0167
13700W        W29169  14.363   0.237   1.009 -0.1066 -0.0611 -0.2361
13701W        W29170  15.695  14.297  10.970  0.1694 -0.0093  0.0310
13702W        W29171   4.192   3.015   5.230 -0.1097  0.0114  0.0719
13703W        W29172   8.718   5.760  13.550 -0.1920  0.0989 -0.0414
13704W        W29173   8.122   8.567  12.455  0.0765  0.1696 -0.3831
13705W        W29174   8.440  11.161   4.698  0.2994  0.1882 -0.1482
13706W        W29175   1.895   1.542  13.514 -0.1455 -0.0865 -0.0014
13707W        W29176  15.479  12.642   5.049  0.0828 -0.0200 -0.0987
13708W        W29177   7.093  13.051  14.173 -0.0163  0.0227 -0.1762
13709W        W29178  14.998  10.410   4.007  0.0424  0.3583 -0.0884
13710W        W29179   0.950   9.842   6.173  0.0137  0.3531  0.1818
13711W        W29180  10.442  16.347   1.050 -0.1510  0.0234  0.2641
13712W        W29181  12.351  12.687   1.420 -0.1342 -0.0514 -0.0883
13713W        W29182   5.436  13.687   3.774 -0.1979  0.0247 -0.1022
13714W        W29183  16.248  16.514   3.795  0.0541  0.0086  0.1370
13715W        W29184  12.259   7.462  16.082 -0.0483  0.3463 -0.1232
13716W        W29185   1.022   2.884   4.263  0.0571  0.1213 -0.0772
13717W        W29186   1.054   0.914   3.077  0.0177 -0.1548  0.0231
13718W        W29187   8.778   4.675  12.623 -0.1769  0.0334 -0.0890
13719W        W29188   1.393   1.331   3.022 -0.1171  0.3421 -0.1100
13720W        W29189   6.963   4.977  12.175  0.1412  0.1126 -0.1090
13721W        W29190   3.727   0.842  15.435 -0.0309 -0.0467 -0.2189
13722W        W29191   1.221   5.923   2.971  0.1181  0.3982  0.0335
13723W        W29192   6.191  16.223  12.269 -0.0859 -0.1834 -0.1210
13724W        W29193  13.093  12.529   2.927  0.1571  0.2452 -0.0028
13725W        W29194   6.185   8.452  15.664  0.1642 -0.1245  0.2126
13726W        W29195  12.955  12.534  13.622  0.0364  0.1850 -0.2453
13727W        W29196  15.993   8.459  14.954 -0.1024 -0.0232 -0.4576
13728W        W29197  10.190  12.727   1.171  0.1468  0.2290 -0.1923
13729W        W29198  17.843   2.689  12.757 -0.1282 -0.0875 -0.2206
13730W        W29199   0.834  11.510   0.596 -0.1495 -0.1400 -0.0954
13731W        W29200   6.816  17.251  13.104 -0.1417  0.4758  0.2659
13732W        W29201   1.021  11.982  12.323 -0.0391 -0.0625  0.0733
13733W        W29202   8.118   9.019   1.801  0.0540 -0.0606 -0.1560
13734W        W29203   9.121   7.787   3.660 -0.0384 -0.1923  0.1774
13735W        W29204   9.386  17.698  12.360  0.5268  0.0051 -0.2970
13736W        W29205  10.948   4.991   5.095  0.1053 -0.0896  0.0665
13737W        W29206  11.573  14.615  12.096  0.1475 -0.1571 -0.1892
13738W        W29207   1.576  14.919   0.255 -0.1185 -0.0872 -0.2290
13739W        W29208   0.878   0.021  14.502  0.0453  0.2138  0.0505
13740W        W29209  14.676   7.548  14.292  0.0564 -0.0053 -0.3398
13741W        W29210  17.283   8.882  13.381 -0.1057 -0.2132 -0.2134
13742W        W29211   0.097   8.714  15.536  0.0601 -0.1291 -0.0457
13743W        W29212  15.015  11.517  11.243 -0.1397  0.0014 -0.3115
13744W        W29213  15.045   2.237   3.390 -0.0363 -0.0501  0.0591
13745W        W29214   8.685   4.504  14.360 -0.3255 -0.0693  0.1589
13746W        W29215   6.533  17.963   0.273  0.1256 -0.1202  0.1392
13747W        W29216  12.973  13.511  14.697  0.0986 -0.0252 -0.2537
13748W        W29217   3.947  17.366   2.278  0.0137 -0.0026 -0.0949
13749W        W29218   1.325   6.658  13.643 -0.2113  0.2125 -0.1848
13750W        W29219  16.804  12.195   2.584 -0.1433 -0.0974  0.2530
13751W        W29220  17.432  13.788  14.371 -0.4178 -0.0634 -0.1347
13752W        W29221   6.942   3.344  13.822  0.0738  0.1611 -0.3662
13753W        W29222   9.662  17.741  15.324  0.3602  0.2546  0.1342
13754W        W29223  14.848   1.818   0.437  0.1144  0.1713  0.2178
13755W        W29224   9.798  16.531  11.669 -0.0772 -0.4340 -0.3187
13756W        W29225  14.471   1.305  15.377  0.2070 -0.0537 -0.1862
13757W        W29226  17.152  10.938  13.239 -0.1495  0.1427  0.3159
13758W        W29227   3.113  17.768  14.478  0.0652 -0.1630  0.0878
13759W        W29228  10.282  10.711   3.926  0.1002 -0.2583 -0.0858
13760W        W29229  17.624   1.383  14.582 -0.0807 -0.1310 -0.1698
13761W        W29230   2.548   1.798   0.847 -0.1058 -0.1935 -0.0416
13762W        W29231   4.002   2.451  16.033 -0.1902  0.1497 -0.2406
13763W        W29232  12.008   5.694   0.635  0.0965  0.0353 -0.1957
13764W        W29233   0.751   2.699   0.033  0.0244  0.1050 -0.0617
13765W        W29234   7.922   4.675  13.542 -0.0743 -0.0308 -0.2655
13766W        W29235   4.377  14.292  15.398 -0.0795  0.2614  0.0282
13767W        W29236   8.025  15.730   5.086 -0.1299  0.0733  0.1766
13768W        W29237   7.360  13.448  15.803  0.0733  0.2457 -0.0076
13769W        W29238   3.878   9.322  13.560  0.1622  0.1583 -0.0662
13770W        W29239   7.465   7.713   4.174 -0.1829 -0.1059  0.1531
13771W        W29240   0.753  18.205   1.602 -0.1164  0.1418  0.3148
13772W        W29241   3.757  10.190   0.964 -0.0499 -0.2410  0.1559
13773W        W29242   6.751  12.478  13.656 -0.3989 -0.1882 -0.1446
13774W        W29243  17.669   2.283  15.512  0.2678  0.0454  0.2209
13775W        W29244  12.009  12.760  14.506  0.2224  0.1010 -0.0056
13776W        W29245  16.644   8.922  11.393 -0.1734  0.0155 -0.1615
13777W        W29246   8.926   3.778   3.248 -0.1574  0.2097 -0.3518
13778W        W29247  16.688   6.185   0.409  0.3436  0.0908  0.0528
13779W        W29248   2.996  11.531  15.854 -0.1781 -0.2103 -0.4027
13780W        W29249  15.185  16.827  15.434 -0.0496 -0.1337 -0.0495
13781W        W29250  14.824   3.627   4.356  0.0446 -0.1286  0.1532
13782W        W29251  17.818  16.338   4.291  0.0481  0.2578  0.3224
13783W        W29252  13.043  14.797   5.350  0.0685 -0.1977 -0.2334
13784W        W29253  11.294  16.894  14.150  0.4060  0.0727  0.1494
13785W        W29254   3.731  12.571   4.650 -0.4221  0.0922  0.0602
13786W        W29255   0.455  12.457  11.425 -0.0088  0.2349 -0.1707
13787W        W29256   3.573   4.550  15.554  0.0496 -0.1341  0.1981
13788W        W29257  13.492   8.567   1.107  0.0958  0.0022  0.1930
13789W        W29258   5.921  11.914   1.911 -0.1034  0.1574 -0.1385
13790W        W29259  11.462   7.007  13.282 -0.0641  0.1015 -0.0792
13791W        W29260  13.939  15.836  13.133  0.0494  0.1189  0.2266
13792W        W29261  16.187   2.248  14.200 -0.2059  0.1187 -0.2529
13793W        W29262   7.523   3.949   0.135  0.3505 -0.1195 -0.1247
13794W        W29263  13.353  16.816   1.166 -0.1062 -0.0158 -0.0771
13795W        W29264  13.480  11.627  11.689 -0.2828  0.1090  0.0968
13796W        W29265   0.152  15.492   0.122  0.0830  0.1443  0.0702
13797W        W29266   6.090   4.510  14.416  0.2567  0.0920 -0.1771
13798W        W29267   2.161   4.239   3.086  0.1952 -0.2819 -0.1348
13799W        W29268   5.189  12.866   4.037 -0.2031 -0.1895 -0.0156
13800W        W29269  13.621  17.382  15.334  0.1492  0.1933 -0.1649
13801W        W29270  16.728  10.039  15.357  0.0461 -0.2089  0.2537
13802W        W29271   5.681   6.561  11.139  0.0042  0.0286  0.3817
13803W        W29272   6.878   9.647   4.022  0.0342 -0.2701  0.0744
13804W        W29273   1.643   8.815   1.097  0.2837 -0.0086  0.4379
13805W        W29274   5.826   2.464   2.521 -0.0845  0.1712 -0.2270
13806W        W29275  15.039   9.120  13.367 -0.2906  0.2924  0.0675
13807W        W29276  15.423   1.770   3.598  0.1284 -0.0439 -0.1628
13808W        W29277   8.136   0.703   1.590 -0.0440  0.1745 -0.0419
13809W        W29278  10.388   6.063   2.108  0.0650  0.1818  0.0504
13810W        W29279  16.548   6.145   2.795 -0.1181 -0.5091 -0.0256
13811W        W29280  17.879   8.529  15.036  0.1843 -0.0292 -0.2928
13812W        W29281  14.583   5.792   0.115 -0.0834 -0.2582 -0.1919
13813W        W29282   4.063  12.436  12.320 -0.3030  0.5142 -0.1347
13814W        W29283   7.734   8.978   3.760  0.2551 -0.1928 -0.2843
13815W        W29284   8.005   7.560   0.604  0.0927  0.1345  0.4051
13816W        W29285   1.722   3.702   1.794 -0.0856  0.2787 -0.1481
13817W        W29286  12.458   2.649   2.814 -0.1501  0.0096 -0.1547
13818W        W29287  18.123   6.381   1.441 -0.0498  0.1199 -0.2813
13819W        W29288   8.522  15.583   4.930 -0.1760  0.1560 -0.2244
13820W        W29289   7.998  13.790  15.214 -0.0605 -0.3210 -0.0571
13821W        W29290   3.172   2.054   4.216 -0.3032  0.1696 -0.0436
13822W        W29291   8.661  14.014   2.394 -0.1618 -0.1324  0.4027
13823W        W29292  11.730  15.525   0.284  0.0552  0.2029  0.1179
13824W        W29293   3.262   3.403  12.070  0.1082 -0.3846  0.1016
13825W        W29294   7.837   5.010   0.038 -0.1645 -0.0393  0.2336
13826W        W29295   4.250   5.693   3.549  0.0891  0.0547  0.2070
13827W        W29296  11.284  16.348   0.951 -0.2992  0.1148 -0.4189
13828W        W29297   4.246  16.893  14.507 -0.0226 -0.1302 -0.0537
13829W        W29298   8.780   8.553   0.003 -0.0012  0.1071 -0.0297
13830W        W29299   9.301  12.615  13.949 -0.0157  0.1094  0.0091
13831W        W29300   4.788  11.127  10.222 -0.3581 -0.1162  0.0560
13832W        W29301  16.779  11.485  13.858 -0.0383  0.0432  0.1000
13833W        W29302  14.112   6.545  14.556  0.1291  0.0300 -0.0397
13834W        W29303   2.931  15.417  12.748  0.3522  0.2305  0.2844
13835W        W29304  11.964  13.770  13.204 -0.0553  0.1214  0.1323
13836W        W29305   9.271   3.758   4.111 -0.0908 -0.1223  0.1438
13837W        W29306  17.505   3.397  14.505  0.1329  0.3255  0.0523
13838W        W29307  16.835   3.017   0.332  0.0720  0.3462 -0.0030
13839W        W29308   4.525   8.494  10.048 -0.2031 -0.1574 -0.1480
13840W        W29309  12.546   1.855   2.250  0.1702 -0.0469 -0.4059
13841W        W29310   6.310   4.377   3.093  0.1008 -0.2197 -0.3229
13842W        W29311   1.654  10.164  11.556 -0.4642 -0.1033  0.1493
13843W        W29312  12.131   8.786   0.232 -0.2970  0.0406 -0.0929
13844W        W29313  12.409  11.066  14.505 -0.3266  0.0552  0.3056
13845W        W29314  16.313   4.188  12.232  0.1705  0.0544 -0.2992
13846W        W29315   0.639  17.889  15.155 -0.1103  0.1226 -0.1381
13847W        W29316   1.064  16.405  12.299 -0.1327  0.0997  0.1959
13848W        W29317   6.144  12.161  13.701 -0.1405 -0.0217  0.3123
13849W        W29318   4.571   9.029  14.359  0.0200 -0.4515 -0.0118
13850W        W29319  10.254  13.471  14.794 -0.1695  0.0563  0.3853
13851W        W29320   6.854   3.338  12.166 -0.1659 -0.1976 -0.0319
13852W        W29321  14.780   9.796  12.965  0.0527  0.1467  0.0845
13853W        W29322   3.996   3.277   2.019 -0.1183  0.2937  0.1876
13854W        W29323   3.759  12.968   1.967 -0.1493  0.0465  0.0545
13855W        W29324  15.075  11.113   0.192 -0.0829 -0.0473 -0.5054
13856W        W29325   0.784  14.464  14.750  0.1614  0.0609 -0.1158
13857W        W29326   5.624  17.213   4.953  0.1641 -0.0908  0.1212
13858W        W29327  11.170   4.178  14.635  0.2217 -0.0737  0.1048
13859W        W29328  13.948   0.872   5.938 -0.2088  0.1733  0.2293
13860W        W29329   9.656   6.463  11.434  0.0525 -0.0659 -0.0023
13861W        W29330  14.666  17.961  12.196  0.0076  0.0573  0.0995
13862W        W29331   5.683  16.243  12.479 -0.0100 -0.1379  0.2375
13863W        W29332  16.068  10.180  15.396 -0.0804 -0.0021 -0.1508
13864W        W29333  18.140   5.681   2.129  0.1495 -0.0612  0.2632
13865W        W29334   7.715   9.005   5.058  0.0039  0.3381 -0.1379
13866W        W29335  10.341  16.685   2.020  0.1148 -0.0872  0.0798
13867W        W29336  15.642   1.923   0.158 -0.4173  0.0620  0.0367
13868W        W29337   5.324   9.361   0.341 -0.1299 -0.1780  0.1384
13869W        W29338  14.014  14.042  12.779 -0.0540  0.1607  0.2537
13870W        W29339  11.410  15.257   6.226  0.3314 -0.0881 -0.3503
13871W        W29340  16.889  15.409   0.565 -0.1979 -0.0672  0.1385
13872W        W29341  17.695   9.345  14.443  0.0567  0.2203  0.1470
13873W        W29342  15.159  17.641   0.848 -0.1985 -0.1059  0.2424
13874W        W29343   7.141   1.863  14.320  0.1182  0.2808 -0.1433
13875W        W29344   4.577  13.367  15.123 -0.1765  0.0030  0.1971
13876W        W29345  15.673   6.948  13.601 -0.0135 -0.0291 -0.1302
13877W        W29346   6.949   1.470  10.159  0.0782  0.2387  0.2256
13878W        W29347   1.024   1.507   2.249  0.2785  0.3230  0.0409
13879W        W29348   5.020   4.535  12.822 -0.2005 -0.1715 -0.2653
13880W        W29349   9.205  16.604  11.497  0.0085  0.0668  0.0311
13881W        W29350  15.910  14.023  12.817 -0.1610 -0.1095  0.1242
13882W        W29351   9.915   2.777   0.021 -0.1011 -0.1850 -0.1794
13883W        W29352  13.084   5.609   0.446 -0.0370 -0.0285 -0.1622
13884W        W29353   5.650   1.447   2.573 -0.0759 -0.0243  0.3274
13885W        W29354  12.989   1.885   2.449 -0.1900  0.1274 -0.0221
13886W        W29355  13.405   4.842   0.057  0.0098 -0.3229 -0.1099
13887W        W29356  13.476  16.256   5.507  0.2618 -0.2427  0.0495
13888W        W29357  16.450   5.144  14.654 -0.0457  0.3233  0.0450
13889W        W29358  17.155  14.140   1.408  0.5129 -0.1744  0.2693
13890W        W29359   6.247  11.955   2.575 -0.0629  0.0776  0.1095
13891W        W29360  13.244   4.534   1.669 -0.3137  0.0102 -0.3579
13892W        W29361  14.877   6.851   2.205  0.1266 -0.0271 -0.0108
13893W        W29362   9.724   0.647  11.866 -0.4310  0.3961  0.3785
13894W        W29363  13.756  16.514  11.294 -0.0178  0.0412 -0.0778
13895W        W29364   0.802   8.744   0.639 -0.2506  0.0213 -0.3420
13896W        W29365   6.294   0.668   2.835  0.2254  0.1524  0.4123
13897W        W29366  11.150   7.517   2.374  0.2043  0.0286 -0.1522
13898W        W29367   4.885  12.046   6.020 -0.0061  0.2178 -0.1330
13899W        W29368   6.196  13.596   4.385  0.1150 -0.2499  0.3246
13900W        W29369   1.134   6.771  12.650 -0.0019 -0.0269 -0.1553
13901W        W29370   9.240  16.388   2.787  0.0705 -0.3585  0.0039
13902W        W29371   2.449  10.772  14.716  0.0250  0.0003 -0.4399
13903W        W29372   1.108  12.777  12.097  0.5863  0.0673  0.2886
13904W        W29373  15.276  12.613   4.119 -0.1266 -0.1952  0.1853
13905W        W29374   7.383  14.026   4.956  0.2209  0.1006 -0.1695
13906W        W29375   5.920   4.496  10.147 -0.0967  0.1477 -0.1004
13907W        W29376   1.151   9.252  14.158 -0.0568 -0.0395 -0.0597
13908W        W29377  13.169   0.136   0.971  0.1306 -0.0697  0.1491
13909W        W29378   1.221  17.935   2.740  0.2211  0.2157  0.0036
13910W        W29379  15.044  16.986  11.566 -0.0726  0.0760  0.0018
13911W        W29380  14.249  17.009   2.270  0.0501 -0.0280  0.0099
13912W        W29381  13.932  16.131   1.814 -0.2586 -0.1461  0.0605
13913W        W29382  14.892   7.158   0.154  0.1323  0.1243  0.0593
13914W        W29383  14.384  14.414  12.796  0.0425  0.2889  0.3230
13915W        W29384  10.890  12.988  13.868 -0.0685 -0.2938  0.0933
13916W        W29385  14.207  13.417   3.579  0.0589 -0.0319  0.2500
13917W        W29386  14.630  16.275   2.770  0.1687  0.0154 -0.0341
13918W        W29387  12.228  14.362  12.235  0.1268 -0.0811  0.2693
13919W        W29388   7.982  17.488   1.608  0.1102 -0.0824  0.0214
13920W        W29389   4.193   3.278  12.869  0.0399 -0.3289  0.0477
13921W        W29390   7.105   7.127   0.983 -0.0479 -0.2448 -0.0960
13922W        W29391  14.877   1.424   1.207  0.1093  0.2100 -0.0779
13923W        W29392   0.625  10.448   3.511 -0.0085  0.0452 -0.0708
13924W        W29393   4.489  17.443   2.020 -0.0568 -0.0219  0.0337
13925W        W29394   0.388   9.737  11.197 -0.1850  0.2767  0.2486
13926W        W29395  14.210  17.282  11.578  0.2048  0.1122 -0.1914
13927W        W29396  13.461   9.577  13.702  0.1467 -0.0912 -0.0224
13928W        W29397  12.536   9.068  12.120  0.3388 -0.1122 -0.0367
13929W        W29398   3.179  16.170   2.426 -0.2791 -0.0421 -0.0337
13930W        W29399   4.528   0.318  15.959 -0.0466 -0.3555 -0.1511
13931W        W29400   1.442   3.409   0.476 -0.2661 -0.0438  0.0774
13932W        W29401   3.869  11.562   3.881  0.0508 -0.1289  0.1760
13933W        W29402   8.254  11.058  15.326  0.4839  0.0086 -0.2700
13934W        W29403  14.041  11.726  11.568 -0.0533  0.3933 -0.2739
13935W        W29404   6.047   0.534   3.600  0.2828 -0.0421 -0.0626
13936W        W29405  14.914  13.710  12.956  0.0468  0.0125 -0.1053
13937W        W29406  11.180   8.005   3.212 -0.0957 -0.0001  0.2274
13938W        W29407  11.569   4.354  13.946 -0.1447  0.1729 -0.0966
13939W        W29408  14.056   3.344  14.167  0.0395 -0.2656 -0.0975
13940W        W29409   6.042   6.150   3.701  0.2577  0.0861 -0.0666
13941W        W29410   9.869   9.812   0.281  0.0915 -0.1608 -0.0183
13942W        W29411  17.863   4.261   2.113 -0.1367  0.1730  0.3498
13943W        W29412   2.000  16.131  10.512 -0.1076 -0.1048 -0.1619
13944W        W29413   7.508   0.940  13.303 -0.0932  0.0057  0.2634
13945W        W29414  13.812   4.040  14.064  0.1997  0.0630 -0.1104
13946W        W29415   9.280  14.530  11.410 -0.0084 -0.1790 -0.2510
13947W        W29416  15.212   0.461   0.851 -0.0719 -0.2334  0.3029
13948W        W29417  12.301  13.013  12.440 -0.2015  0.1796  0.1494
13949W        W29418   3.066   3.447   4.797 -0.0376 -0.1603 -0.1494
13950W        W29419  16.872  10.355  15.865 -0.2861 -0.1816 -0.1514
13951W        W29420  18.076   2.527   5.553  0.0834  0.0362  0.0052
13952W        W29421  12.111   0.306  14.789 -0.1352 -0.0341  0.0044
13953W        W29422  11.725  14.159   3.894 -0.2643  0.0630 -0.1341
13954W        W29423   0.748   8.744  12.636  0.0492 -0.1358 -0.0003
13955W        W29424  12.234  17.237   3.251 -0.0221 -0.2038  0.0377
13956W        W29425   8.515   9.461   2.865 -0.3401 -0.6434  0.1933
13957W        W29426  15.836  14.831   2.631  0.0989 -0.1165 -0.1012
13958W        W29427  18.073   9.131  11.769 -0.1319 -0.2797 -0.1637
13959W        W29428  11.474   2.553   0.824 -0.0635  0.0281  0.2330
13960W        W29429   6.659   9.694  13.625  0.1927  0.3283  0.4098
13961W        W29430  15.804   1.400  12.029 -0.0701  0.1183  0.2441
13962W        W29431   3.328   6.220   0.096 -0.0928 -0.1419 -0.2290
13963W        W29432  14.663   7.276  11.641 -0.1136 -0.1302  0.1720
13964W        W29433  16.957  13.281   3.187 -0.3025  0.1387  0.1593
13965W        W29434  11.440  17.931   4.037 -0.1173  0.2836 -0.0480
13966W        W29435  17.492   7.766   0.779 -0.2911  0.1003  0.1921
13967W        W29436  12.740  12.432   0.576  0.2148 -0.1035 -0.0613
13968W        W29437   1.296  10.252  11.025 -0.2512  0.0580  0.3627
13969W        W29438   5.039  10.085   3.115  0.2190  0.0372  0.0691
13970W        W29439  13.353  14.528  15.936  0.2049  0.0318 -0.1233
13971W        W29440  17.236   5.861  12.019  0.0325 -0.0384 -0.1597
13972W        W29441  17.567   9.473  13.034  0.1997  0.3928 -0.1753
13973W        W29442  15.165   2.706  15.202 -0.2464 -0.0387  0.0097
13974W        W29443   6.478  14.983  13.427  0.0291 -0.0856  0.1454
13975W        W29444   4.131   2.844  12.587  0.1022  0.1697  0.0727
13976W        W29445   4.058   6.463   2.729  0.0746  0.0132 -0.1415
13977W        W29446   9.236   1.534   4.069 -0.2993 -0.1869 -0.0483
13978W        W29447   9.104  12.614  16.080  0.0129  0.2174 -0.1828
13979W        W29448  16.384  13.013   3.951  0.0169 -0.2191  0.0908
13980W        W29449   8.865  15.351   2.178 -0.0247  0.1229 -0.2834
13981W        W29450   5.838   5.734  12.840  0.1943 -0.3100 -0.3049
13982W        W29451   7.411   9.919   4.736  0.0397  0.1243  0.1535
13983W        W29452   5.330   3.721  13.318  0.0411 -0.2987 -0.1948
13984W        W29453   0.905  10.932  15.340  0.5750 -0.2054 -0.2844
13985W        W29454   9.217   0.773  14.238 -0.1099  0.0659  0.0385
13986W        W29455   7.070  18.217   1.050 -0.3865 -0.1519 -0.1295
13987W        W29456   2.385  10.103   1.872  0.3217 -0.1819  0.1137
13988W        W29457   4.389   5.474  13.983  0.0330  0.0576 -0.3412
13989W        W29458  16.333  11.306   5.671  0.0818 -0.0265 -0.1812
13990W        W29459   7.574   2.329   2.361 -0.0035  0.5260 -0.1728
13991W        W29460  14.780  16.915  15.076 -0.1513  0.1475 -0.1389
13992W        W29461  12.765   0.524   5.152  0.3912 -0.0874  0.0035
13993W        W29462   6.094   0.256  13.190  0.2419  0.3266 -0.0587
13994W        W29463  10.744  12.432  10.994  0.2985  0.0334  0.1761
13995W        W29464   1.398   7.681  11.761  0.0258 -0.3041  0.1802
13996W        W29465   3.781  13.154  11.581  0.1295  0.1341  0.2663
13997W        W29466  11.303   8.550   0.706 -0.1412  0.4332  0.4223
13998W        W29467   5.332   2.540   0.876  0.0361 -0.1033 -0.0757
13999W        W29468   5.959  16.364  13.273  0.0162 -0.0095  0.2649
14000W        W29469   6.275   8.340  14.186  0.0076 -0.2387 -0.0576
14001W        W29470   3.840  17.541  11.081 -0.1445  0.2490 -0.1933
14002W        W29471   0.810   5.838  13.686 -0.1624 -0.1766  0.1987
14003W        W29472  10.464   3.793   4.260 -0.0765  0.2237 -0.0871
14004W        W29473   1.786   8.967  13.569 -0.0639 -0.1391  0.0219
14005W        W29474  18.012  12.364   4.833  0.2130  0.2591  0.0227
14006W        W29475  14.565   4.662   1.883  0.0394  0.0291  0.2018
14007W        W29476   7.383  15.840  14.205  0.1088  0.1974  0.1533
14008W        W29477  13.782  14.297  11.116 -0.2392 -0.1322  0.1347
14009W        W29478  17.786  11.444  11.512 -0.0706  0.0852 -0.1231
14010W        W29479  16.624  11.912  15.118 -0.0043  0.3232  0.3506
14011W        W29480  13.947   1.935   3.824  0.0173 -0.1156 -0.2559
14012W        W29481   7.460   9.739   1.591 -0.5832  0.0770  0.0456
14013W        W29482  16.842  18.028  15.871  0.0966  0.4499 -0.0063
14014W        W29483  13.192  13.171   1.975  0.2611  0.2278  0.2234
14015W        W29484   2.534  15.048   0.396 -0.1951  0.0676 -0.1080
14016W        W29485  16.620  10.788   3.344 -0.0533 -0.1459  0.1764
14017W        W29486  13.377   6.678  11.486  0.1784  0.0867  0.0525
14018W        W29487  12.975  11.614   0.281  0.3898 -0.0704 -0.1115
14019W        W29488   6.553  16.951   1.933 -0.0458  0.1568 -0.2768
14020W        W29489   8.511  13.184  15.568  0.1732 -0.3166 -0.3357
14021W        W29490  16.885   1.686  14.694 -0.1269  0.0459  0.2217
14022W        W29491  10.998  16.210   6.043 -0.4384  0.0991 -0.1337
14023W        W29492   4.789   7.879  15.600  0.1789 -0.0065  0.1235
14024W        W29493   4.298   7.683   0.988 -0.1737  0.1564  0.1070
14025W        W29494  17.397  15.446   2.119  0.1128 -0.2964  0.0175
14026W        W29495   0.157   9.431   0.409  0.0090 -0.0142  0.4017
14027W        W29496  18.278   1.350  11.189  0.0585  0.2557  0.0741
14028W        W29497  15.456   0.101  11.564 -0.2219 -0.0378 -0.1102
14029W        W29498   8.148   1.029  12.454 -0.2112 -0.1228  0.1288
14030W        W29499  10.315  13.727   2.620 -0.2513 -0.1487 -0.1397
14031W        W29500  13.726   0.864  15.405 -0.0530  0.1336 -0.0826
14032W        W29501  13.960  10.443   3.975  0.1175 -0.0370  0.1705
14033W        W29502   3.050  10.118  15.074 -0.3425  0.2957 -0.1996
14034W        W29503  10.180   5.357   1.333  0.0253  0.3314  0.0342
14035W        W29504   3.454   9.696   4.229 -0.0748 -0.2913 -0.1039
14036W        W29505   9.308  11.579   0.173  0.0149 -0.0759  0.0654
14037W        W29506   8.279  13.495   1.193  0.1390 -0.1784 -0.2058
14038W        W29507  14.820  11.884  15.270  0.1135 -0.2184 -0.0044
14039W        W29508   2.101   7.052  11.650 -0.1876 -0.1938  0.0442
14040W        W29509   0.550   4.821  11.934 -0.2099  0.0618  0.4428
14041W        W29510   5.254  14.609  15.712  0.0631 -0.0466 -0.0104
14042W        W29511   4.454  16.108  13.438  0.0334  0.0416  0.2115
14043W        W29512   2.198   1.565  12.053  0.3764  0.0666  0.0519
14044W        W29513   3.232   6.127  13.861 -0.1589  0.0520  0.0372
14045W        W29514   4.283  16.545  15.691 -0.0721 -0.0410 -0.0877
14046W        W29515  15.076   8.332  15.147 -0.0787  0.0388  0.0324
14047W        W29516   4.994   0.241  12.055  0.2884  0.2381 -0.0650
14048W        W29517   7.878  18.099  10.726  0.1154  0.2123 -0.0781
14049W        W29518   4.968   1.283  14.499  0.0621 -0.0410 -0.2805
14050W        W29519   4.435  15.586  12.492  0.0840 -0.0147 -0.1838
14051W        W29520  15.130   5.730   2.193 -0.0865  0.1160  0.0795
14052W        W29521  10.706  12.497   3.091  0.0057 -0.0956  0.0978
14053W        W29522  15.654  17.568  13.458  0.0449 -0.1367 -0.5331
14054W        W29523   2.030  16.771  14.936  0.0689  0.0715  0.0990
14055W        W29524  11.472  15.340   4.810  0.3358  0.0638 -0.3889
14056W        W29525   4.749  14.012  11.461  0.2635 -0.2091 -0.2001
14057W        W29526   0.814  14.853   2.074 -0.5108 -0.3123 -0.1978
14058W        W29527   9.946   3.462   3.504  0.1358 -0.0040 -0.1377
14059W        W29528  11.695  14.506   2.680  0.0127 -0.1311  0.0414
14060W        W29529   2.866  16.095  12.213  0.1373  0.1817  0.2366
14061W        W29530  11.798   2.370   3.008 -0.1955 -0.2792 -0.1647
14062W        W29531   0.652   5.305   4.627 -0.1234  0.2419 -0.0263
14063W        W29532  10.425   8.176  14.421 -0.1249 -0.4083  0.1280
14064W        W29533  10.215  12.608  10.970 -0.0233 -0.2034  0.0761
14065W        W29534  12.512  14.806  13.022 -0.0722  0.0834  0.2757
14066W        W29535  15.480   0.235   5.237  0.1832  0.1121 -0.1676
14067W        W29536   5.599  14.656   3.736 -0.2562  0.1940 -0.4857
14068W        W29537   2.481   8.015  15.045 -0.2051  0.0924 -0.0578
14069W        W29538  13.416  14.217  14.965  0.2322  0.1965  0.2330
14070W        W29539   7.363  13.588   2.863 -0.0997 -0.2954 -0.2820
14071W        W29540  16.241   3.482  15.884 -0.0290  0.1354  0.1643
14072W        W29541  17.891   7.309  15.765  0.0003  0.0181 -0.5442
14073W        W29542  10.204   9.347   5.004  0.0396  0.0580  0.0563
14074W        W29543   3.949   5.288  15.376 -0.2712 -0.1539  0.1478
14075W        W29544   7.292   6.961   4.130  0.3334 -0.0911  0.0471
14076W        W29545  16.680  16.962  10.964 -0.2446 -0.2042  0.0486
14077W        W29546  12.101   7.651  12.129  0.0178 -0.3144  0.1395
14078W        W29547  12.760   4.687   0.811 -0.1454  0.1938  0.3747
14079W        W29548   6.921  16.485  13.177 -0.2581 -0.2384  0.1475
14080W        W29549  15.363  12.370   2.885  0.3546  0.3437  0.1026
14081W        W29550  11.702   7.738   1.769  0.1729 -0.2144  0.2180
14082W        W29551   9.782  14.460   3.120 -0.1100 -0.0509  0.1847
14083W        W29552  18.142   6.735  10.920  0.0493  0.0791  0.2107
14084W        W29553  14.087  14.715  15.953 -0.1101  0.0666 -0.0739
14085W        W29554  10.353  14.409  12.377  0.0627 -0.1537  0.0229
14086W        W29555  16.103   2.022  14.635  0.0423  0.1343  0.2220
14087W        W29556  10.755  11.319   2.007 -0.4682  0.2802 -0.0998
14088W        W29557  13.432  13.703  11.718 -0.1413  0.1125  0.0700
14089W        W29558  11.958  11.880  10.896  0.3244  0.1848  0.0227
14090W        W29559   6.443  12.102  12.884  0.0976  0.1880 -0.0408
14091W        W29560  18.143   1.609   1.621  0.0056  0.1040  0.3128
14092W        W29561   5.234  15.873  15.850  0.0856  0.1788 -0.0612
14093W        W29562  16.343   4.339  14.013 -0.1061  0.0489  0.3829
14094W        W29563  13.259  18.259  12.051  0.0669 -0.0231  0.1257
14095W        W29564  12.456  13.694   5.754 -0.0590 -0.0355 -0.2584
14096W        W29565  10.820  17.091   1.541 -0.1650  0.3402  0.0131
14097W        W29566   3.388   9.083   0.117  0.0416 -0.2271 -0.0428
14098W        W29567  16.692   3.493  12.699  0.0877  0.3450 -0.3084
14099W        W29568  12.308  13.166  13.467 -0.0145 -0.1848 -0.1969
14100W        W29569  17.466   3.878  13.801  0.0287  0.2905 -0.2409
14101W        W29570   2.283   2.989   0.898  0.0946 -0.0501  0.3210
14102W        W29571  11.330   2.988  14.186 -0.3098  0.4407 -0.0126
14103W        W29572   1.795  17.070   4.921 -0.3043  0.0441  0.0270
14104W        W29573  15.084  16.629   3.860  0.1372  0.1184  0.2284
14105W        W29574  18.231   7.633  12.590 -0.0640  0.1688  0.0855
14106W        W29575   6.482   9.554   3.641 -0.0172 -0.2927 -0.2447
14107W        W29576   8.649   1.780   3.125 -0.2234  0.0247 -0.2599
14108W        W29577   1.580  18.130  13.387  0.0886  0.1831  0.2187
14109W        W29578   2.231  17.032  15.959 -0.3744 -0.1583 -0.2245
14110W        W29579  12.359   7.704  11.496 -0.1757 -0.0413 -0.2677
14111W        W29580   7.378   0.119  11.895  0.1245 -0.3724 -0.1254
14112W        W29581  14.867   7.550   4.445 -0.1364 -0.3637 -0.0409
14113W        W29582   2.030   4.932   1.825  0.2268  0.0719  0.0701
14114W        W29583  14.102   0.299   4.685  0.0597  0.0791  0.0671
14115W        W29584   8.030   8.963   9.940  0.0665 -0.1558 -0.3818
14116W        W29585   3.339  12.924  11.979 -0.3484 -0.2398 -0.1698
14117W        W29586   1.668   2.589   0.840 -0.1003  0.0122 -0.1511
14118W        W29587  16.809  12.832   5.005 -0.0458 -0.0231 -0.0179
14119W        W29588  10.173  10.609   0.239 -0.2080 -0.2047  0.0534
14120W        W29589   2.134   1.113  12.485  0.1178 -0.1982 -0.2849
14121W        W29590   0.804   9.410   3.449 -0.3087  0.1125 -0.2451
14122W        W29591   7.572  12.519   1.446 -0.0644  0.0811 -0.2196
14123W        W29592  11.429  10.523  13.021 -0.0543  0.1662  0.0226
14124W        W29593   0.890  12.918  13.300 -0.1164 -0.2885  0.0565
14125W        W29594  15.236   9.012   0.673  0.1614 -0.3342 -0.3787
14126W        W29595  11.290   6.610   0.391 -0.4869 -0.2716  0.1336
14127W        W29596   2.441   5.152   5.060 -0.0758  0.0720  0.0416
14128W        W29597   5.532  14.002   4.948  0.0707  0.0340  0.0527
14129W        W29598  15.967  13.504  15.748 -0.3360 -0.1831 -0.1388
14130W        W29599   3.096   8.715  10.668  0.1765  0.0984 -0.0764
14131W        W29600   2.509   1.520   5.105  0.1907  0.2240  0.0929
14132W        W29601  13.815   6.316   0.260 -0.3238 -0.0247  0.0718
14133W        W29602  15.766   2.770  15.003  0.1556 -0.0609 -0.0919
14134W        W29603   3.551  18.002  12.753 -0.0481  0.0298  0.2187
14135W        W29604  14.886  14.255  11.621  0.0379  0.0295  0.1059
14136W        W29605   7.656  10.841   3.085  0.2656  0.0652 -0.0029
14137W        W29606   4.007   6.507  13.981  0.1112 -0.1186 -0.0293
14138W        W29607  10.137  14.190   2.767  0.2517  0.0082  0.2980
14139W        W29608   7.539  12.975  13.427  0.0095  0.3000 -0.3146
14140W        W29609   0.236  12.684  14.726 -0.1315 -0.2671  0.2262
14141W        W29610   0.208   7.895   4.729 -0.1596 -0.1898 -0.1634
14142W        W29611  11.244   4.615  11.558  0.1011 -0.1833 -0.0024
14143W        W29612   9.882   8.879   4.972 -0.0113 -0.2633 -0.0228
14144W        W29613   7.798  12.207   1.953  0.0435 -0.0514  0.0985
14145W        W29614   3.243  14.373  13.360 -0.2196  0.4335  0.1614
14146W        W29615  16.322  16.918   4.629 -0.1026 -0.3018  0.1560
14147W        W29616  14.389   5.085   2.125  0.3740  0.2216  0.3455
14148W        W29617   2.391   0.355   0.257  0.1098 -0.1965  0.0030
14149W        W29618  10.985   9.157   4.648 -0.0824  0.1190  0.1477
14150W        W29619  13.617  17.753   5.067  0.0613  0.0231  0.2130
14151W        W29620   7.232  12.286  13.805 -0.1029 -0.0231 -0.1116
14152W        W29621  17.789   1.028  11.306 -0.4126 -0.0894  0.0082
14153W        W29622   2.513   8.713   3.507 -0.0358 -0.1273  0.1968
14154W        W29623  14.009   7.219  11.354 -0.2116 -0.4421 -0.0139
14155W        W29624   8.610  12.594   4.907  0.1091 -0.1870 -0.2023
14156W        W29625   0.809  12.751  11.600 -0.3411  0.1653  0.3767
14157W        W29626   4.601  17.166  14.855 -0.0909  0.0115 -0.2274
14158W        W29627  12.085  11.784   3.749  0.0559  0.0725  0.4570
14159W        W29628   2.211  11.468  15.585  0.2657 -0.0303  0.1322
14160W        W29629  14.351   0.717   4.617 -0.2455 -0.1956  0.0924
14161W        W29630   9.035   7.683  14.452  0.0816  0.3396  0.0797
14162W        W29631  11.226  12.310  15.517  0.1207  0.0619  0.2609
14163W        W29632  11.935  17.673   0.853 -0.0698 -0.3368 -0.2527
14164W        W29633   8.533  11.316  15.693 -0.0138 -0.2859  0.0622
14165W        W29634  13.410   8.493   2.050 -0.2678  0.1716 -0.1215
14166W        W29635   4.678   5.740   4.990 -0.0830 -0.2543  0.1404
14167W        W29636   4.910  16.529  14.636  0.0606  0.0022 -0.1956
14168W        W29637  10.142  17.560  15.540  0.0942  0.3303  0.1979
14169W        W29638   9.940   1.903   3.534 -0.0749  0.1810  0.3053
14170W        W29639   1.319   4.589   4.391  0.1032  0.3524 -0.0426
14171W        W29640  13.668  15.957  12.615  0.0417  0.1424 -0.0854
14172W        W29641   2.306  13.201  14.990  0.0671  0.1607  0.0117
14173W        W29642  11.091   3.247  14.622  0.1349  0.1171  0.1942
14174W        W29643  15.156   2.421  12.551 -0.0054 -0.1177 -0.1428
14175W        W29644   1.769  16.309  15.592  0.2207 -0.1346 -0.0663
14176W        W29645   2.996   6.713  14.474 -0.4064  0.0428  0.1633
14177W        W29646  15.910  14.433  12.277  0.2624  0.0210 -0.3347
14178W        W29647   1.113   0.153   2.490  0.0183 -0.0521  0.0427
14179W        W29648  14.963   4.598   3.741  0.0960 -0.0834  0.0669
14180W        W29649  15.960   8.733  12.017 -0.1036 -0.1337 -0.2574
14181W        W29650  17.835   7.943  12.480 -0.1462 -0.2220 -0.0137
14182W        W29651   1.953  15.206   3.284  0.2715  0.3504 -0.1791
14183W        W29652   5.373  11.783  10.834 -0.0355 -0.0402 -0.0828
14184W        W29653  16.600  17.622   3.023  0.1334  0.1354 -0.0514
14185W        W29654   3.394   6.561  14.195 -0.0714  0.1584 -0.0430
14186W        W29655  12.924   0.999  10.350 -0.0103 -0.2854 -0.0982
14187W        W29656   8.343   6.743  12.556 -0.2421  0.0132  0.0299
14188W        W29657   1.761  11.011  15.978  0.2317 -0.0501 -0.1967
14189W        W29658   1.798   4.990   0.302 -0.3459  0.1643  0.1442
14190W        W29659   1.462  11.509   1.778  0.0776 -0.0117 -0.1208
14191W        W29660   9.259   8.677   0.386  0.1364  0.3139  0.2131
14192W        W29661   7.028  11.415  11.455  0.0867 -0.0646  0.3557
14193W        W29662   2.222   8.331   9.912  0.1826  0.1644 -0.1110
14194W        W29663   1.774  14.821   0.691 -0.0286 -0.2591  0.2349
14195W        W29664  10.781  12.753  15.201  0.1054 -0.3865  0.1280
14196W        W29665   4.040  17.965  12.955 -0.2889  0.0019 -0.0403
14197W        W29666   9.980   3.867   0.546  0.0769  0.0667  0.0031
14198W        W29667   3.586  11.031  15.963 -0.0179  0.0829  0.0370
14199W        W29668   3.210   4.753  14.236 -0.0428  0.1475  0.3847
14200W        W29669   5.692  12.318   1.134 -0.0342 -0.2093  0.2955
14201W        W29670  12.471  14.916  13.552  0.1889  0.2668 -0.2181
14202W        W29671  10.308  17.142   4.513 -0.1170 -0.1906 -0.1105
14203W        W29672   7.244  14.799  11.670  0.0262  0.0303  0.1173
14204W        W29673   8.733   3.308  14.330  0.2621  0.0856 -0.0437
14205W        W29674   9.918   8.107   5.659  0.0313  0.1258  0.4312
14206W        W29675   4.990  13.193   0.242  0.1079 -0.2623 -0.1688
14207W        W29676   0.649  16.151   2.046 -0.0212 -0.1906 -0.0601
14208W        W29677   8.980   9.435   4.502 -0.1329 -0.1892  0.1862
14209W        W29678   3.371  16.664   2.405 -0.0920  0.2419  0.1722
14210W        W29679  14.953   9.604  14.229  0.1940 -0.0660 -0.0479
14211W        W29680  12.458   9.284  15.947 -0.0451 -0.4907  0.1522
14212W        W29681   7.760  13.930  10.689 -0.0144  0.0042 -0.1523
14213W        W29682   1.196   9.178  15.437  0.1799  0.2123  0.4793
14214W        W29683   6.971   0.501   1.617 -0.1913 -0.2798 -0.0965
14215W        W29684  16.341  13.011  14.264  0.0200 -0.0584 -0.0248
14216W        W29685  11.741   7.942   5.638  0.0900  0.2155  0.3509
14217W        W29686  12.981  10.608  11.410  0.2255  0.5767  0.0765
14218W        W29687  16.057  14.350  11.307  0.1820 -0.0978  0.0769
14219W        W29688  14.693  11.546   1.487  0.1511 -0.1716  0.2216
14220W        W29689   2.858   2.090  14.181 -0.0250  0.1478 -0.3114
14221W        W29690   2.661  13.353  12.528 -0.1059 -0.1132 -0.1231
14222W        W29691   5.519   7.763   5.189  0.0661  0.0392  0.4523
14223W        W29692   9.362  11.775  15.766 -0.1451  0.0594 -0.3674
14224W        W29693   5.371   3.769   4.664  0.0861 -0.0238 -0.1940
14225W        W29694  10.561  17.883   3.879 -0.0476  0.2166  0.2539
14226W        W29695   7.994  12.624   3.671 -0.0468 -0.2041 -0.1922
14227W        W29696   5.327   0.909   2.497 -0.2003  0.0101  0.0997
14228W        W29697   0.899  17.702  12.123  0.1256  0.2349  0.0857
14229W        W29698  15.692   2.604  15.843 -0.0825  0.4087 -0.0231
14230W        W29699   4.346   1.200  14.876  0.1463 -0.1498  0.1917
14231W        W29700   5.209   8.774  13.893 -0.0642  0.1784 -0.0072
14232W        W29701   4.332  11.060  13.801 -0.2180  0.0398  0.0017
14233W        W29702  13.266  10.116   3.516  0.0754  0.1987 -0.0515
14234W        W29703  13.588   9.982  11.177 -0.1387 -0.0750 -0.0454
14235W        W29704   8.514   0.091  14.973  0.0797 -0.1657  0.2691
14236W        W29705  17.630  17.371   5.087 -0.0156 -0.2406  0.2933
14237W        W29706   7.948   2.779   3.408  0.3426  0.3786  0.2860
14238W        W29707   5.234  10.160  11.457  0.1301  0.1066 -0.1130
14239W        W29708   2.937   0.783   0.026 -0.2692  0.1542 -0.1597
14240W        W29709  16.674   7.271   1.338  0.0804  0.1163  0.0688
14241W        W29710   7.176  17.530   3.544 -0.1298  0.2562 -0.2389
14242W        W29711  17.209  10.775  14.746  0.4224  0.2488  0.0679
14243W        W29712   2.697   0.367  15.708  0.3066 -0.0794  0.1510
14244W        W29713   3.725  14.601  13.316  0.1956 -0.1304  0.1120
14245W        W29714  11.121  17.754   3.335 -0.0846 -0.0513 -0.2412
14246W        W29715   7.225   1.816   3.070 -0.3569 -0.0922  0.1209
14247W        W29716  14.373   0.170   2.373  0.1234 -0.1557 -0.4058
14248W        W29717  16.777   6.946  15.257 -0.0379  0.0282  0.0838
14249W        W29718  12.071  15.442   5.627 -0.0601  0.1066  0.0056
14250W        W29719   7.900  12.560  14.535 -0.0514  0.1902  0.0025
14251W        W29720   4.027   4.041  11.034 -0.0461 -0.0635  0.1939
14252W        W29721   8.292  10.087  13.161 -0.1336 -0.2663  0.0484
14253W        W29722  16.738  10.570   2.866 -0.0877  0.0988 -0.3064
14254W        W29723  17.354  14.576   1.220 -0.0198 -0.1653  0.0561
14255W        W29724   9.230  18.101   5.053  0.1953 -0.0927 -0.0244
14256W        W29725   6.978   9.821   3.558 -0.0957  0.2260  0.0060
14257W        W29726  12.238   7.846   5.515  0.1448  0.1081 -0.1266
14258W        W29727  13.837   6.881   6.195 -0.2685 -0.1389  0.0109
14259W        W29728  14.790   1.547   2.360 -0.1339 -0.1157 -0.3290
14260W        W29729  11.488  17.378  14.967 -0.0754 -0.1903  0.2226
14261W        W29730   4.739   7.268   1.806  0.1279  0.3352  0.0022
14262W        W29731  13.023  12.092  12.373 -0.0884 -0.2140  0.0082
14263W        W29732   4.917   7.355  14.955 -0.0244  0.2022  0.0120
14264W        W29733   7.077   0.037  14.603 -0.1475  0.0818  0.0148
14265W        W29734   6.380   5.533  12.841  0.0546  0.0849 -0.0535
14266W        W29735  15.930  16.267   1.083  0.0313  0.1941 -0.1722
14267W        W29736  14.430  15.548   4.471  0.1592 -0.4151 -0.0240
14268W        W29737   3.427   6.382   5.190 -0.2224  0.1724  0.2279
14269W        W29738   6.540  15.095   3.266  0.0177 -0.0170  0.3210
14270W        W29739   5.366   0.800  15.037  0.1583 -0.1094  0.2007
14271W        W29740   7.402  11.265   2.332  0.1027  0.1949  0.1089
14272W        W29741   5.801   3.917  13.082  0.3042  0.0145  0.0110
14273W        W29742   9.017  15.261   0.002 -0.0428  0.0091  0.0396
14274W        W29743   1.794   3.196   0.128 -0.0530  0.2290 -0.4235
14275W        W29744  16.613   9.153   4.591  0.1113  0.0631  0.2048
14276W        W29745   5.230   4.114  11.044 -0.1005 -0.0496 -0.0244
14277W        W29746  13.592   3.461  14.838 -0.3777  0.0255 -0.0639
14278W        W29747   4.535   0.450   2.805 -0.2148  0.1282  0.0092
14279W        W29748   3.033  14.473   4.420  0.0766  0.3148  0.0268
14280W        W29749   6.955  13.205  14.759  0.0379  0.0548 -0.2465
14281W        W29750   1.604   1.285   4.806  0.0970 -0.2840  0.2846
14282W        W29751   7.917   2.130  14.753 -0.0359  0.1011 -0.2316
14283W        W29752   7.904  17.879  14.786  0.0537 -0.0741  0.0242
14284W        W29753  12.726  13.613  11.778  0.2236  0.0666  0.2290
14285W        W29754  15.787   8.825  11.542 -0.1784  0.1557 -0.1104
14286W        W29755   0.771  12.975   4.807 -0.2128 -0.3258  0.1468
14287W        W29756  12.245   3.695  12.646  0.1019  0.1751  0.1465
14288W        W29757  15.546  13.689  15.459  0.1197 -0.0743  0.1536
14289W        W29758  11.636  14.722  14.205  0.0105 -0.0584  0.1944
14290W        W29759  15.498   4.580   3.641  0.3234  0.2332  0.0299
14291W        W29760   2.321   2.131   0.572 -0.0425  0.3000  0.1159
14292W        W29761  18.204   4.680  10.946  0.2631 -0.2067 -0.0720
14293W        W29762   4.606   9.742   4.987  0.1175  0.0683  0.2996
14294W        W29763  17.853   7.902   1.424 -0.2024  0.2210 -0.0865
14295W        W29764  10.096   1.145  15.413 -0.2121 -0.3166  0.0691
14296W        W29765  12.700   3.434  15.321 -0.0827 -0.4443 -0.1131
14297W        W29766   9.846   0.254   1.869 -0.2217  0.1327 -0.0349
14298W        W29767  14.039   4.116   2.021 -0.0422 -0.0758  0.2102
14299W        W29768  12.004  14.479  15.194 -0.2920 -0.2540  0.1207
14300W        W29769   2.943  16.757   4.141 -0.0575  0.2807 -0.2979
14301W        W29770  17.201   9.792   0.560 -0.0295  0.0178 -0.1655
14302W        W29771   8.842  13.860   0.952 -0.2206 -0.0704  0.0527
14303W        W29772  11.046   3.399  14.107 -0.3008  0.0676 -0.0417
14304W        W29773   5.500  16.480  10.902 -0.2021 -0.1008 -0.1907
14305W        W29774  11.617  17.801  15.266 -0.1987  0.1170  0.0504
14306W        W29775   5.525  16.330   1.947 -0.0724  0.0178 -0.0974
14307W        W29776   8.459  13.839  13.008  0.0105 -0.0840 -0.1926
14308W        W29777   1.080  13.693   0.873  0.2286 -0.1939  0.2795
14309W        W29778  16.651   0.866  11.183 -0.0873  0.0509  0.3303
14310W        W29779   4.454  12.399   1.578 -0.4811  0.0566  0.1746
14311W        W29780  13.034  14.223  13.594  0.2226  0.0144  0.0433
14312W        W29781  16.763  16.350   2.412  0.2438 -0.2853 -0.0357
14313W        W29782   6.836  10.497   1.859  0.1502  0.0531  0.1168
14314W        W29783   3.485  14.872  15.153  0.0386 -0.1404  0.0023
14315W        W29784  17.310  13.013  11.244  0.1098 -0.2256  0.0650
14316W        W29785   8.528   5.127   4.413  0.0489 -0.2513  0.0292
14317W        W29786   3.247   7.590  10.356  0.1350 -0.1442 -0.0511
14318W        W29787   6.549  15.066   0.876 -0.2618  0.0350  0.2495
14319W        W29788   7.220  15.871   5.137 -0.0909  0.3172 -0.2190
14320W        W29789  14.417   4.733   5.236  0.1015 -0.2112  0.2920
14321W        W29790   7.028   3.818  13.035 -0.0594  0.2697  0.0673
14322W        W29791   7.283  16.881  15.699 -0.1095  0.2763  0.0472
14323W        W29792   4.639   9.885   1.098  0.2276 -0.0218 -0.0866
14324W        W29793  16.742   1.791   4.472  0.2641  0.0738 -0.3196
14325W        W29794   4.986  12.368   5.571 -0.2765 -0.0063 -0.0350
14326W        W29795   0.713  17.469   4.471  0.1075 -0.2408  0.0194
14327W        W29796   1.190  14.770   3.465 -0.1554  0.0225 -0.0098
14328W        W29797   9.154  12.232  10.272 -0.1894 -0.1382  0.0609
14329W        W29798   1.726  12.015  11.514  0.0331  0.2099  0.0243
14330W        W29799   0.466  18.162   0.690 -0.1665 -0.0412  0.2109
14331W        W29800  14.786  11.082   4.511  0.0086  0.0609 -0.0934
14332W        W29801  16.988  17.618  11.317 -0.1323 -0.0193 -0.2352
14333W        W29802  10.682   0.233   1.309 -0.1407 -0.0705 -0.2809
14334W        W29803  10.700  12.976   0.345  0.0047 -0.1862  0.0459
14335W        W29804   0.268  11.897  12.152 -0.0194  0.0310 -0.1193
14336W        W29805  15.707  15.670  16.082  0.3024  0.0037  0.0902
14337W        W29806   3.363  13.330   5.075  0.0148 -0.3192  0.2188
14338W        W29807  10.113   0.122  15.215 -0.0895  0.2326  0.1546
14339W        W29808  13.812  17.402  11.905 -0.1197  0.2950 -0.0282
14340W        W29809  10.194   7.375   0.120  0.0547 -0.1107  0.0923
14341W        W29810   4.403   2.035  12.173 -0.1444 -0.0037 -0.1745
14342W        W29811   4.086  13.651   6.396 -0.1973 -0.4607 -0.0700
14343W        W29812   3.278   7.758   3.287 -0.0311  0.4092 -0.0218
14344W        W29813  17.052  12.457  12.532  0.0091 -0.1576 -0.1872
14345W        W29814   2.055  14.566  12.731  0.5154  0.1627  0.2107
14346W        W29815  15.130  18.158   2.711  0.0137  0.0745  0.0581
14347W        W29816   9.124   0.264  15.108  0.2643  0.3218  0.0501
14348W        W29817  16.782  12.133  14.239 -0.2445 -0.2176 -0.1290
14349W        W29818  15.352   8.188  14.663  0.1281  0.2087 -0.2232
14350W        W29819  11.513   2.698  13.547 -0.1282  0.1973  0.0121
14351W        W29820  12.306  14.160  13.093 -0.0892  0.0357  0.1622
14352W        W29821   3.520  18.257  15.242 -0.1125  0.2132  0.1764
14353W        W29822  15.399   4.467  11.224 -0.0997  0.2385  0.2358
14354W        W29823   7.541   7.902   2.578 -0.0504  0.3723 -0.2732
14355W        W29824   1.466   5.446  14.043  0.2351 -0.1550  0.0625
14356W        W29825   7.106   2.679   0.403 -0.1112 -0.0435  0.2428
14357W        W29826   7.900  15.419   1.916  0.4942  0.1910 -0.3032
14358W        W29827   6.760   6.247  15.381 -0.2516  0.0460  0.0140
14359W        W29828   9.256  13.306  14.480 -0.1478  0.3394  0.0969
14360W        W29829  17.873  15.700   4.385  0.0449 -0.2641 -0.0271
14361W        W29830  15.879   0.790  14.271 -0.1011  0.3019  0.1617
14362W        W29831  13.635   5.760   2.035 -0.4021 -0.1038 -0.1575
14363W        W29832  12.174   9.585   3.044 -0.3231  0.0415  0.1434
14364W        W29833  15.947  15.729  15.624  0.2208 -0.0774 -0.2162
14365W        W29834  12.200  16.630  11.373  0.1571  0.1379 -0.1096
14366W        W29835   3.462   1.932   3.057  0.2364 -0.1459 -0.1137
14367W        W29836  17.843   9.010   2.649  0.2894 -0.2286  0.0172
14368W        W29837   9.701   7.460  16.027  0.1910 -0.1109 -0.4257
14369W        W29838   2.071  12.617  15.987 -0.0149 -0.0405 -0.0564
14370W        W29839   5.652  13.910  11.954  0.0559  0.0284 -0.2866
14371W        W29840  14.049   9.173   3.546 -0.0256  0.0424 -0.0950
14372W        W29841  11.176  15.219  12.860  0.0574 -0.0855 -0.2141
14373W        W29842   0.042  14.276  14.941  0.1591  0.1924 -0.0423
14374W        W29843  10.447  12.007   3.013  0.0303 -0.0237  0.2480
14375W        W29844   1.985  16.215  11.734 -0.0713 -0.0990 -0.1522
14376W        W29845  16.653   2.063  14.395 -0.2096 -0.0660  0.0948
14377W        W29846  12.627  16.712  12.256  0.1901  0.1101  0.3675
14378W        W29847  15.104   6.196   2.023  0.4446 -0.3437  0.2966
14379W        W29848  17.875  18.099   5.466  0.2754 -0.0344  0.0362
14380W        W29849   6.459  12.402   0.488  0.4035  0.1363  0.5126
14381W        W29850   8.923  11.229  14.932 -0.2242  0.2348 -0.2052
14382W        W29851  11.169  17.589  13.660 -0.0369  0.0778 -0.0485
14383W        W29852  15.444   7.004   3.909 -0.0354  0.1113  0.0393
14384W        W29853   6.484  14.764   0.429  0.0248  0.2317  0.2291
14385W        W29854   8.515  12.926  12.678  0.1172 -0.0437 -0.5432
14386W        W29855   3.473   6.374   5.671  0.0157 -0.2632 -0.1992
14387W        W29856  13.196   5.324   0.813 -0.0339 -0.2565 -0.1231
14388W        W29857   0.898   3.517  11.681 -0.3399 -0.0964 -0.0173
14389W        W29858   9.860  18.211   0.061  0.1409  0.1154 -0.0134
14390W        W29859  12.496  17.180  12.557  0.2914 -0.0596 -0.1709
14391W        W29860   0.047  14.894  14.810  0.1395  0.0022  0.4219
14392W        W29861   3.044  16.389  13.030 -0.0806 -0.0687 -0.1835
14393W        W29862  15.172  17.937  14.150 -0.0679  0.1285 -0.1967
14394W        W29863  17.418   5.215  15.698 -0.0949  0.0935 -0.4625
14395W        W29864   2.913   6.100   3.268  0.1034  0.1574 -0.0984
14396W        W29865  11.366   9.694   5.357  0.2071  0.1642  0.0015
14397W        W29866  14.264   9.595   3.633 -0.1926  0.0268 -0.0397
14398W        W29867   0.418  12.863   6.085  0.1961 -0.0794 -0.2064
14399W        W29868   4.330   7.553  12.905  0.2253 -0.0703  0.0758
14400W        W29869  10.224  12.114   2.508 -0.1521  0.0031 -0.2032
14401W        W29870   9.345  10.417   3.096 -0.0574 -0.0994 -0.0290
14402W        W29871  10.557   0.218   3.843  0.0002 -0.0556  0.5330
14403W        W29872  13.361  17.311   5.211  0.0155  0.0296 -0.0887
14404W        W29873   2.824   5.533   5.772  0.0791 -0.2032  0.3458
14405W        W29874  10.657   1.752   3.607  0.1652  0.0386  0.1425
14406W        W29875  10.690   2.279  15.075  0.1902  0.2051  0.0808
14407W        W29876   7.574   6.968  13.618  0.3117 -0.1347  0.2135
14408W        W29877  13.331  11.377   3.678  0.0158 -0.0501 -0.0187
14409W        W29878  18.107  12.687  14.313  0.3392  0.1508 -0.2141
14410W        W29879  16.973  15.906   2.761 -0.0558 -0.1287  0.0649
14411W        W29880  16.959  10.291   4.887 -0.1427 -0.1741  0.0512
14412W        W29881  14.448   8.544  13.559  0.1780  0.2840  0.0940
14413W        W29882  13.383   0.851   0.538 -0.1205  0.0637 -0.1891
14414W        W29883  16.020   0.391  15.650  0.0522 -0.1260 -0.1408
14415W        W29884   9.896   1.910  11.797  0.4179 -0.1816  0.1379
14416W        W29885   2.899  16.922   4.610 -0.1755 -0.1183  0.2997
14417W        W29886   8.790  17.738   0.389  0.0445 -0.2453  0.0296
14418W        W29887  17.647  14.516   5.344  0.0749 -0.0157  0.0681
14419W        W29888  11.507  10.326  12.462 -0.0083 -0.2175  0.0693
14420W        W29889   6.979   9.163  11.937 -0.1379  0.1490 -0.1925
14421W        W29890  14.549   2.066   2.536 -0.1707 -0.1185  0.1718
14422W        W29891   7.880   9.322   2.808 -0.3472  0.1523 -0.3394
14423W        W29892   6.255  16.827  12.598  0.2441 -0.0283  0.1863
14424W        W29893  13.163  12.499   4.907  0.0586  0.0362  0.0629
14425W        W29894   7.034  13.364   1.577  0.3999  0.1442  0.2027
14426W        W29895  14.093   2.476  13.991  0.0745 -0.1725  0.1335
14427W        W29896  16.765  13.803   0.734  0.2682  0.1129 -0.2053
14428W        W29897  10.037  16.379  12.924  0.1430 -0.0942  0.0397
14429W        W29898   1.532   3.831   4.891 -0.0898 -0.3703 -0.2264
14430W        W29899   2.663   2.829  11.433  0.3205  0.0111 -0.0892
14431W        W29900   8.073   7.623   1.598 -0.0516  0.1255 -0.2882
14432W        W29901  17.064   1.758   6.278  0.1963  0.1131 -0.0168
14433W        W29902   9.643  16.972   5.201  0.1449 -0.0165  0.0056
14434W        W29903   9.403   2.095   5.229  0.0469  0.0284 -0.0756
14435W        W29904   0.561  17.974  11.766 -0.2078 -0.1455  0.0367
14436W        W29905   0.945   1.559  15.497 -0.0717  0.0037 -0.2670
14437W        W29906  12.701  14.914   5.736 -0.0618  0.2223 -0.1840
14438W        W29907   0.094   6.778  11.865  0.5186 -0.1277 -0.2714
14439W        W29908  12.318  15.767  11.666 -0.0338  0.0235 -0.4589
14440W        W29909  10.834   4.844  11.715  0.4169  0.0701  0.0155
14441W        W29910  12.395  11.172  13.356  0.2242 -0.0546  0.0408
14442W        W29911  17.786   3.735  14.750  0.2387  0.1607 -0.1016
14443W        W29912   5.242  10.305   2.742 -0.1044 -0.1245  0.2083
14444W        W29913   5.253   9.771   2.309  0.0463 -0.0282 -0.0842
14445W        W29914   8.270  11.899  12.769  0.2657  0.0496 -0.0524
14446W        W29915   1.723   8.509  15.952  0.0280  0.0309  0.1396
14447W        W29916   8.710  12.441  15.358 -0.3520  0.0390 -0.1306
14448W        W29917  13.325  13.757   4.471 -0.0277 -0.0417 -0.2137
14449W        W29918   9.816  15.495  13.048  0.0074  0.2019 -0.1923
14450W        W29919  12.474   1.632   1.379 -0.0719 -0.0259 -0.1942
14451W        W29920   4.813   5.185  15.222  0.2909  0.0446  0.0845
14452W        W29921  15.676  10.224  13.404  0.0779  0.0628 -0.2514
14453W        W29922  17.931   2.971   5.956 -0.3576 -0.3090 -0.0079
14454W        W29923  14.021   0.635   5.092  0.2046 -0.1523 -0.3205
14455W        W29924   1.214   9.215   1.779  0.1668  0.4339  0.1496
14456W        W29925  13.609  11.869  14.987  0.4156  0.2789  0.1830
14457W        W29926   5.328   6.816   0.315  0.0618  0.1547  0.3342
14458W        W29927  17.384   9.641  12.627 -0.0988 -0.0139 -0.0241
14459W        W29928   9.950  10.919  14.885 -0.1776 -0.2472  0.1924
14460W        W29929  11.449   6.273   2.420  0.1551  0.2762  0.0582
14461W        W29930   4.878  12.414  11.672  0.1370  0.1490 -0.1926
14462W        W29931   7.884   9.762  10.407  0.0106  0.0098 -0.1143
14463W        W29932  13.553  13.477  11.265 -0.2286  0.2070  0.4274
14464W        W29933   7.238  12.833  13.815  0.0847  0.4031 -0.0220
14465W        W29934   3.635  15.952   2.304 -0.0223  0.0308  0.0349
14466W        W29935   2.309   1.155   4.304 -0.1505  0.3903  0.1454
14467W        W29936   6.066  14.478  14.210 -0.0448 -0.1564  0.2263
14468W        W29937  14.658   0.519  14.597  0.1992 -0.0004  0.0930
14469W        W29938  14.146   6.507   2.596  0.2285 -0.0193  0.1110
14470W        W29939   9.670  11.571  13.678  0.2341 -0.1867  0.1654
14471W        W29940   4.847   4.039   2.880 -0.1150 -0.1805  0.0522
14472W        W29941  15.187   4.118  12.427 -0.0835  0.0448  0.0873
14473W        W29942  11.834   2.710   1.990  0.1115 -0.0229 -0.2159
14474W        W29943   0.366  15.807  14.215 -0.2365 -0.2503 -0.4285
14475W        W29944   1.513   2.754  13.106 -0.1581  0.1642 -0.0261
14476W        W29945   7.975   7.305  15.318  0.0519 -0.0738  0.0804
14477W        W29946   8.195  12.270  10.482  0.0214  0.0884  0.1597
14478W        W29947  14.800   6.335  15.135 -0.0320  0.0763 -0.1221
14479W        W29948   4.186   8.620   3.830 -0.3585 -0.3260 -0.0552
14480W        W29949  16.100   2.169  11.367 -0.0613 -0.0518  0.1537
14481W        W29950  17.463   9.998   2.786 -0.0920  0.0517 -0.0190
14482W        W29951  17.605  14.417   0.158 -0.0415 -0.0813 -0.0873
14483W        W29952   2.049  16.583  10.733  0.1647 -0.1017  0.0055
14484W        W29953   8.975  16.210   3.139  0.1979  0.0042 -0.2340
14485W        W29954  14.651  16.474   0.824  0.1441 -0.2648 -0.0935
14486W        W29955   5.330   3.080  15.869 -0.0636 -0.1982 -0.1079
14487W        W29956   4.671  14.704   3.941 -0.0978 -0.1153  0.0830
14488W        W29957  16.240   1.256  12.583  0.2904 -0.1235 -0.0276
14489W        W29958   1.983  11.459  16.058  0.1132  0.0956  0.2501
14490W        W29959   6.858  15.076  15.163 -0.1505  0.0862 -0.2443
14491W        W29960   8.403   0.553   0.602 -0.3137 -0.0815  0.1501
14492W        W29961   2.367  18.054   0.436  0.0227 -0.0163  0.1153
14493W        W29962  11.551  17.546  10.399  0.0710  0.2545 -0.0201
14494W        W29963  11.485  15.529  13.897  0.1611 -0.1127 -0.4015
14495W        W29964  13.479  16.581   3.117 -0.2925  0.0465  0.1380
14496W        W29965   5.189   3.649   0.923  0.1240  0.3729 -0.0904
14497W        W29966  17.464   7.123   6.192 -0.2736  0.1667 -0.1790
14498W        W29967  13.171  11.441  11.284 -0.1762  0.2075  0.2022
14499W        W29968  17.921   1.582  11.515 -0.1533  0.2600  0.0117
14500W        W29969  11.217   8.409  15.051  0.5689 -0.0137 -0.0921
14501W        W29970   9.355  12.364  11.174 -0.2776  0.2414 -0.0386
14502W        W29971   3.102  13.482  16.023  0.3760  0.1453 -0.1232
14503W        W29972   0.349   5.387   0.700 -0.0761 -0.0281 -0.0342
14504W        W29973  13.267  12.671   1.773  0.2204  0.3211  0.1280
14505W        W29974   5.647   7.276  10.483  0.0743 -0.0869  0.1369
14506W        W29975   1.752   5.408  11.801 -0.3353 -0.0203  0.2442
14507W        W29976  15.611  16.710   0.572 -0.2451 -0.0795  0.1988
14508W        W29977  16.461   8.811   2.076 -0.1848  0.1413  0.2359
14509W        W29978   1.387   0.891  13.742 -0.1395  0.1271 -0.1663
14510W        W29979  10.172   3.803  15.772  0.1030  0.0155 -0.0430
14511W        W29980   5.723  15.594  15.325 -0.2036  0.1041 -0.6122
14512W        W29981  11.579  11.008  14.624 -0.0565  0.0343  0.0182
14513W        W29982  15.436  12.968   5.828  0.1863  0.1699 -0.2091
14514W        W29983  14.420  17.161   4.897 -0.2731  0.0794  0.0850
14515W        W29984  17.109   1.633   1.365  0.0830 -0.3122  0.1276
14516W        W29985   3.419  10.548   0.353 -0.2085 -0.1754 -0.1180
14517W        W29986  18.218   6.685   1.950 -0.1298 -0.0179  0.0331
14518W        W29987  11.668   1.899  11.942  0.2088  0.1928  0.0822
14519W        W29988  17.617   5.128  11.289 -0.1276  0.0663  0.2268
14520W        W29989   3.630   2.431  11.040 -0.1458  0.0604  0.2174
14521W        W29990  13.785   2.946   2.491  0.2367  0.2854 -0.0604
14522W        W29991  13.183  16.042  12.834  0.0160  0.0378  0.1566
14523W        W29992  10.965   1.924  15.870 -0.2119  0.2627  0.1485
14524W        W29993   8.661   3.175   0.444  0.0497  0.1778  0.2823
14525W        W29994   9.243   0.188  11.924  0.1606 -0.1572  0.0867
14526W        W29995  14.227   5.638   2.276 -0.2520  0.1294  0.2014
14527W        W29996   6.673   5.298  10.975 -0.0700  0.1880  0.1086
14528W        W29997   1.171  11.992   1.003 -0.1306 -0.3020  0.0676
14529W        W29998  16.514  15.185   4.340  0.0886  0.0278  0.0956
14530W        W29999   3.552   6.944   1.664  0.0327  0.2093  0.2069
14531W        W30000  10.392  10.215   4.939 -0.0737 -0.1405  0.0614
14532W        W30001  11.407  11.606   0.660  0.0473  0.0462 -0.0657
14533W        W30002   5.039   9.555  16.011 -0.0391  0.1873 -0.0220
14534W        W30003  11.010   3.111   4.258  0.0403  0.0902 -0.1919
14535W        W30004   0.421  15.620  15.818 -0.0590  0.0172  0.2626
14536W        W30005   8.487   3.977  12.265 -0.0447  0.0066  0.2351
14537W        W30006   2.302   6.168   2.571 -0.1638 -0.0055 -0.0561
14538W        W30007  13.393   5.523  12.591 -0.0167 -0.0442 -0.1392
14539W        W30008   1.245   8.986   0.775 -0.0144  0.2126  0.0883
14540W        W30009   6.079   6.861  10.994  0.2275 -0.2035 -0.0739
14541W        W30010   0.177   6.692   4.793  0.0863 -0.1471  0.1892
14542W        W30011   8.389  17.963   3.003 -0.2453 -0.1300 -0.1262
14543W        W30012   9.584  16.909   0.249 -0.1275  0.3097  0.0035
14544W        W30013  14.133  11.674   5.442  0.1588  0.4782 -0.1984
14545W        W30014   1.268   1.341   4.402  0.2710  0.0861  0.1901
14546W        W30015   1.730  16.363   4.526  0.3034  0.2921 -0.0901
14547W        W30016   2.044   5.105   4.721  0.1002 -0.3099  0.2200
14548W        W30017   2.555   8.320   4.360 -0.1713 -0.3906 -0.0300
14549W        W30018  12.150   4.590   5.287  0.0471 -0.1414  0.0306
14550W        W30019   7.435  12.434  12.214  0.1182  0.1516  0.0853
14551W        W30020   4.391  16.774   5.391  0.0476  0.1398 -0.1564
14552W        W30021   6.228   1.605   0.518  0.1846  0.0019  0.1137
14553W        W30022   7.543   9.981  15.413  0.0890  0.3428  0.2308
14554W        W30023  16.891   4.883  11.324  0.0493  0.3617  0.0689
14555W        W30024   6.452   3.061   2.049  0.1196  0.0204 -0.0301
14556W        W30025   2.305  10.905   4.629  0.0587 -0.0442  0.0932
14557W        W30026  16.403  13.343   2.720  0.1608 -0.1621 -0.1504
14558W        W30027   6.855  12.415  15.174 -0.0932  0.2366  0.0686
14559W        W30028  14.982  12.064   0.426 -0.1501  0.0156  0.0531
14560W        W30029  16.957  15.055   2.823 -0.3431  0.0979 -0.0664
14561W        W30030  14.535  16.608   4.024 -0.0382  0.1657 -0.0999
14562W        W30031   4.381  15.067  12.630  0.0372  0.1456 -0.0360
14563W        W30032   8.485  16.458  14.089 -0.3933  0.1360  0.2711
14564W        W30033   2.390   1.491   0.461  0.1057 -0.2372  0.0994
14565W        W30034  12.254  11.721   6.012 -0.1249 -0.2890 -0.1777
14566W        W30035  12.064  12.660   3.277  0.1253 -0.1552 -0.1088
14567W        W30036  16.680   3.750   5.203  0.0878  0.3550  0.0660
14568W        W30037  16.696   6.637   4.317 -0.2567 -0.0715  0.0024
14569W        W30038  15.226  13.451  12.013  0.1896  0.1178  0.2475
14570W        W30039  10.862   1.948  11.465 -0.0712  0.0531 -0.1030
14571W        W30040  17.802  10.307   2.964 -0.4610  0.0594 -0.1158
14572W        W30041  12.041   6.729  15.527  0.0860  0.2465  0.0193
14573W        W30042  12.102   3.179   2.400 -0.1037 -0.1302  0.1184
14574W        W30043  15.624   5.522   4.334 -0.1520  0.1174 -0.1112
14575W        W30044   3.520  15.363   1.011 -0.0444 -0.2202 -0.3230
14576W        W30045   1.832   9.789   4.715  0.0159 -0.1877 -0.2698
14577W        W30046  10.340   0.018  14.747  0.0444 -0.1830  0.0092
14578W        W30047   3.623   1.435  11.748 -0.1774  0.1959  0.0370
14579W        W30048   1.802  16.534   3.407 -0.0365  0.0344 -0.0579
14580W        W30049   0.597   3.147  12.217 -0.0564  0.3465  0.1095
14581W        W30050   5.401  15.721   4.158 -0.1896 -0.1068  0.0960
14582W        W30051   6.347   8.787   9.410 -0.3614 -0.0893 -0.1608
14583W        W30052  16.283   7.448  11.390  0.4013 -0.0694  0.1394
14584W        W30053  16.155  16.262   5.428 -0.1407  0.0360  0.0243
14585W        W30054   5.185  14.561  13.210  0.0018 -0.3095 -0.1327
14586W        W30055   4.270   3.369  15.517  0.0053 -0.0329 -0.1998
14587W        W30056   5.517  11.758   2.818  0.0470 -0.0638  0.3991
14588W        W30057   9.943  16.600   4.021  0.5015  0.1868 -0.1659
14589W        W30058  14.102   4.568   5.546  0.0068 -0.0514 -0.2159
14590W        W30059   4.576   2.504  15.193 -0.1982 -0.0290  0.1947
14591W        W30060   9.284   6.051  10.895  0.0170  0.1038  0.2025
14592W        W30061   1.204   0.110   0.269 -0.4069  0.0502 -0.0870
14593W        W30062   8.426   5.678   4.368  0.5121  0.0589  0.2245
14594W        W30063   4.783   7.486   0.245  0.2617 -0.0362 -0.3698
14595W        W30064   2.867   4.568  10.783 -0.4919  0.0776  0.0387
14596W        W30065  11.825  13.557  11.414 -0.0332 -0.2282 -0.1265
14597W        W30066  13.471  15.636  11.848 -0.2546  0.3303  0.4189
14598W        W30067  16.865   7.292   4.363  0.1546  0.1184  0.0459
14599W        W30068   0.326   3.944   2.434 -0.4184 -0.1358 -0.0003
14600W        W30069  10.810   3.493  12.726 -0.2463 -0.0632  0.1547
14601W        W30070   5.103   8.200   3.588 -0.1042 -0.0724  0.1294
14602W        W30071  12.625   6.849   2.310 -0.0451 -0.0843 -0.0936
14603W        W30072   0.199   8.794  14.475  0.0200  0.1226  0.1441
14604W        W30073  12.055   6.356  14.539  0.0195  0.0085  0.2441
14605W        W30074   7.228   5.503  14.557 -0.2992 -0.0047 -0.0407
14606W        W30075  13.699  14.165  14.191  0.3199  0.0315  0.3709
14607W        W30076   1.100  15.178   0.287  0.0182  0.3190 -0.0037
14608W        W30077   0.555  12.527  15.587  0.1043 -0.0937 -0.1372
14609W        W30078   0.167  12.316  13.425 -0.1595  0.0080 -0.2653
14610W        W30079   4.940   3.224  11.119  0.0313  0.1462  0.1179
14611W        W30080   6.470  13.228  14.801 -0.0715 -0.0810  0.1805
14612W        W30081   6.557  17.193  10.867  0.3122  0.4030 -0.1241
14613W        W30082   2.594  11.977   0.668  0.0232 -0.0585 -0.1106
14614W        W30083   4.468   4.067   1.526  0.1250 -0.0679  0.1884
14615W        W30084   0.358   6.840   5.674  0.1002  0.1048 -0.2599
14616W        W30085   3.264  11.675   1.266  0.0275  0.0462 -0.1624
14617W        W30086   0.539   2.324   4.865 -0.2473 -0.2508  0.1854
14618W        W30087  11.648  15.348  13.318  0.3267 -0.1181  0.0261
14619W        W30088  13.540   7.277   5.282  0.0812 -0.1534  0.2563
14620W        W30089   0.685  15.222  13.867  0.2045 -0.1789  0.0329
14621W        W30090   6.742  12.159   4.239 -0.2522 -0.2475 -0.0579
14622W        W30091   2.494  17.581  13.298 -0.1022  0.0901  0.0120
14623W        W30092  12.066   7.697   0.430  0.0233  0.0319 -0.0954
14624W        W30093   8.822  15.957   3.515 -0.1388  0.2653 -0.0615
14625W        W30094   1.058   3.694  12.754  0.1164  0.0219 -0.1178
14626W        W30095  13.043   2.252  13.920 -0.2377  0.0434 -0.0381
14627W        W30096   4.903  16.130  11.855 -0.0581 -0.0744  0.1002
14628W        W30097   2.722   1.112   0.352  0.0779  0.2612  0.2307
14629W        W30098   9.479   6.434   6.197 -0.0995  0.0587 -0.0529
14630W        W30099   2.646   3.743  12.787 -0.2540 -0.0156  0.1930
14631W        W30100   2.582  15.203  12.469  0.0359  0.0973  0.0152
14632W        W30101   0.600   1.579   2.465 -0.0672  0.1636  0.1954
14633W        W30102   5.210   1.842   5.260  0.0386 -0.0636 -0.0363
14634W        W30103  14.264   4.441   3.560 -0.3383  0.0479  0.3572
14635W        W30104  17.103   7.387  14.303  0.1267  0.2890  0.0692
14636W        W30105   7.861  14.568   4.431  0.2722 -0.2612 -0.1013
14637W        W30106   8.049   4.591   3.985 -0.2650  0.0552  0.0686
14638W        W30107  15.368   9.698   2.309  0.1619  0.1454 -0.2101
14639W        W30108   8.915   3.133  15.718 -0.1006 -0.1916  0.0644
14640W        W30109   4.708  10.218  14.255 -0.0396 -0.1790 -0.0860
14641W        W30110   3.601  17.286  15.076  0.0813  0.0287  0.2927
14642W        W30111   0.803  17.568  12.580  0.0661  0.1221  0.2067
14643W        W30112  17.423   2.072   3.200 -0.1336  0.3264 -0.2077
14644W        W30113  16.282   6.407   1.530 -0.1693 -0.2495 -0.1784
14645W        W30114   0.715  17.441  13.878 -0.1425 -0.0823 -0.0781
14646W        W30115   1.362  14.533   0.837  0.0586 -0.1519  0.0561
14647W        W30116   9.930   8.722  11.566 -0.0956  0.0498  0.0466
14648W        W30117   0.765   6.692   3.009  0.4800  0.4502 -0.1067
14649W        W30118   8.761  15.329   2.633 -0.2668 -0.0684 -0.1399
14650W        W30119   4.757   4.687   3.800  0.0156  0.3061 -0.2000
14651W        W30120   9.046   0.939   3.203 -0.0487  0.1271 -0.1506
14652W        W30121   5.878  16.571   2.806  0.2425  0.0157 -0.4015
14653W        W30122  10.880   5.211  12.155 -0.0522  0.1076  0.1499
14654W        W30123  17.275  17.991  11.199  0.0673 -0.1761  0.1206
14655W        W30124   2.767  17.137   5.578  0.0871  0.1479 -0.0296
14656W        W30125   1.095  15.065  13.613  0.0552 -0.0182 -0.1392
14657W        W30126   2.422   0.714  15.377 -0.0935 -0.2198 -0.1677
14658W        W30127   3.826  14.371   0.040  0.0181 -0.0347  0.0447
14659W        W30128   4.062   5.178   0.847 -0.1927  0.1351 -0.4350
14660W        W30129   5.708  16.735  14.350  0.1777  0.0441 -0.3311
14661W        W30130   5.945   4.294  15.398  0.2976  0.0384  0.0903
14662W        W30131   3.202  18.011   5.925  0.0655  0.0406  0.0852
14663W        W30132   3.078  16.989   2.718  0.0204 -0.0816 -0.1110
14664W        W30133  16.399  12.286   0.184 -0.0436 -0.1283  0.0235
14665W        W30134   7.420  10.624   1.138 -0.0898 -0.2273  0.2287
14666W        W30135  11.992  15.494   4.807  0.1335  0.0468  0.4661
14667W        W30136  14.283   7.705  15.044  0.0482  0.1051 -0.3048
14668W        W30137  11.568  10.181  14.240 -0.1597 -0.0869 -0.0311
14669W        W30138   7.827   9.945   2.435  0.0361  0.0032  0.3111
14670W        W30139   2.175   8.047   4.248  0.1601 -0.1228  0.1502
14671W        W30140   3.854  16.485   3.195  0.0114 -0.0810 -0.2437
14672W        W30141  15.143   5.326   3.961  0.0706  0.1868  0.1909
14673W        W30142   8.919   5.778  13.011  0.0112 -0.2087  0.2503
14674W        W30143  13.426   9.336  11.650 -0.4332 -0.2431  0.0176
14675W        W30144   7.178  10.762   2.583 -0.1770 -0.0496  0.1660
14676W        W30145  16.561  12.534   5.354  0.0290 -0.0813 -0.0159
14677W        W30146  17.881  12.210   4.131 -0.1414 -0.1847 -0.2793
14678W        W30147   4.472   3.789   3.870 -0.0036 -0.0463 -0.0848
14679W        W30148   0.421   0.550  15.248  0.0874 -0.3887 -0.1210
14680W        W30149   8.484   2.502  14.020  0.2603 -0.3277  0.1197
14681W        W30150   1.485  13.134   3.352 -0.1688  0.1298  0.3819
14682W        W30151  14.149  11.708   3.453 -0.2518  0.0128 -0.1326
14683W        W30152  17.787  11.290  13.711 -0.1803  0.0941  0.1556
14684W        W30153   5.454  11.484  11.865  0.0764  0.3453  0.2237
14685W        W30154   2.871  17.604  14.063 -0.1046 -0.0621 -0.0240
14686W        W30155   8.573  16.070   1.622  0.0139 -0.0915 -0.3741
14687W        W30156  10.262  14.261  10.466  0.1021 -0.1845 -0.0482
14688W        W30157   6.997  14.764  13.482  0.1689 -0.1484 -0.0141
14689W        W30158   4.823   2.501  14.180 -0.0915  0.1990 -0.1206
14690W        W30159   7.069  13.623   3.406 -0.0703 -0.0493 -0.0709
14691W        W30160  13.628  13.442   3.670 -0.0350 -0.0661 -0.0128
14692W        W30161  16.951  16.300  13.928 -0.3844 -0.1523  0.0341
14693W        W30162  17.922   7.121  12.525  0.2368  0.1429 -0.1046
14694W        W30163  16.378   0.846  15.713  0.0632  0.0539 -0.2585
14695W        W30164   2.907  10.270   1.252  0.1206  0.0174  0.1604
14696W        W30165   9.235   4.250  15.003 -0.1981  0.1171  0.1382
14697W        W30166   2.612  15.714  15.999  0.3193  0.3439 -0.4156
14698W        W30167  11.722   9.903   1.469  0.2292  0.1261  0.2908
14699W        W30168   0.511   6.067   3.553  0.1442  0.0705 -0.1265
14700W        W30169   3.672   6.901  15.049  0.1837  0.1493  0.0747
14701W        W30170   3.056   9.639  12.418  0.0366 -0.0103  0.2011
14702W        W30171  12.340   8.035  10.625  0.0309 -0.0333 -0.2260
14703W        W30172  10.454   5.214   4.887 -0.1460 -0.0113 -0.2571
14704W        W30173  16.502  11.502   0.598  0.2203  0.1749 -0.1102
14705W        W30174   3.607  14.865   4.768  0.0831 -0.1308 -0.0526
14706W        W30175  13.238   3.248  12.430 -0.1620  0.1809 -0.1019
14707W        W30176  18.027  13.367   4.504 -0.1301  0.0538 -0.1282
14708W        W30177  14.158   8.520  12.474 -0.3283 -0.2120  0.2455
14709W        W30178  16.497  16.626  13.934  0.1465 -0.1188 -0.1151
14710W        W30179   9.366   3.646  14.272  0.0538  0.0443  0.0046
14711W        W30180   7.780  14.160   4.694 -0.0310  0.1695 -0.1968
14712W        W30181  15.683  17.909   1.479 -0.0641  0.0053  0.4351
14713W        W30182   8.260  16.557  11.142 -0.1519  0.2977 -0.0575
14714W        W30183   1.093   6.194  12.168 -0.2079  0.0710  0.1742
14715W        W30184   9.365   1.409  15.842  0.0012 -0.1301 -0.2005
14716W        W30185   1.008   5.861   4.537  0.0599 -0.1354 -0.1398
14717W        W30186   6.903  13.035  11.285 -0.1089  0.0606  0.0286
14718W        W30187   9.919   4.665  10.930 -0.0954  0.0642 -0.1300
14719W        W30188  16.708   1.412  11.759  0.3415 -0.0674 -0.2660
14720W        W30189  12.650   8.314  10.269  0.2336 -0.1961 -0.3563
14721W        W30190   1.024  16.566  12.794 -0.3338 -0.0513  0.0807
14722W        W30191   5.191  17.591   0.371  0.0706  0.0047  0.1038
14723W        W30192   1.533   6.537  13.110  0.1285  0.0964  0.1743
14724W        W30193  15.461   5.261  13.587 -0.2247  0.1117  0.0034
14725W        W30194   7.766  16.433   0.520 -0.0911  0.2653  0.1235
14726W        W30195  11.955  10.282   1.279  0.1969  0.1282  0.2818
14727W        W30196  12.315   2.408   0.770  0.2017 -0.0908  0.0509
14728W        W30197   5.007   5.267   4.879  0.1613 -0.0557 -0.2503
14729W        W30198  14.201  10.828   3.863  0.3863  0.1874  0.0887
14730W        W30199  11.636  17.203  14.464  0.0118 -0.1480  0.3707
14731W        W30200   4.968  18.136   5.071 -0.1676 -0.2126 -0.0241
14732W        W30201   0.355   4.851  13.002  0.3465  0.1382  0.2086
14733W        W30202   0.193   7.473  13.782 -0.2054 -0.1683  0.0557
14734W        W30203   8.125  11.568   0.881 -0.1088  0.2703  0.0748
14735W        W30204  13.413   4.892  11.169  0.1167  0.0709 -0.2550
14736W        W30205  17.231   7.688   0.288 -0.2962 -0.3188 -0.0131
14737W        W30206  13.197   5.522   2.859 -0.0591 -0.1544 -0.2397
14738W        W30207  17.781   4.086   4.418 -0.2715 -0.0093 -0.1406
14739W        W30208  11.171   3.478   2.066 -0.2992 -0.0145  0.1556
14740W        W30209   3.942  15.236  12.419  0.1487 -0.4307 -0.1410
14741W        W30210  13.894  10.944  14.244 -0.0389 -0.1695 -0.2092
14742W        W30211   5.471  10.965  11.880  0.0879 -0.0894 -0.2739
14743W        W30212  11.553   1.824  15.162  0.2866  0.0218 -0.1203
14744W        W30213  16.881   8.231  12.662 -0.1664  0.3856  0.1396
14745W        W30214  10.728   6.641   1.049  0.0436 -0.2304 -0.0759
14746W        W30215   9.487   1.115  12.888  0.1683  0.0624 -0.1538
14747W        W30216  17.262   8.074  11.277 -0.1217 -0.3088  0.0438
14748W        W30217  16.917   8.100  15.975 -0.1119  0.4963 -0.0482
14749W        W30218   0.784  15.172   2.872  0.1493 -0.0441  0.3370
14750W        W30219   4.738  17.052  14.387 -0.0176  0.2855 -0.0189
14751W        W30220  14.328  12.734  14.196 -0.0148  0.0629  0.2090
14752W        W30221   4.193  11.361   1.704 -0.2320  0.1311 -0.0176
14753W        W30222  16.674  14.321   4.263 -0.3701  0.0484 -0.2868
14754W        W30223  13.614   3.099   4.228  0.1892 -0.0327 -0.2656
14755W        W30224  17.845  13.452   3.263 -0.2169  0.0929 -0.1372
14756W        W30225   4.049   8.097  11.104 -0.2610  0.0454 -0.1622
14757W        W30226   8.932  11.223  13.109  0.0502 -0.1073  0.0846
14758W        W30227   7.233  13.086   2.982 -0.2196 -0.0090 -0.2472
14759W        W30228   4.725  13.015   5.775 -0.0593  0.0301  0.1647
14760W        W30229  13.317  15.439   0.695 -0.0798 -0.0111  0.3616
14761W        W30230   4.610   7.075   3.162  0.1280  0.2710  0.1064
14762W        W30231   3.144   2.462   4.475 -0.0562 -0.2103  0.0684
14763W        W30232   8.692  17.887  10.478  0.0083 -0.1647 -0.0513
14764W        W30233   2.521  11.129  12.877 -0.2404  0.2065 -0.2158
14765W        W30234   1.825   7.419   5.413  0.2233  0.0137  0.0351
14766W        W30235  10.826  10.983  11.945  0.0728  0.1255  0.0128
14767W        W30236  10.489   5.014  10.925  0.1718  0.0603 -0.0002
14768W        W30237   1.588  11.089   1.965 -0.1520  0.0046  0.1372
14769W        W30238  17.711   4.668   1.018 -0.1760  0.0913  0.4346
14770W        W30239  15.200   6.838   4.356 -0.0595  0.0238 -0.1760
14771W        W30240   8.710   1.993   2.622 -0.1994  0.1114  0.2268
14772W        W30241   5.972  16.445   2.212  0.0078 -0.1619 -0.3256
14773W        W30242  13.313  11.472  14.071  0.1914  0.0994 -0.0189
14774W        W30243  11.326   4.543   0.922  0.0024  0.3668 -0.3620
14775W        W30244   5.135  14.901  13.932 -0.2978 -0.1302  0.1353
14776W        W30245   6.397   7.358   9.569 -0.1706  0.0050 -0.0679
14777W        W30246   6.822  16.288  15.221 -0.1311  0.0816  0.2251
14778W        W30247   1.543   8.984  14.284  0.1758  0.0787 -0.2499
14779W        W30248   8.798   4.444  14.833  0.1841  0.2874 -0.1359
14780W        W30249  16.341   2.491  13.774  0.1113  0.0323  0.2216
14781W        W30250   9.466  17.049   0.708  0.0903  0.0851 -0.1035
14782W        W30251  13.673   6.970  13.048 -0.0449  0.0155  0.0673
14783W        W30252   5.845  10.684  14.854 -0.1709 -0.0636  0.0274
14784W        W30253   7.632  11.568   1.075  0.0509  0.0527  0.2350
14785W        W30254  18.118  14.555  11.911  0.1609 -0.0969 -0.1326
14786W        W30255  11.069   8.496  14.540  0.0714 -0.0390  0.3799
14787W        W30256   6.682   8.702   0.771 -0.2842  0.0016  0.0827
14788W        W30257   4.553  10.591   5.534  0.4452  0.3358 -0.2157
14789W        W30258   4.428  17.338   1.549 -0.0091  0.1573  0.0836
14790W        W30259  17.385   0.958  15.074  0.0715  0.0508 -0.3757
14791W        W30260   3.139  15.404  13.214 -0.0898 -0.0022  0.1278
14792W        W30261  11.072   2.024  12.061 -0.0990 -0.2527  0.1049
14793W        W30262  12.078  11.878   3.191  0.1237 -0.0020 -0.1184
14794W        W30263   7.672   7.815   3.124  0.0506 -0.1873  0.1605
14795W        W30264   8.260   6.523  13.884 -0.1973 -0.0574 -0.0910
14796W        W30265   6.069   9.370  11.427  0.0617  0.1505  0.1795
14797W        W30266   5.624   6.792  14.774  0.0724 -0.2588 -0.0613
14798W        W30267  13.004  18.123   3.946  0.0280 -0.0691  0.1037
14799W        W30268   8.770  11.123  10.873  0.2069 -0.0473  0.0593
14800W        W30269  16.443  13.668   2.347 -0.0166 -0.0213  0.0721
14801W        W30270   2.291   5.642   2.239  0.0716  0.0584 -0.0001
14802W        W30271   3.065  13.028   4.273 -0.1462 -0.0890  0.0401
14803W        W30272  14.603  16.867  11.552  0.2883 -0.4850 -0.1876
14804W        W30273   7.586   3.893   2.129  0.0486  0.0134 -0.5717
14805W        W30274   2.737  11.146  13.818 -0.1455  0.0528  0.1663
14806W        W30275   3.917   7.790  11.445 -0.0847 -0.1176 -0.1527
14807W        W30276  13.824  16.453  12.300  0.2199 -0.4835 -0.1209
14808W        W30277   6.676   5.792   2.502  0.0401  0.1806 -0.1075
14809W        W30278   8.433  11.396   2.057 -0.0724  0.2156 -0.0493
14810W        W30279   3.342   8.241   9.771 -0.1560  0.0921  0.0784
14811W        W30280   2.630   8.346  14.249 -0.1142 -0.1218 -0.1467
14812W        W30281   6.541   0.833  12.726 -0.0328  0.1256  0.0843
14813W        W30282   1.357   1.024   2.603 -0.2005 -0.2370  0.0017
14814W        W30283  12.775   2.642   3.536 -0.1022  0.1799 -0.0396
14815W        W30284   2.684   5.353  10.593 -0.1611 -0.0468  0.0348
14816W        W30285   2.674  16.211   2.659 -0.0577  0.0111 -0.1253
14817W        W30286   3.784  15.031  11.157 -0.1051  0.4102 -0.3108
14818W        W30287   1.377   0.820  11.401 -0.1641  0.2649 -0.1536
14819W        W30288   0.383  10.100   5.249  0.0149 -0.1696  0.2299
14820W        W30289   4.677  12.008   5.013  0.2543 -0.0902  0.1182
14821W        W30290   7.788  16.350  11.313 -0.1929 -0.1844  0.0039
14822W        W30291  17.913  13.024   2.012  0.1334  0.0080 -0.0591
14823W        W30292  16.014   8.410  12.513  0.5142 -0.2477 -0.0610
14824W        W30293   5.215  11.546  14.517 -0.1269  0.1472 -0.0732
14825W        W30294  16.804  11.007  13.673  0.2100  0.3304 -0.1559
14826W        W30295   5.920   0.813   4.544 -0.0096 -0.0953 -0.1123
14827W        W30296  15.827  11.651   5.179 -0.1977 -0.5325  0.0252
14828W        W30297  11.737  16.419  10.495 -0.1219 -0.0674  0.1785
14829W        W30298   3.175   9.079  11.770 -0.1171  0.3667  0.3718
14830W        W30299   8.551   9.749  12.219 -0.1587 -0.0329 -0.1969
14831W        W30300  11.088   1.920   4.558 -0.0110 -0.1339  0.0513
14832W        W30301  18.073   0.629  13.041  0.0725 -0.0089  0.1317
14833W        W30302   8.048  15.124   0.951  0.0820 -0.2584  0.0594
14834W        W30303  11.039   8.357   5.692 -0.1937  0.3023  0.3009
14835W        W30304   3.188  13.107   1.991  0.0965 -0.0356  0.0045
14836W        W30305  10.052   3.497  13.765  0.0828 -0.0677 -0.1805
14837W        W30306   3.410  11.505  12.380  0.0494 -0.0790  0.0299
14838W        W30307  12.535   3.808   3.605  0.0146 -0.3265 -0.2075
14839W        W30308  15.251   9.595  14.712  0.0397 -0.1583  0.2422
14840W        W30309   5.027  11.693  12.134 -0.0824 -0.1796  0.0791
14841W        W30310  11.723  16.221   2.803 -0.2183  0.1033  0.0593
14842W        W30311  16.957  12.230   0.847 -0.1055  0.1195  0.2624
14843W        W30312  15.908   5.970   0.191  0.3155 -0.0184 -0.3174
14844W        W30313   7.790   4.994  11.779 -0.2454  0.1435 -0.1458
14845W        W30314  11.094   6.569  14.711 -0.3422 -0.0675 -0.2396
14846W        W30315  15.565  15.659   0.616  0.3172  0.0864  0.0837
14847W        W30316  12.833  11.289   5.597  0.0178 -0.0546 -0.2972
14848W        W30317  14.034  14.711  14.551 -0.0166  0.4403  0.0372
14849W        W30318  12.291   5.325  12.143 -0.0193  0.0721  0.2934
14850W        W30319   1.273   3.289   5.510  0.0457  0.3042 -0.2167
14851W        W30320  13.069   6.572  12.056 -0.2736  0.2588  0.1220
14852W        W30321  11.930  17.696  14.898  0.0444  0.1824  0.2044
14853W        W30322  17.983  15.351   2.865 -0.1540  0.0629 -0.1489
14854W        W30323  15.760   7.620   4.262  0.1171 -0.2001  0.1517
14855W        W30324   8.371  10.552   5.512  0.0888  0.2361  0.1940
14856W        W30325  11.798   3.932  14.189 -0.0149  0.0934 -0.0944
14857W        W30326   8.143   9.853  11.274  0.0688 -0.0252  0.0430
14858W        W30327   6.850   7.566   0.462 -0.0097 -0.0899 -0.0650
14859W        W30328  17.355  12.772   2.015  0.0182 -0.0223 -0.0409
14860W        W30329  15.479   6.410  14.235 -0.1599  0.1312 -0.2941
14861W        W30330  11.681   0.648   2.416  0.0826  0.0480  0.3227
14862W        W30331   5.801   6.493  12.813 -0.0546  0.1556  0.1630
14863W        W30332   1.922  15.187   1.078 -0.0377 -0.0255  0.1024
14864W        W30333   6.629   1.269   1.842  0.0924 -0.2526  0.0410
14865W        W30334  18.201   3.884  14.289 -0.2345  0.0867  0.2479
14866W        W30335   6.931  11.152   0.979  0.2526 -0.0092  0.0558
14867W        W30336   7.253  14.629   1.060 -0.1797 -0.2303 -0.1494
14868W        W30337   7.327  11.376  11.023  0.1689 -0.0266  0.3151
14869W        W30338  12.526  11.438   6.472 -0.0819 -0.3085  0.0056
14870W        W30339  16.227  15.816  15.199 -0.2963 -0.0018 -0.1151
14871W        W30340  14.355  12.833  11.154  0.0824 -0.2309 -0.0355
14872W        W30341  11.967   0.892   5.421  0.0676 -0.0249 -0.1494
14873W        W30342  14.260   5.662  12.327 -0.3160  0.3079  0.1593
14874W        W30343   0.597  14.022   0.236  0.0658 -0.3211  0.0766
14875W        W30344  12.954  13.694   4.813 -0.1580  0.0107 -0.1250
14876W        W30345  10.912   5.396   0.266  0.1832  0.2462 -0.0623
14877W        W30346  10.043   8.598  15.945  0.1597  0.1327 -0.0554
14878W        W30347   2.608  10.349  14.225  0.0081  0.2753  0.2464
14879W        W30348   9.251  14.198  15.307 -0.2061  0.1261  0.0596
14880W        W30349  10.754   6.362  15.123  0.0623  0.1897  0.1269
14881W        W30350   6.511  14.817  15.997  0.0875 -0.2963  0.1029
14882W        W30351   9.029   1.699  11.853  0.1711 -0.0527  0.1621
14883W        W30352   5.481   9.154  10.457  0.2406 -0.2527 -0.0782
14884W        W30353   2.088   0.255  13.968  0.1275 -0.0480 -0.2007
14885W        W30354   4.480   0.521  15.409 -0.0223 -0.0584  0.3846
14886W        W30355  16.798   2.443  14.015 -0.2643 -0.0007  0.0191
14887W        W30356   3.964   2.950  15.699  0.0483 -0.2319  0.0181
14888W        W30357  14.857   3.008   4.997  0.0906 -0.0298 -0.3901
14889W        W30358   0.031  15.409   4.598  0.2047  0.1863 -0.2096
14890W        W30359  11.113  16.287  12.155  0.0895  0.3073 -0.1211
14891W        W30360  16.007   6.558   0.981 -0.1070  0.1112 -0.0750
14892W        W30361   2.761   6.220  10.850  0.0140 -0.1680 -0.0101
14893W        W30362   4.620  13.416   2.765  0.2664  0.1048 -0.0420
14894W        W30363   5.460  16.788  15.943  0.3499 -0.1350 -0.3007
14895W        W30364  17.563  14.431   2.844 -0.1370  0.0025 -0.1122
14896W        W30365  17.090   0.091   4.738  0.2673  0.0720 -0.2044
14897W        W30366  11.353   4.786   2.070  0.1410 -0.2698 -0.0813
14898W        W30367   1.386   4.985  15.740 -0.0864 -0.2333  0.0831
14899W        W30368  16.011  17.096  11.691 -0.2587  0.5097 -0.2852
14900W        W30369   1.566  17.525   2.019  0.1607 -0.0166  0.2335
14901W        W30370   9.842  13.206   3.174 -0.2298  0.3802 -0.1232
14902W        W30371  10.487   0.964   1.378  0.2135  0.2223 -0.1986
14903W        W30372   0.561   4.457  13.979 -0.1459 -0.1086  0.2984
14904W        W30373   3.790   1.014   3.435 -0.1232 -0.0003  0.1476
14905W        W30374   9.818   3.614   0.965  0.1343  0.1995 -0.1186
14906W        W30375  15.639   4.665   2.974 -0.0316 -0.0454  0.0331
14907W        W30376  16.570  18.003   0.220 -0.0468 -0.0038  0.0231
14908W        W30377   7.558   1.846   1.514 -0.0153  0.0817  0.1610
14909W        W30378  18.051  16.080   1.101 -0.2980 -0.3767 -0.0449
14910W        W30379  17.233   1.978   2.758 -0.1880  0.0311  0.2955
14911W        W30380  15.497  13.145  14.769 -0.4102 -0.0748 -0.1015
14912W        W30381   3.524   6.567   2.570  0.1514  0.1070 -0.0268
14913W        W30382   9.529   7.470  15.151 -0.2569 -0.0687  0.0326
14914W        W30383  18.066  14.073  12.792  0.2013 -0.0490  0.0435
14915W        W30384  13.340  10.326   0.051  0.1041  0.0084  0.1659
14916W        W30385  17.637  18.158   1.518 -0.0072  0.2047  0.0758
14917W        W30386  15.450  12.227   1.277 -0.2365  0.2199  0.0038
14918W        W30387  11.825   8.605   3.665  0.2896 -0.4920  0.2134
14919W        W30388  13.509  17.059   1.608  0.2648 -0.1170  0.0043
14920W        W30389   8.815  10.171   2.341 -0.1944 -0.2241  0.0289
14921W        W30390   2.741   2.944   1.003 -0.3023 -0.1140  0.0044
14922W        W30391   3.321   2.748   0.441  0.0389 -0.0971 -0.4310
14923W        W30392   0.203   1.037   3.177  0.1115  0.2262  0.3942
14924W        W30393  14.770   6.323   0.749 -0.3255 -0.1788 -0.1140
14925W        W30394   1.151  14.196  13.802 -0.1592 -0.0831 -0.1353
14926W        W30395   1.916  15.811   2.161 -0.0454  0.0011  0.2178
14927W        W30396   6.406   2.928   5.160 -0.2401 -0.1783  0.1083
14928W        W30397   8.510  17.448   1.165 -0.1653 -0.0814  0.1648
14929W        W30398  17.329  15.140  13.337  0.1459 -0.0690  0.2128
14930W        W30399   0.453  12.736   2.831 -0.2876 -0.0892 -0.0096
14931W        W30400  17.986  11.742   0.050  0.1661  0.3979 -0.2492
14932W        W30401  10.767  11.932  13.328 -0.1236 -0.0322 -0.0456
14933W        W30402   4.073  11.258  15.928 -0.2088 -0.2113  0.0021
14934W        W30403   3.881  11.985   2.304 -0.0945 -0.1613 -0.2373
14935W        W30404   9.739   8.112   0.048 -0.0424  0.3117  0.2299
14936W        W30405   9.421   8.707   2.415  0.3519  0.0222 -0.2915
14937W        W30406   0.321   9.211   1.345 -0.0525 -0.5161 -0.1414
14938W        W30407  15.765   6.272   5.145 -0.1058  0.0147  0.2248
14939W        W30408   0.144   6.068  13.303 -0.0663  0.3080  0.2685
14940W        W30409   6.226   3.220   0.107 -0.0597  0.0684 -0.0988
14941W        W30410  15.615  17.385   0.623  0.1169 -0.0844 -0.0661
14942W        W30411   9.529   0.374  16.045 -0.3210 -0.1181 -0.0018
14943W        W30412  17.250   8.340   5.406  0.0522  0.0676  0.1750
14944W        W30413   6.792   1.432   9.699  0.0369  0.0402 -0.0628
14945W        W30414   7.877  16.483  12.229  0.0937  0.1424 -0.0851
14946W        W30415   9.920  16.811   0.721  0.1855  0.0024 -0.1500
14947W        W30416  14.806  11.434  12.140 -0.2503 -0.2414  0.0139
14948W        W30417  11.540  13.660  12.465  0.2300 -0.0814  0.1145
14949W        W30418  12.365  17.281   2.023 -0.0586  0.0355 -0.3181
14950W        W30419  17.737  16.003   0.606 -0.1206 -0.0813 -0.2685
14951W        W30420   2.172   3.226  13.554 -0.0950  0.0380 -0.1769
14952W        W30421  13.539   2.110  13.966 -0.2141  0.1805 -0.0335
14953W        W30422   6.433   0.086  11.341  0.5903 -0.0233 -0.0341
14954W        W30423   8.290   2.488  10.838 -0.0105 -0.1418  0.1398
14955W        W30424  10.064   9.125   5.392 -0.0548  0.0985  0.0765
14956W        W30425   0.649   7.936  12.002 -0.0965  0.3805  0.1672
14957W        W30426  10.022   5.653  15.894  0.2160  0.2280  0.2157
14958W        W30427  11.637  11.195  15.218 -0.1419 -0.1472 -0.1041
14959W        W30428   1.175   8.742  11.625 -0.1667 -0.0417  0.0351
14960W        W30429   4.430  13.015   0.378  0.0606 -0.0917  0.2543
14961W        W30430   9.157  14.832   1.164  0.0324  0.0252  0.0762
14962W        W30431  17.485   8.692   2.499  0.1795  0.4654  0.0151
14963W        W30432   4.818   1.328   1.343 -0.0383 -0.1066  0.0044
14964W        W30433  11.304  10.266   0.189 -0.1862 -0.0766 -0.0871
14965W        W30434  10.241  14.103   3.608  0.2985 -0.0610  0.2349
14966W        W30435   0.904  17.232   3.223 -0.1649  0.0964  0.1196
14967W        W30436  10.445  17.540   0.191  0.2150  0.2240 -0.2209
14968W        W30437   4.367   9.514   0.829  0.1717  0.3420 -0.2327
14969W        W30438   8.579  11.983   3.978  0.1160  0.2267 -0.1245
14970W        W30439  17.341   4.196   5.655  0.1149 -0.0177 -0.1628
14971W        W30440  15.728  13.175   0.864 -0.1596  0.0061 -0.0831
14972W        W30441  16.801   3.807   2.448 -0.1224  0.0851  0.0547
14973W        W30442  11.685   8.750  11.487 -0.1439  0.2637 -0.0668
14974W        W30443   6.529   0.337   2.389  0.1936 -0.1568 -0.4692
14975W        W30444  12.566   4.076   0.389 -0.0324 -0.1373  0.0895
14976W        W30445   8.833   8.025  12.319  0.0249  0.1692 -0.0918
14977W        W30446  16.753   8.644   1.542 -0.0846  0.0760 -0.1759
14978W        W30447   2.851   9.085   3.284 -0.0351 -0.1677 -0.0847
14979W        W30448  14.025   1.229  15.131  0.3181  0.3549  0.2358
14980W        W30449  16.595   6.588   3.790 -0.1824  0.1997  0.2105
14981W        W30450  12.055  15.415  15.965  0.2366  0.4876  0.2807
14982W        W30451  16.994   0.071  15.476 -0.1497  0.1349 -0.0391
14983W        W30452   5.915   2.304  11.162 -0.0122 -0.0836 -0.0388
14984W        W30453  11.543  16.039   5.091 -0.0357 -0.1829 -0.0138
14985W        W30454   8.882   9.846  13.944  0.1417 -0.0427 -0.2125
14986W        W30455   2.545   1.009  12.928  0.1460  0.2353  0.3770
14987W        W30456   8.293  12.505  13.637 -0.1872  0.0303  0.1676
14988W        W30457   6.971   2.497   5.862 -0.2629 -0.1998  0.0453
14989W        W30458  12.926  18.261  11.122 -0.2084  0.3292 -0.1168
14990W        W30459   9.056   5.371  15.545  0.0658 -0.0595  0.1439
14991W        W30460   6.060   6.359  10.923 -0.1309  0.0560  0.6345
14992W        W30461   4.597   0.881   1.469  0.0330 -0.0568  0.5361
14993W        W30462  10.988  14.166   1.564 -0.0467  0.3356 -0.0569
14994W        W30463   3.326   3.909  11.338  0.0535 -0.1910 -0.1398
14995W        W30464   4.747  11.283   2.239 -0.0831 -0.1695 -0.0254
14996W        W30465  11.926   6.206   2.450  0.0335 -0.0387 -0.2304
14997W        W30466   4.923   6.758  13.131 -0.1705  0.0749 -0.0612
14998W        W30467   8.769  18.212  15.987 -0.0874 -0.1666 -0.0533
14999W        W30468   6.434   7.964   1.708 -0.2174 -0.2106 -0.1024
15000W        W30469  16.415   5.275   1.429 -0.0547  0.0739 -0.2163
15001W        W30470   4.188   2.074  13.129 -0.0075 -0.2090  0.0169
15002W        W30471   5.477  16.285  13.523 -0.2031 -0.2806 -0.0464
15003W        W30472   0.680   0.935   5.116  0.1851 -0.5208  0.3063
15004W        W30473   3.461  11.474  14.311  0.1835  0.1102 -0.0149
15005W        W30474   4.689  13.584  13.435 -0.4108 -0.2302  0.1413
15006W        W30475  16.835  10.942   1.779  0.4844 -0.1008  0.2095
15007W        W30476   8.314  17.959   4.242 -0.2232  0.1487 -0.1137
15008W        W30477   1.120   8.118   4.788 -0.2358  0.1049  0.1067
15009W        W30478   9.162  14.310  14.723 -0.4020 -0.0698  0.0164
15010W        W30479  11.032   2.418   0.612 -0.2711 -0.3145  0.0401
15011W        W30480  16.358   1.616   3.780 -0.1442  0.2316  0.0954
15012W        W30481   6.357   3.724   2.124 -0.0942 -0.0239  0.1189
15013W        W30482  12.050   9.401  13.766 -0.0417  0.0676 -0.1523
15014W        W30483   8.170   0.197   2.954  0.0138  0.1038 -0.3848
15015W        W30484   5.682  16.743  12.693 -0.0103 -0.1079  0.0191
15016W        W30485   0.588  16.022   5.105 -0.1248 -0.0577  0.1899
15017W        W30486   0.100   6.296  12.737 -0.1059  0.1310  0.4264
15018W        W30487   7.525  10.708  14.301 -0.0874  0.3742  0.0442
15019W        W30488  11.801   1.829   2.212  0.3109  0.0243  0.0607
15020W        W30489   9.617   7.802   2.769  0.0604 -0.1849  0.0391
15021W        W30490  15.665   3.078  14.124 -0.1092 -0.0412 -0.0432
15022W        W30491  15.681  15.530   5.707 -0.1537  0.0425 -0.3745
15023W        W30492   6.311   1.249  12.812 -0.1991  0.1766 -0.2821
15024W        W30493   1.502   3.164   4.553 -0.3573  0.0823  0.2580
15025W        W30494  16.572  14.549  15.487 -0.1061 -0.1289  0.0484
15026W        W30495   1.478   8.335   3.968 -0.1454  0.3153  0.0290
15027W        W30496  10.297   4.628  11.222 -0.0350  0.1565 -0.3315
15028W        W30497   4.703  15.868   2.163  0.1160 -0.0437 -0.2966
15029W        W30498   6.624   7.007   3.620  0.3605  0.0514 -0.2783
15030W        W30499  16.867  12.617   3.987 -0.4279  0.0286 -0.1635
15031W        W30500   2.048  17.071   4.093 -0.2441  0.0063 -0.0416
15032W        W30501   1.733   8.606  12.072 -0.1346 -0.0056  0.1569
15033W        W30502  14.017  17.130  13.529 -0.0181  0.2746 -0.0187
15034W        W30503  11.203   1.271   1.794 -0.0647 -0.0581  0.2379
15035W        W30504   6.230   7.878  14.440 -0.1042  0.2289  0.2898
15036W        W30505   7.069  16.135   2.894  0.4216 -0.1588  0.0003
15037W        W30506  12.323   6.396   4.023 -0.2485 -0.3330 -0.0254
15038W        W30507   1.949  12.379   5.365 -0.5088  0.1492 -0.2186
15039W        W30508   7.911  11.139  13.940  0.0343  0.1102  0.0052
15040W        W30509  12.415  15.038   2.811  0.1689 -0.0378  0.1183
15041W        W30510   4.034   3.382   4.930  0.0001  0.2804  0.1860
15042W        W30511  17.379  16.478  14.191 -0.0902 -0.0761 -0.3490
15043W        W30512   6.553  10.564   4.070  0.0855  0.1249  0.1723
15044W        W30513  18.232   1.429  14.134  0.1272  0.3895 -0.0692
15045W        W30514   1.098   0.264  12.499 -0.2278  0.0147 -0.0970
15046W        W30515  11.397   3.998   0.833  0.1842  0.2027 -0.0697
15047W        W30516  12.430  13.896  11.518 -0.0104  0.0443  0.2425
15048W        W30517  15.220   5.605  15.273 -0.0350  0.0786 -0.3252
15049W        W30518   6.929  15.472   2.395  0.2104  0.1329 -0.2980
15050W        W30519  10.307  14.417  13.263 -0.1176 -0.0924 -0.3482
15051W        W30520   4.568  11.780  15.473  0.2284  0.1775 -0.2936
15052W        W30521   9.834  10.403  12.295  0.0120  0.0724 -0.1251
15053W        W30522  15.549  12.159  11.354 -0.1585 -0.1093  0.1186
15054W        W30523   8.842  12.632  14.869  0.0326  0.0393  0.2199
15055W        W30524   4.494   0.008  15.567  0.2939 -0.0207  0.1306
15056W        W30525  15.058   7.207  14.218  0.1701 -0.0532 -0.3523
15057W        W30526  13.571  10.128   0.811 -0.3497  0.0285  0.1272
15058W        W30527   9.082  11.460  11.286 -0.1347 -0.2542  0.0709
15059W        W30528   5.527  11.282   2.945 -0.2252 -0.4304 -0.0759
15060W        W30529  15.018   1.265  15.754  0.1605 -0.0288 -0.0224
15061W        W30530   5.761  12.389   1.603 -0.1361  0.1997 -0.2733
15062W        W30531   9.201  16.510  15.322  0.1677 -0.0014  0.0686
15063W        W30532  12.559   5.500  13.191 -0.0076  0.0469 -0.0559
15064W        W30533   9.316  14.663  15.563 -0.1178 -0.3794 -0.2827
15065W        W30534   5.514   7.605   4.350  0.3163  0.2359  0.2728
15066W        W30535  17.280   3.802   0.680  0.0763  0.2769  0.2658
15067W        W30536  14.017  13.299  13.214  0.0481 -0.1194 -0.1012
15068W        W30537  14.557   4.150   1.833  0.1222 -0.0068 -0.2101
15069W        W30538   1.878   0.060   4.221 -0.1675 -0.0002 -0.0203
15070W        W30539  12.013  15.845   0.109  0.1504  0.2732 -0.0286
15071W        W30540   0.467  16.835  11.895  0.1421 -0.0421  0.0796
15072W        W30541   8.072   1.557  14.699 -0.1758  0.0034 -0.2114
15073W        W30542  10.500   5.151   0.321  0.0401  0.1211  0.1245
15074W        W30543  12.298   8.370  12.533  0.3812  0.1422 -0.2965
15075W        W30544   8.062   1.445  16.021 -0.1749 -0.1906  0.1973
15076W        W30545  16.859   4.748  12.275 -0.0877  0.4426 -0.0233
15077W        W30546   4.501   9.717   5.500 -0.2013  0.1444 -0.1121
15078W        W30547   2.400   1.960  14.115  0.0005 -0.2316  0.1415
15079W        W30548   3.206  11.408   2.729 -0.1250  0.3562 -0.0056
15080W        W30549   5.136   4.279  14.749 -0.0904 -0.1288  0.0234
15081W        W30550  14.753  17.713  13.858  0.0121  0.2366 -0.0715
15082W        W30551   8.777   1.975  11.429  0.0367 -0.4043  0.1544
15083W        W30552   3.752   1.512  15.812  0.4478  0.0184 -0.0558
15084W        W30553   7.888  13.907   0.385 -0.0379  0.1077 -0.2764
15085W        W30554   8.256   3.883  15.516 -0.0210  0.0839  0.0003
15086W        W30555  14.704  17.063   0.696  0.0710  0.2376  0.1412
15087W        W30556  15.358  12.656  12.739  0.1635 -0.1843  0.3647
15088W        W30557  10.150  12.027   1.823  0.1905 -0.2389 -0.4948
15089W        W30558   4.160   3.706   2.270  0.2368 -0.0236 -0.0580
15090W        W30559  17.389  10.697  15.257  0.0389  0.1268  0.1749
15091W        W30560  14.394   9.034  15.076 -0.0920  0.2098  0.1085
15092W        W30561  10.398  11.769  15.993  0.1628  0.1396  0.1411
15093W        W30562  14.002  12.605   3.954  0.1160  0.0255  0.1604
15094W        W30563  12.996   6.077  11.015 -0.2106 -0.1526 -0.0887
15095W        W30564  12.572  16.911   1.635  0.2247  0.2611 -0.2464
15096W        W30565   1.880  14.220   0.648  0.0311 -0.1551 -0.1326
15097W        W30566  15.320  13.733   3.993  0.0757 -0.3142  0.0694
15098W        W30567   3.422  13.180  15.829 -0.1811  0.0586  0.0157
15099W        W30568  10.185  15.524   0.232  0.1959  0.0306 -0.0789
15100W        W30569  14.471   8.233  15.301 -0.5598  0.1383  0.1378
15101W        W30570  16.310  12.316  14.411  0.2206 -0.3056 -0.0963
15102W        W30571   0.265   5.351   3.244 -0.0004  0.3197  0.1981
15103W        W30572   6.517  17.606  12.706 -0.1138 -0.0256 -0.1387
15104W        W30573   0.883  15.642  11.475 -0.2425  0.0232  0.0785
15105W        W30574  15.807   8.273  11.938  0.2009  0.1125  0.1467
15106W        W30575   4.000   4.860   2.498 -0.4027  0.1676  0.0704
15107W        W30576  15.206  12.477   2.365 -0.2992 -0.3213 -0.0065
15108W        W30577   0.577   3.499   4.916 -0.0466  0.3916  0.1194
15109W        W30578  14.364  15.208   2.448 -0.0434  0.0519 -0.0494
15110W        W30579  15.196   6.711   3.575  0.1097  0.2160  0.3692
15111W        W30580   7.558  15.902  12.971  0.0221 -0.0538  0.1330
15112W        W30581   1.958   2.735   1.630  0.0324  0.1134  0.0494
15113W        W30582   8.625   9.939   2.820  0.1494 -0.2659 -0.4109
15114W        W30583  10.351  13.692   4.909  0.1386  0.3191  0.0789
15115W        W30584  16.448  12.196  12.336 -0.3810 -0.0672 -0.0513
15116W        W30585  13.543   0.041   1.287  0.4353  0.2660 -0.0244
15117W        W30586   6.518   3.316   4.835 -0.1878 -0.1331  0.0683
15118W        W30587  10.434   7.145  14.937  0.0744  0.1823 -0.1935
15119W        W30588  15.490   9.509  12.041 -0.3264  0.0574  0.2745
15120W        W30589   1.654   3.149  10.909 -0.2325 -0.2434  0.3896
15121W        W30590   5.495   2.505  13.447 -0.0194  0.0488  0.0699
15122W        W30591  11.856   5.491   5.132 -0.3080  0.3453  0.0506
15123W        W30592   6.280  13.090  15.257 -0.1498  0.0859  0.2640
15124W        W30593  17.802  10.866  15.090  0.3367  0.0091  0.1911
15125W        W30594  13.193  12.940  15.028  0.3992 -0.0353  0.0114
15126W        W30595  16.397   6.042  15.207  0.2315  0.1826 -0.1321
15127W        W30596   9.535  11.692   1.451 -0.0533  0.2326 -0.1660
15128W        W30597  13.584  11.619   2.188 -0.2512  0.2458 -0.3338
15129W        W30598   4.437  16.521  12.431 -0.1905 -0.2599  0.1324
15130W        W30599  15.339  13.538  13.234  0.2288 -0.0172 -0.2722
15131W        W30600   3.311  18.187   3.249 -0.3693 -0.1130 -0.0841
15132W        W30601   6.877  11.689   1.612  0.5053  0.2604 -0.0664
15133W        W30602   2.689  14.278   1.058  0.0261  0.0157 -0.1594
15134W        W30603   7.642  18.243   2.369  0.0948 -0.1687  0.0387
15135W        W30604  11.132   2.623  13.843  0.1455 -0.0104 -0.0433
15136W        W30605  10.649  16.893  13.530  0.1035  0.2328  0.0249
15137W        W30606  15.863  11.519  14.697  0.0240 -0.1801 -0.1110
15138W        W30607  13.776   4.908   5.617  0.1434  0.4559  0.0119
15139W        W30608  10.366  11.108  13.973 -0.0812 -0.0113  0.1893
15140W        W30609   4.923   8.549  12.291 -0.0008  0.1403  0.0333
15141W        W30610  12.774  13.926   3.577 -0.0404 -0.0856 -0.0567
15142W        W30611   5.107  10.356   4.433  0.0879  0.0216 -0.1341
15143W        W30612   6.241  13.196  10.607  0.1838 -0.0268  0.0588
15144W        W30613  13.326  14.564   4.187 -0.3082  0.1162 -0.2657
15145W        W30614  15.227   0.678   2.349  0.2214 -0.0097 -0.0288
15146W        W30615   4.018  15.157   4.989 -0.2622  0.1173  0.1284
15147W        W30616   9.112  12.543   1.388 -0.0552  0.1757  0.0881
15148W        W30617  12.468  11.031  13.974  0.1218  0.2478 -0.0133
15149W        W30618   0.171  18.136  15.979 -0.0971 -0.0450 -0.1831
15150W        W30619  12.751   0.485   4.623 -0.2841  0.0241 -0.1706
15151W        W30620   1.142  11.876   0.008  0.0876  0.0174  0.2464
15152W        W30621   6.365   6.861   4.800  0.1912  0.0606  0.0240
15153W        W30622  17.429   7.204   3.457 -0.3203  0.0501  0.0558
15154W        W30623   9.703   8.439   2.756 -0.3815  0.2185 -0.2493
15155W        W30624   3.759  14.270   3.721  0.1621 -0.1088  0.1047
15156W        W30625   3.574   5.306  13.052 -0.0687 -0.2667 -0.2543
15157W        W30626  16.209  16.053   4.153 -0.0998  0.3329  0.2686
15158W        W30627   9.054   6.594  14.987 -0.2739  0.0952 -0.0867
15159W        W30628  10.815   0.876  16.078 -0.0533 -0.0323  0.0379
15160W        W30629   7.890  10.647  10.673 -0.2219  0.0106 -0.2325
15161W        W30630   4.226  10.096   2.106  0.0031 -0.3930 -0.0716
15162W        W30631  11.893   9.831   4.646 -0.0142 -0.0381 -0.1601
15163W        W30632  15.390   0.854  12.181 -0.2572 -0.4849 -0.0019
15164W        W30633  13.761   2.083   0.566 -0.0035  0.0937 -0.0745
15165W        W30634  16.519   4.548   2.556  0.1516 -0.0045  0.2499
15166W        W30635   4.910  13.068   3.485  0.1032 -0.1018 -0.1102
15167W        W30636   2.558  15.336  15.454  0.1617 -0.1467  0.1645
15168W        W30637  10.738  16.205   4.119  0.1089 -0.1343  0.0001
15169W        W30638  11.051   7.857  15.003 -0.0653  0.0667 -0.1564
15170W        W30639   8.425   2.384   2.573 -0.0721 -0.1315  0.0664
15171W        W30640  12.976   5.069   3.004 -0.2324 -0.2531  0.1942
15172W        W30641  17.960   7.525  14.844 -0.1670  0.1391 -0.0326
15173W        W30642   5.411   1.208  11.049 -0.1626  0.0473 -0.2690
15174W        W30643  11.903  15.707  14.398 -0.2287  0.0342  0.2897
15175W        W30644   9.022  14.095  11.254  0.2585  0.0261  0.0654
15176W        W30645  13.321   0.269   5.419  0.2484  0.0586 -0.1435
15177W        W30646  14.239   8.346   5.505  0.4699  0.1354  0.2876
15178W        W30647   5.508  13.322  15.688 -0.2121 -0.1634  0.0581
15179W        W30648   3.177  18.233   2.762  0.2257  0.0110 -0.1492
15180W        W30649  16.658   9.576  10.130 -0.0607 -0.0080 -0.1460
15181W        W30650   6.677   4.185  12.701  0.0786  0.1907 -0.0691
15182W        W30651  10.210  13.812   1.270 -0.1023  0.0199 -0.0533
15183W        W30652  16.699   3.313   3.936  0.0819  0.0362 -0.0502
15184W        W30653   3.364   7.594  12.208  0.4615  0.3894  0.0724
15185W        W30654   1.528   0.521  12.550  0.2543  0.4263  0.1678
15186W        W30655   3.683  15.221   1.609  0.2272  0.0983 -0.2034
15187W        W30656   7.788  16.713   2.642 -0.0064 -0.1071  0.0569
15188W        W30657   1.588   4.574  16.046  0.0809  0.0891 -0.2270
15189W        W30658  13.654   2.258  11.993 -0.1046 -0.2120 -0.1500
15190W        W30659   7.824   0.200  11.034  0.1012  0.2716 -0.0922
15191W        W30660  14.649   8.435  15.761  0.0092 -0.1992  0.0578
15192W        W30661   2.847   7.524  13.787 -0.2750  0.0925 -0.0382
15193W        W30662   7.588  15.938  11.540 -0.0375 -0.0348  0.2859
15194W        W30663   1.036  11.524   5.244  0.0045 -0.0916 -0.1595
15195W        W30664   1.405   9.203  15.947  0.2162  0.0140  0.0224
15196W        W30665  10.059   8.070  15.039 -0.0844 -0.2882  0.2448
15197W        W30666   2.894  11.292   1.088  0.1386 -0.2205 -0.2079
15198W        W30667  17.484   6.508  11.627  0.0868  0.1308  0.2686
15199W        W30668   5.093   6.454  16.045 -0.4099  0.0771 -0.1469
15200W        W30669   9.080   5.302  10.750 -0.0938  0.2445  0.1036
15201W        W30670   4.719  17.103  13.623  0.1727  0.1563 -0.0435
15202W        W30671  12.842  12.232   3.628  0.2107 -0.0248 -0.0132
15203W        W30672  12.451   1.223  12.574  0.0773  0.1386  0.2249
15204W        W30673   7.065  13.381  12.688 -0.2690  0.2135  0.0073
15205W        W30674  12.501   2.729  14.969  0.3791  0.1195 -0.2517
15206W        W30675   3.434  10.175  14.730 -0.1934  0.3501  0.1706
15207W        W30676   5.119  11.858   0.028  0.0010 -0.3980 -0.1188
15208W        W30677   2.341   9.563  11.978  0.1961  0.0565  0.1498
15209W        W30678   4.364   4.309  14.971 -0.2339 -0.0001 -0.3514
15210W        W30679   7.721  14.602  15.686  0.1477 -0.0618 -0.1871
15211W        W30680   5.395  12.740   4.957  0.0303 -0.2026  0.1738
15212W        W30681   6.116  10.025  10.102 -0.1149 -0.1848 -0.0498
15213W        W30682  12.324  16.707  12.765 -0.0203 -0.0528 -0.1873
15214W        W30683   1.558  18.193  12.510  0.1295 -0.3578 -0.1727
15215W        W30684   6.526   8.833   5.159 -0.0392  0.0099  0.3126
15216W        W30685  14.608   4.278  11.792 -0.2395  0.2160  0.0340
15217W        W30686   9.675  17.813   3.928  0.1956 -0.0467  0.0548
15218W        W30687   0.085  18.250   4.653 -0.1136 -0.0734 -0.1819
15219W        W30688  11.335   4.151   0.286 -0.1556 -0.0288 -0.3918
15220W        W30689   3.285  16.185  15.769  0.0536  0.0479  0.0210
15221W        W30690  16.543   4.103   2.802 -0.0990 -0.3277  0.1091
15222W        W30691   3.041   6.897   4.400 -0.0353 -0.1325 -0.2972
15223W        W30692   4.496   3.853   2.587 -0.1209 -0.0591 -0.2589
15224W        W30693   1.285   3.578   4.578  0.1494 -0.1213  0.3084
15225W        W30694  12.068  10.750   3.764  0.3936  0.0187 -0.2676
15226W        W30695   3.996   4.583  11.193  0.0741 -0.0426  0.0017
15227W        W30696   3.823  14.430   1.016 -0.1039 -0.2277 -0.0626
15228W        W30697  11.325   7.357   1.832 -0.0367  0.1756  0.0710
15229W        W30698   7.596  10.435  15.110 -0.0704  0.1109 -0.2078
15230W        W30699   3.860   0.542  11.811  0.1750 -0.0348 -0.0694
15231W        W30700   0.822  12.806  15.887 -0.0194  0.0916 -0.3634
15232W        W30701   1.416   7.791  11.254 -0.0445 -0.1715 -0.0376
15233W        W30702   9.449   5.004  11.579  0.3187  0.1513 -0.2561
15234W        W30703   8.449  15.773   2.576 -0.0433  0.1039 -0.0766
15235W        W30704   1.251  16.850   1.007  0.0266  0.0537  0.1462
15236W        W30705  14.635   0.755   0.152  0.0993  0.0064  0.0293
15237W        W30706  14.598  18.227   5.309  0.1661 -0.2183 -0.1120
15238W        W30707   0.107  13.560   0.645 -0.1317  0.0071 -0.2905
15239W        W30708  17.631  13.666   0.799  0.0784  0.3157  0.1879
15240W        W30709  13.935   7.805  13.106 -0.0506 -0.2232  0.1122
15241W        W30710  16.168   5.296   4.165  0.2169 -0.2853 -0.1056
15242W        W30711  10.635   5.304   2.809  0.0583  0.0048 -0.3102
15243W        W30712  16.561   6.935  12.378  0.2523  0.2028  0.2406
15244W        W30713  14.096  17.538   1.987  0.3590  0.0466  0.1152
15245W        W30714  17.448  13.322  15.672  0.1325  0.0653 -0.2930
15246W        W30715  17.088   0.850   4.688 -0.0427 -0.0441 -0.2479
15247W        W30716  12.878  15.258   5.211 -0.2624 -0.0240  0.3533
15248W        W30717  13.440  10.671  14.046 -0.1113  0.1567  0.1371
15249W        W30718  17.093  13.569  14.787 -0.0798 -0.0861 -0.1767
15250W        W30719  16.355   3.873  14.241  0.0926  0.1127  0.0245
15251W        W30720   1.414  12.292   3.787 -0.1157  0.0901  0.0489
15252W        W30721  15.250   3.396  13.009  0.1970 -0.0987 -0.1793
15253W        W30722   9.790  13.596   4.854 -0.0560  0.2313  0.0125
15254W        W30723   7.477  18.162   0.486 -0.3706  0.1307 -0.1356
15255W        W30724   3.495   6.457  10.875 -0.1966  0.1818  0.0094
15256W        W30725  11.177  13.099   4.222  0.0541  0.3279  0.2590
15257W        W30726  11.550   2.998  16.031  0.2221  0.1336  0.3015
15258W        W30727  12.246   3.670  14.243 -0.0274 -0.1256  0.2273
15259W        W30728   2.133   9.955  14.922  0.1992  0.1067  0.5281
15260W        W30729   2.767   5.397   1.591 -0.1083  0.1832  0.0235
15261W        W30730   8.623   4.586   0.533 -0.3233 -0.0026  0.0953
15262W        W30731   5.478   2.531   6.223  0.0849  0.1038 -0.2049
15263W        W30732   1.179   7.647   0.951  0.0768  0.2867  0.0227
15264W        W30733   3.196   0.460  14.750 -0.1946 -0.1258  0.1430
15265W        W30734  17.370   8.552  11.139 -0.3807  0.3063 -0.0500
15266W        W30735   0.140   6.098  11.077  0.0201 -0.0974 -0.0028
15267W        W30736  15.832  15.037   3.624 -0.0129  0.0318  0.0530
15268W        W30737   0.107   3.540   0.794 -0.0679  0.3872  0.2005
15269W        W30738   7.551   1.000  12.478  0.2234 -0.0075  0.2061
15270W        W30739   3.486   2.829  13.345 -0.0806 -0.1258 -0.2286
15271W        W30740  11.055   4.773   3.471  0.1566 -0.0310  0.0340
15272W        W30741   5.825  10.418  10.106  0.0730 -0.1432 -0.2575
15273W        W30742   8.373  11.507  15.223  0.1613  0.1116  0.0555
15274W        W30743   0.290   2.199   4.444  0.0576 -0.0477 -0.2068
15275W        W30744   4.366   8.126  15.450 -0.1109  0.0224 -0.2347
15276W        W30745  16.734   9.443   2.796 -0.0351 -0.2145  0.0612
15277W        W30746  18.099  14.725   3.741  0.2167 -0.0906  0.2208
15278W        W30747  17.755   6.555  11.212 -0.1382 -0.1150 -0.1617
15279W        W30748   2.820   9.344   5.231  0.3630 -0.0564 -0.2107
15280W        W30749   3.661  16.524  11.931  0.0072 -0.0072 -0.0872
15281W        W30750  13.783   6.703  15.555  0.0206  0.0638 -0.1655
15282W        W30751  15.113  18.079  14.821 -0.2400  0.0619  0.0386
15283W        W30752  16.046   7.351   2.808  0.2348  0.2053  0.1023
15284W        W30753  12.506  16.451   1.692 -0.2124  0.0005 -0.2172
15285W        W30754   0.098  10.311   1.785  0.0004  0.2306 -0.0982
15286W        W30755  17.130   9.661  13.111  0.0155  0.0404 -0.4245
15287W        W30756   4.044  15.194   0.471 -0.2150 -0.0648  0.0302
15288W        W30757   7.148   0.747  13.571 -0.1588 -0.3414 -0.0568
15289W        W30758   9.412  10.343   4.824 -0.2871 -0.2647 -0.2378
15290W        W30759   8.098  13.835  13.712  0.5759 -0.0544  0.1489
15291W        W30760   6.222  11.184   1.835  0.0272  0.1744  0.0884
15292W        W30761  11.036   3.280   1.086  0.0634  0.0239  0.0258
15293W        W30762  10.021  17.284  16.101  0.2724  0.0075 -0.2071
15294W        W30763   2.264  10.137  16.067  0.1827 -0.0449  0.2097
15295W        W30764  18.169   3.983   3.477  0.1570 -0.1235  0.1093
15296W        W30765   2.952  15.258   2.398  0.1696  0.0224 -0.2547
15297W        W30766  14.286   6.527  12.145 -0.4470  0.1545  0.0140
15298W        W30767  13.897   9.777   0.679  0.0562 -0.0200 -0.1584
15299W        W30768  11.158   6.365  15.982  0.2057 -0.1394  0.1789
15300W        W30769   2.735  16.215   1.641  0.1615  0.0294 -0.0513
15301W        W30770  12.186  11.694   5.117 -0.0597 -0.0619  0.0113
15302W        W30771   7.543   2.195  15.076  0.2075 -0.0245  0.0651
15303W        W30772  17.310  10.266   0.364  0.2000  0.0099  0.0587
15304W        W30773   0.658   7.451  10.901 -0.2738  0.0841 -0.0233
15305W        W30774  17.865   2.977  14.216  0.3086  0.0165  0.0832
15306W        W30775  16.635   7.420  14.776  0.1434 -0.1536 -0.1800
15307W        W30776   8.608   7.484  14.224  0.1652 -0.0154  0.1151
15308W        W30777   2.841   4.760  12.486  0.2051 -0.3104 -0.0324
15309W        W30778   6.290   7.443   1.386 -0.2215 -0.4033 -0.0645
15310W        W30779   5.289  10.246   4.979  0.1015  0.0169  0.0333
15311W        W30780   1.228  13.630  11.573 -0.0254  0.0205 -0.1138
15312W        W30781   0.163   7.129  11.038  0.0147  0.0493  0.1351
15313W        W30782   2.361   6.256   4.999 -0.0281  0.3740  0.2017
15314W        W30783   1.710  14.195   3.182 -0.1415  0.2212  0.0055
15315W        W30784  10.136   7.123  11.413 -0.1769  0.0417  0.0999
15316W        W30785   3.141  14.040   1.767 -0.0338 -0.0730 -0.0465
15317W        W30786   6.902   8.212   4.478  0.2727  0.2846  0.0324
15318W        W30787   5.692   3.105   2.729 -0.1836 -0.2179  0.2500
15319W        W30788   5.879  11.113   0.058  0.2006 -0.0725  0.4121
15320W        W30789  11.770   2.154   1.785 -0.0854 -0.3957  0.0561
15321W        W30790   8.608  17.464   2.304  0.1228  0.0872 -0.1788
15322W        W30791  11.752   3.635   5.414  0.0040  0.0015 -0.0383
15323W        W30792  16.969   0.208  12.349  0.0905 -0.1583 -0.1906
15324W        W30793  13.215  10.642   1.970  0.0193  0.0321 -0.1473
15325W        W30794   6.694   6.006   1.990  0.1742  0.1871 -0.0105
15326W        W30795   3.685  13.383   1.106  0.2946  0.2374  0.1595
15327W        W30796   4.485   9.978   3.016 -0.1053 -0.2270  0.0937
15328W        W30797  18.070   8.634  15.944 -0.1336 -0.1680  0.0141
15329W        W30798  16.296   6.975   0.885 -0.0518 -0.3762  0.1315
15330W        W30799  11.014   0.162   2.257  0.0044 -0.2038  0.0752
15331W        W30800  17.698   2.369   4.904 -0.1409 -0.2635  0.0414
15332W        W30801  16.706  13.369   1.962 -0.0514  0.2905  0.2388
15333W        W30802   4.779  10.142   4.763  0.0110 -0.1029 -0.0434
15334W        W30803   9.218  16.065  12.229 -0.0242 -0.0898 -0.0943
15335W        W30804  16.348   9.081   4.042 -0.0645  0.2951  0.3366
15336W        W30805   5.446   7.274  15.112 -0.0917  0.0916 -0.1809
15337W        W30806  11.109   0.962  14.542  0.2395  0.0524  0.1246
15338W        W30807  10.150   6.638  11.410 -0.0832  0.0264 -0.2511
15339W        W30808  12.944  15.012   2.678 -0.4008 -0.0351 -0.1333
15340W        W30809  16.226  17.327   5.555 -0.1762  0.0799 -0.1662
15341W        W30810   6.964   6.640   2.763  0.0124  0.5162  0.1711
15342W        W30811   5.747  16.084  15.537 -0.0396  0.0912 -0.1208
15343W        W30812   6.780  15.324  15.876  0.0129  0.0698 -0.0164
15344W        W30813  11.459  15.188  14.998 -0.0187 -0.3206  0.0276
15345W        W30814  14.013  15.869   3.135  0.0958 -0.0044  0.3026
15346W        W30815  17.777   0.341   0.802  0.1292 -0.0887 -0.0260
15347W        W30816   4.054  12.843  11.309 -0.3119  0.4407  0.2128
15348W        W30817  14.503  12.769  15.509 -0.0329  0.2186 -0.2398
15349W        W30818   8.036  16.127   0.831  0.0206  0.1589  0.0889
15350W        W30819   7.085   0.935  14.682 -0.0277 -0.3928  0.1199
15351W        W30820   8.874  17.244   3.274  0.0878  0.0024 -0.0957
15352W        W30821   5.447  14.231   2.998 -0.3410  0.0057  0.3093
15353W        W30822   5.801  12.514   5.151  0.0874 -0.0460  0.3365
15354W        W30823  10.239   0.587  15.454  0.2873 -0.2182 -0.0718
15355W        W30824   0.160   3.658  13.577 -0.1459  0.1227  0.2536
15356W        W30825  14.773  16.131  13.756 -0.0353 -0.3869 -0.0752
15357W        W30826   9.362   9.471  13.012 -0.0975 -0.0854  0.3328
15358W        W30827   8.547  16.304  13.082 -0.3940 -0.0606  0.0024
15359W        W30828   6.034   6.090   3.227  0.0683  0.2269  0.1933
15360W        W30829  15.078  16.163  11.590 -0.1820 -0.1377  0.2074
15361W        W30830   6.416   5.157   2.450 -0.0041  0.2225  0.1605
15362W        W30831  10.118  16.940   1.255 -0.1522 -0.2845 -0.1585
15363W        W30832  15.204   5.098  15.463 -0.0929 -0.1529  0.0287
15364W        W30833   5.812   1.782  13.936 -0.2013  0.1383 -0.0739
15365W        W30834  11.873  10.725  15.664 -0.1489 -0.0914 -0.2245
15366W        W30835  16.676  10.463   0.920 -0.2576  0.0874 -0.0320
15367W        W30836   1.506   2.281   2.817 -0.0389  0.2139 -0.1950
15368W        W30837   0.578  14.961   1.106 -0.0383 -0.0253  0.1765
15369W        W30838   5.824  17.084   1.191 -0.1444 -0.1800  0.2989
15370W        W30839   2.230   2.642   3.360 -0.2649  0.2183 -0.0390
15371W        W30840  13.893   6.659   4.813 -0.3266  0.0412  0.0515
15372W        W30841   5.864  18.099   2.086  0.2728 -0.3206 -0.2779
15373W        W30842   5.459   7.764  11.922  0.0717 -0.0397  0.1103
15374W        W30843  11.830   6.911  10.743 -0.1336  0.0313 -0.0051
15375W        W30844   0.512  13.786   4.360 -0.0345  0.0181  0.0064
15376W        W30845   2.304   3.654  13.773  0.1827 -0.0503  0.1188
15377W        W30846   8.334  12.376   2.884  0.2374 -0.0650 -0.0575
15378W        W30847  13.918  11.310  13.348 -0.2228  0.2487 -0.1857
15379W        W30848   1.865  14.499  14.773 -0.0425  0.1071 -0.0762
15380W        W30849   4.284   0.669   1.085 -0.1071 -0.2654  0.2248
15381W        W30850   0.640  13.582  15.461  0.0679 -0.0031  0.1845
15382W        W30851  12.984  14.242  11.516 -0.3016  0.0621  0.3501
15383W        W30852   7.893   0.071  12.836  0.1015 -0.2099  0.1914
15384W        W30853   4.705   6.265  14.321 -0.2515 -0.3187 -0.1211
15385W        W30854   2.708   4.051  11.954 -0.3539 -0.1777 -0.1169
15386W        W30855   7.379   5.921  12.299 -0.1495 -0.3755  0.3723
15387W        W30856   3.287  11.696   1.746 -0.2066  0.0676 -0.2187
15388W        W30857   9.496  10.088  12.447  0.2005 -0.1418 -0.1253
15389W        W30858  13.385  11.424   3.197  0.1440 -0.0217  0.0350
15390W        W30859  11.812   1.400  11.923 -0.4202 -0.2400  0.0343
15391W        W30860  15.723  15.751   6.182  0.0829  0.0949 -0.1911
15392W        W30861  15.036  16.928  12.144  0.2751  0.1333 -0.1123
15393W        W30862  17.113   3.647   1.624 -0.0644 -0.0240 -0.1865
15394W        W30863   6.154   2.714  12.881  0.2556  0.2673 -0.0775
15395W        W30864   3.378   0.668  11.039 -0.3486  0.3814  0.0639
15396W        W30865   3.999  14.805   5.745  0.2661 -0.2448 -0.1220
15397W        W30866  18.203  12.098   2.843 -0.0873  0.0686  0.0175
15398W        W30867   0.707   4.395  14.774  0.2079 -0.2721  0.1165
15399W        W30868   4.705  11.549   1.129  0.0295 -0.1083 -0.0691
15400W        W30869   1.394   8.291  15.011  0.3465  0.1045  0.1060
15401W        W30870  15.971   9.937   2.507 -0.2695 -0.0845 -0.0392
15402W        W30871  15.167   2.994   0.923  0.0233 -0.0499 -0.1547
15403W        W30872  12.425   6.796   4.940 -0.3298 -0.0207 -0.3932
15404W        W30873   9.711   1.024  15.772 -0.3545  0.2614 -0.0671
15405W        W30874  15.905   5.196   2.531 -0.2312  0.1175  0.2187
15406W        W30875   6.483   2.234  11.184 -0.3459  0.0236  0.0953
15407W        W30876   2.367   6.546  10.761  0.1120  0.0157 -0.0218
15408W        W30877   6.054  16.329  11.022  0.1042 -0.0264 -0.2176
15409W        W30878   6.452  10.930  12.357  0.1785 -0.1813  0.2669
15410W        W30879   9.395   4.134  13.183  0.0070  0.1459  0.1167
15411W        W30880   8.896   1.984  13.690 -0.0175  0.2145 -0.2381
15412W        W30881  11.401  13.278  13.246 -0.2992  0.1306  0.2421
15413W        W30882   8.632  17.302  11.760 -0.1968 -0.0080 -0.2234
15414W        W30883   1.439  12.071   2.036  0.2796 -0.1875  0.1837
15415W        W30884  16.426   3.597   3.266  0.2068  0.3238 -0.3381
15416W        W30885   4.564  11.194  13.368 -0.1534 -0.2716  0.2480
15417W        W30886   7.783   8.599   3.350 -0.1026 -0.0034 -0.0359
15418W        W30887  14.876   0.005  12.635  0.3614 -0.1117  0.0906
15419W        W30888  13.919  16.011   4.525  0.2808 -0.1625  0.0768
15420W        W30889   2.774   3.128   3.328 -0.0546 -0.1349 -0.2363
15421W        W30890  12.287   1.550  12.105  0.0776 -0.0838  0.0106
15422W        W30891  11.399   3.677   5.030  0.0643 -0.0987  0.1329
15423W        W30892   7.944   4.399   5.225 -0.0323 -0.0025  0.2016
15424W        W30893  18.089  12.247  10.158  0.0808 -0.0547 -0.0047
15425W        W30894   5.878  16.196   4.848  0.1717  0.2099 -0.0979
15426W        W30895  15.494  15.706   1.875  0.0406  0.3236  0.2061
15427W        W30896  17.835   4.323  13.638  0.1405 -0.2442 -0.2238
15428W        W30897   5.622  10.596   0.617 -0.1768  0.0206 -0.2357
15429W        W30898  18.054   0.660   1.584 -0.0018  0.0981  0.1610
15430W        W30899  13.042   0.592   0.749 -0.1583  0.1315  0.0439
15431W        W30900   1.439  15.210   0.689 -0.1099 -0.1259 -0.0669
15432W        W30901  11.643  12.589  15.736  0.0505 -0.0070  0.0444
15433W        W30902   8.132   9.165   3.620  0.1583 -0.0610  0.1365
15434W        W30903  10.630   2.962  12.646  0.0789 -0.2300  0.1226
15435W        W30904   3.967   4.370   3.431 -0.0318 -0.1322  0.0392
15436W        W30905  12.140  12.649   5.264 -0.0598 -0.3257  0.3245
15437W        W30906   9.358   4.512  13.862 -0.2738 -0.0773 -0.4040
15438W        W30907   0.441  16.998   1.582  0.0503 -0.3459 -0.0507
15439W        W30908   8.614  13.512   0.242 -0.0876 -0.2868 -0.0183
15440W        W30909  11.260  17.967  14.001 -0.0553 -0.2018  0.0268
15441W        W30910   4.466  15.639   1.121 -0.2139 -0.1530  0.1917
15442W        W30911  10.691  12.400  15.475 -0.1774 -0.2067  0.0888
15443W        W30912  11.209   5.514   1.172  0.0504 -0.0128 -0.0045
15444W        W30913   0.356  18.257   5.089 -0.0045 -0.1824  0.0927
15445W        W30914   3.217  17.310  10.974 -0.0697  0.0312 -0.2461
15446W        W30915   2.634  12.606   1.252 -0.0228  0.1520 -0.0675
15447W        W30916  16.726   6.669  14.032  0.1568 -0.1378 -0.0627
15448W        W30917   4.291   4.097   3.084 -0.1836  0.1112 -0.0193
15449W        W30918   9.813  17.406  13.062 -0.3189 -0.0093 -0.3408
15450W        W30919   3.776   7.440   2.656  0.1510  0.0801  0.1453
15451W        W30920   1.118   9.697   2.476 -0.0178 -0.1644 -0.0208
15452W        W30921  15.224  10.426  15.894 -0.2644 -0.3373 -0.0100
15453W        W30922   0.685   8.224   4.660  0.0641  0.0971 -0.0098
15454W        W30923   2.025   0.058  15.273 -0.0109 -0.0427  0.0015
15455W        W30924   6.954  17.626   5.019  0.1336  0.0040  0.1176
15456W        W30925   7.936   1.659   4.067 -0.0870 -0.3283  0.1018
15457W        W30926  11.583  16.794   0.960 -0.2474 -0.1792  0.2736
15458W        W30927   8.588   4.152   0.843 -0.0295  0.3646  0.0381
15459W        W30928   2.946  18.099  15.819  0.0573 -0.1267 -0.0176
15460W        W30929  11.658   0.154   3.109 -0.1620 -0.0215  0.0444
15461W        W30930   5.400  14.694  11.421  0.1352  0.0130  0.0269
15462W        W30931  12.112  14.495   4.716 -0.0614 -0.1356 -0.0633
15463W        W30932   1.320  12.951  12.547 -0.0078 -0.1472  0.1121
15464W        W30933  17.850   7.095  13.215 -0.0681 -0.0395  0.0234
15465W        W30934  11.691  12.811  13.227  0.1318  0.1041  0.0030
15466W        W30935  11.165  11.190   0.105  0.0792 -0.2281  0.1063
15467W        W30936  13.262   7.725  14.078 -0.0581 -0.2046  0.1765
15468W        W30937   3.370  13.725   1.026 -0.2759 -0.1176  0.0660
15469W        W30938   8.788   2.616  15.374 -0.0608 -0.1498  0.3922
15470W        W30939  11.167   9.486   3.036 -0.0313 -0.0330  0.2669
15471W        W30940   8.834  11.178   2.979  0.2503  0.1053  0.1337
15472W        W30941  15.426  14.903   4.821  0.3048  0.0916  0.1736
15473W        W30942  12.260   7.842   1.681  0.0554  0.3650 -0.0198
15474W        W30943   9.959  12.253  15.583 -0.0426 -0.1655  0.0883
15475W        W30944   7.808   3.477   1.974 -0.0455 -0.0302 -0.1476
15476W        W30945  12.469  10.393   4.854  0.0055  0.0800  0.0856
15477W        W30946   1.251   1.555   1.725 -0.2990  0.0686  0.0944
15478W        W30947   5.842   7.085  13.597 -0.2116  0.1801  0.2263
15479W        W30948   3.476  12.518  14.270  0.1842  0.0447 -0.1627
15480W        W30949   6.670   8.265  13.603 -0.0563  0.0459  0.0645
15481W        W30950   7.471  11.027   3.932 -0.3308 -0.0481 -0.3422
15482W        W30951  15.261   7.149  12.909  0.2441 -0.1330  0.3014
15483W        W30952   9.921   9.069   0.372  0.0188 -0.1101 -0.0762
15484W        W30953  16.607  14.972  10.848 -0.1878  0.1817 -0.0286
15485W        W30954   2.194   5.661  11.362 -0.0537  0.0504  0.0456
15486W        W30955  17.712   1.261  11.862  0.0950  0.0539 -0.1012
15487W        W30956  14.148  11.926  13.008 -0.1249 -0.3089 -0.1762
15488W        W30957  12.791   5.403  12.165 -0.0895 -0.0047  0.1172
15489W        W30958  14.189   8.648  11.788 -0.0748 -0.0397  0.1401
15490W        W30959   9.955  17.024   2.003  0.0368  0.1021 -0.1064
15491W        W30960  12.327  18.196   2.170 -0.1426 -0.0048 -0.0901
15492W        W30961   0.407  17.498  11.843  0.2353  0.0348 -0.0364
15493W        W30962  12.340  16.256  16.023 -0.1954 -0.1371 -0.0357
15494W        W30963   2.572  10.502   4.460 -0.2295  0.3668 -0.0019
15495W        W30964   1.596  10.997   0.360  0.1175  0.0021  0.0907
15496W        W30965   1.192  14.812   4.845 -0.0563 -0.0131  0.0158
15497W        W30966   8.731   9.484  14.729  0.0616 -0.1676 -0.1774
15498W        W30967   8.677   3.119   4.285  0.1704 -0.0650 -0.2140
15499W        W30968  10.366  12.882   2.280  0.4300  0.1119  0.1271
15500W        W30969   1.165  15.870   3.881 -0.2401 -0.0004 -0.0181
15501W        W30970   4.639   6.807  12.327 -0.1186  0.0604  0.2765
15502W        W30971  14.143   2.797   3.453  0.0762 -0.3233  0.3719
15503W        W30972  11.469   0.963   5.617  0.1799  0.1528 -0.1328
15504W        W30973   8.778  14.817   5.323  0.0374  0.1436  0.0853
15505W        W30974   4.158   1.909  12.632 -0.0771  0.2283  0.1736
15506W        W30975  12.194  14.428   4.220 -0.1703  0.1116 -0.1284
15507W        W30976  14.087   2.336   0.221 -0.0910  0.0865 -0.0911
15508W        W30977  17.089   2.510  13.104  0.3971  0.1783  0.0819
15509W        W30978   9.167  17.188   1.674 -0.2601 -0.2323  0.2151
15510W        W30979  11.975  14.347  10.898  0.1606 -0.1908  0.1815
15511W        W30980  10.943  16.320   3.092 -0.0457  0.1186 -0.0020
15512W        W30981   8.606   2.337  15.000  0.0663 -0.0923 -0.2073
15513W        W30982   9.554  15.702  11.800 -0.3213  0.3063  0.2449
15514W        W30983  16.684   3.773   3.700 -0.0395 -0.1419 -0.1153
15515W        W30984   1.796  14.890   2.387 -0.3021  0.2800 -0.0798
15516W        W30985   7.094   4.135  10.121 -0.2428 -0.1577  0.1991
15517W        W30986  11.756   4.532  10.132  0.3696 -0.0130 -0.1648
15518W        W30987  17.219  10.458  14.358 -0.1112  0.3239  0.0211
15519W        W30988   3.384  17.738  13.692 -0.1182 -0.3275 -0.0145
15520W        W30989   8.110   5.396   4.706 -0.0053  0.0275 -0.2454
15521W        W30990   4.062   0.662  13.105  0.0908 -0.0600  0.0836
15522W        W30991  15.931  13.090   2.006 -0.3365  0.0967  0.1450
15523W        W30992   5.593   4.742  11.758 -0.0726  0.0322  0.2651
15524W        W30993  16.568  14.510   2.626  0.0438  0.3070  0.1618
15525W        W30994  12.874   5.275  13.457  0.0261  0.1627 -0.0327
15526W        W30995   9.611   3.697  13.852  0.3456  0.1749 -0.0874
15527W        W30996  11.578  12.350   1.893 -0.4729  0.2329 -0.2761
15528W        W30997   6.393  16.309   5.363 -0.0725 -0.1336 -0.1980
15529W        W30998   9.462  12.788   4.619 -0.3350 -0.1749  0.0861
15530W        W30999   1.777   1.202  13.982  0.1591  0.0127  0.0100
15531W        W31000   2.324   8.564  14.931 -0.0976 -0.1716  0.2844
15532W        W31001   0.325  15.349  12.574  0.0165  0.0714  0.1071
15533W        W31002   9.908   0.231  10.052  0.2278  0.2104 -0.2262
15534W        W31003   9.661   3.679   2.780 -0.2112 -0.0761  0.2772
15535W        W31004   7.601  13.566  15.375 -0.1429  0.0081  0.0969
15536W        W31005  16.208  15.875   0.900 -0.0640 -0.1632  0.0469
15537W        W31006  16.511  15.364  14.935  0.2983 -0.0552 -0.1614
15538W        W31007  14.276   9.192  15.538 -0.1433  0.1542  0.0823
15539W        W31008  13.621  10.551   4.346 -0.1323 -0.1599  0.0454
15540W        W31009   0.789  11.253  14.777  0.0327 -0.0179 -0.0948
15541W        W31010   1.888   3.454   3.402  0.0700 -0.0401 -0.5394
15542W        W31011   4.629   3.201   2.999  0.3322 -0.1469 -0.0235
15543W        W31012  14.461   9.187   5.339 -0.1863  0.0802  0.3725
15544W        W31013  13.173  12.032   4.722 -0.1107  0.0381  0.1045
15545W        W31014  10.770  14.170  15.702  0.0012 -0.1830  0.0586
15546W        W31015  14.323   6.221  13.736 -0.1711 -0.1406  0.0531
15547W        W31016   5.651   8.335  11.683  0.2282  0.0248  0.1206
15548W        W31017   6.049   3.296  14.320 -0.1563 -0.1692  0.0082
15549W        W31018   2.955  12.282  15.961  0.0521  0.1166 -0.0468
15550W        W31019  17.550   5.673  13.846  0.1737 -0.0370 -0.1581
15551W        W31020  11.394  12.065  16.050 -0.2464 -0.1029  0.1382
15552W        W31021  12.793  10.803   4.812 -0.1133 -0.0282 -0.1061
15553W        W31022   1.323  16.381   0.362  0.1847 -0.3564 -0.0789
15554W        W31023  15.464  11.535   3.419  0.1159 -0.2455 -0.1414
15555W        W31024  16.076  10.578  12.675  0.1598 -0.1515  0.0133
15556W        W31025  14.716   6.282  12.897  0.1940  0.2139  0.5210
15557W        W31026  17.437  16.632   1.833  0.1635 -0.1334  0.0204
15558W        W31027   8.707   8.997  12.402 -0.2577 -0.1094  0.0246
15559W        W31028   9.831  13.356   4.042 -0.2775 -0.2325  0.5185
15560W        W31029   5.617  15.215  11.822  0.1994 -0.2891  0.2166
15561W        W31030   0.080   4.320  13.870 -0.2851 -0.1041 -0.0217
15562W        W31031  10.126   8.326   1.085 -0.0931 -0.2079 -0.3043
15563W        W31032  16.685   5.679  13.922  0.0652  0.0340  0.1396
15564W        W31033   0.438   4.910   4.326  0.1168  0.0703 -0.1155
15565W        W31034  16.329  12.501   1.649 -0.3670 -0.3487 -0.0804
15566W        W31035   9.280   6.975  14.831 -0.0355 -0.2329  0.0560
15567W        W31036  15.057   8.841   2.049 -0.1180 -0.0094 -0.0945
15568W        W31037   1.175  17.929  12.571  0.0619 -0.0978 -0.0475
15569W        W31038  17.656   8.739   4.343 -0.0624 -0.1681  0.0090
15570W        W31039  14.047   4.457  13.699 -0.2856  0.0770  0.0540
15571W        W31040  18.023  12.087  13.720  0.2742  0.0521  0.0418
15572W        W31041   5.285  12.166  11.652 -0.1327  0.2702 -0.1302
15573W        W31042   2.921   1.811   3.771 -0.0905 -0.2677  0.0059
15574W        W31043   2.977  13.659   4.838  0.1892 -0.1883  0.1377
15575W        W31044   5.001   9.156  13.586  0.1424  0.0037  0.2468
15576W        W31045  15.930  12.435  13.222  0.0724  0.1899 -0.0703
15577W        W31046   5.696   3.688   3.455  0.3972 -0.1331  0.0182
15578W        W31047  15.955  10.889   3.097 -0.0124 -0.0052 -0.1201
15579W        W31048  13.109  10.215   0.481 -0.0540 -0.2663  0.0696
15580W        W31049  17.282   9.908   5.195 -0.1024 -0.3080 -0.0540
15581W        W31050   1.207   2.014   1.476  0.0469  0.2510  0.2968
15582W        W31051  14.471  15.248   1.581  0.1142 -0.2811 -0.1583
15583W        W31052   6.134   8.389  13.640  0.2831  0.0855 -0.3514
15584W        W31053   8.648  11.704  11.121  0.1990 -0.0887  0.0418
15585W        W31054   1.129   2.477   5.550 -0.0078 -0.1598  0.1585
15586W        W31055   6.402   2.470  13.537  0.0616 -0.0017 -0.1335
15587W        W31056  11.696  17.275  12.916  0.1083 -0.1246  0.0551
15588W        W31057  17.738   8.728   5.184  0.1003  0.2036  0.0858
15589W        W31058   3.900  15.572  15.224  0.1377 -0.0262 -0.0752
15590W        W31059  11.268   0.363  14.580 -0.2831  0.1799 -0.2116
15591W        W31060   2.938  11.606  15.359  0.1220 -0.0082  0.2776
15592W        W31061   9.345  15.178  15.715 -0.1291  0.1239 -0.1283
15593W        W31062   2.294  11.766   1.598 -0.1773  0.2676  0.1993
15594W        W31063   5.466   9.727   0.665  0.2326  0.1007 -0.1817
15595W        W31064  11.622   6.300  15.472 -0.3573 -0.2384  0.0032
15596W        W31065   1.694  13.059  12.217 -0.1207 -0.1808  0.0319
15597W        W31066  10.435   0.470   3.444  0.2302 -0.0823  0.0015
15598W        W31067  17.245  16.357  14.657 -0.2757 -0.3517 -0.0630
15599W        W31068  12.180  12.834  10.122  0.1014 -0.0360  0.1911
15600W        W31069   4.924   3.401   5.432  0.1431 -0.0061 -0.1942
15601W        W31070  16.732  17.265  14.305 -0.2049  0.0951  0.0301
15602W        W31071  16.878  16.739   3.224  0.0084 -0.0960  0.0499
15603W        W31072   3.253  13.575  15.510 -0.2485  0.1205  0.1083
15604W        W31073   1.691   8.415   1.448 -0.1839  0.1777  0.3273
15605W        W31074  10.856   5.227  11.155 -0.0783 -0.2996  0.0502
15606W        W31075   5.808   4.374  11.980  0.1514  0.3812  0.1393
15607W        W31076   2.387   2.224   4.561  0.0236  0.3332 -0.1629
15608W        W31077   1.566  11.370   4.090  0.0825 -0.0052 -0.1996
15609W        W31078  11.835  16.604  12.888 -0.0409  0.2860 -0.1001
15610W        W31079   9.986  16.281  10.411 -0.0539  0.3166 -0.2877
15611W        W31080  14.797   0.178  12.092 -0.0094  0.0248 -0.2597
15612W        W31081  12.328  13.551   2.790  0.1993 -0.1463  0.2335
15613W        W31082  11.375   2.086   0.969 -0.0995  0.0064  0.0410
15614W        W31083  17.698  10.929   2.462  0.0162 -0.2294  0.0401
15615W        W31084  16.574   7.930   3.626 -0.0145 -0.2488 -0.0507
15616W        W31085   7.761  10.555  14.655 -0.0325  0.3013 -0.3299
15617W        W31086   5.269   2.448   4.515 -0.1215  0.4160  0.2419
15618W        W31087   8.008  13.839  11.452 -0.1652 -0.4153  0.1341
15619W        W31088   1.763  13.888  11.716  0.0892  0.4236  0.1678
15620W        W31089  17.121   2.278  10.212 -0.0091  0.0047 -0.3273
15621W        W31090  17.877   1.145   0.945  0.4253 -0.0582 -0.2727
15622W        W31091  13.914  17.364  14.396 -0.1025 -0.2495 -0.2094
15623W        W31092   7.746   4.720  15.654  0.2624  0.0791 -0.1331
15624W        W31093   3.971   3.447   0.823 -0.1458 -0.0277 -0.1803
15625W        W31094  15.071   1.192   2.617  0.0052 -0.2273  0.0773
15626W        W31095  12.091   7.376   1.964 -0.0036  0.0183  0.0182
15627W        W31096   8.223  11.915  10.940  0.1099 -0.4379  0.0397
15628W        W31097  12.436  15.244  15.638  0.1006 -0.2060  0.1241
15629W        W31098  10.096  17.706   5.232 -0.0353 -0.0851  0.0448
15630W        W31099   8.902   3.909  11.918 -0.0234 -0.3784  0.1335
15631W        W31100  10.253  12.304  14.086  0.1088 -0.1061  0.3012
15632W        W31101   7.886   4.892  12.246 -0.1564 -0.1840 -0.1080
15633W        W31102  11.656  14.422  13.715  0.0636 -0.1239  0.0499
15634W        W31103   8.322   8.081  12.471  0.1776  0.3402 -0.0388
15635W        W31104  17.457   4.715   0.589  0.0525  0.3068 -0.0066
15636W        W31105   1.757  15.221   5.104 -0.0849  0.0586 -0.0899
15637W        W31106  16.794   9.201   5.449  0.0665 -0.0417  0.0517
15638W        W31107   7.491   1.229  14.765  0.3054  0.0124  0.2224
15639W        W31108  13.623  17.085   3.316  0.0042  0.0344  0.3835
15640W        W31109   2.619  10.623   0.978  0.1582  0.3074  0.0357
15641W        W31110  12.204  12.561   6.038  0.0457 -0.4019 -0.1349
15642W        W31111  16.890   7.577  13.815 -0.1841 -0.0100  0.2582
15643W        W31112   3.081   8.279  11.869  0.0147 -0.0911  0.0791
15644W        W31113   4.965  13.314  12.122  0.0086 -0.2993 -0.3220
15645W        W31114   8.866   5.030  10.381  0.0990 -0.1118 -0.1117
15646W        W31115   5.958  14.666   0.674 -0.2544 -0.0094 -0.2941
15647W        W31116   1.166   5.895   1.169 -0.4254  0.0208 -0.0218
15648W        W31117   8.193  17.085   4.637 -0.3390 -0.1918 -0.1064
15649W        W31118   3.430  10.863   1.541  0.0095  0.3995  0.0183
15650W        W31119   3.338   8.786  15.226  0.0758 -0.0628 -0.0801
15651W        W31120   8.803   1.226   4.031 -0.3308  0.0577  0.2703
15652W        W31121  16.886   8.391  13.373 -0.0972 -0.0180 -0.2525
15653W        W31122   5.154   1.434   4.974 -0.0152  0.2765  0.0976
15654W        W31123   1.481   5.673   3.359 -0.0006  0.1884  0.1027
15655W        W31124   8.904  11.170   4.514  0.0730  0.2453 -0.1661
15656W        W31125  13.961  15.724  14.373  0.2108  0.4600 -0.0255
15657W        W31126   6.810  11.918  15.381 -0.1221  0.0940  0.2354
15658W        W31127  12.820   0.659  12.101  0.0141 -0.0704  0.0521
15659W        W31128   2.842  18.125  14.249  0.1943 -0.0208  0.0037
15660W        W31129   2.471  12.146   1.271  0.3167 -0.1115  0.3170
15661W        W31130  12.929   7.024   4.542  0.1112 -0.0171  0.0135
15662W        W31131   5.434  16.701  11.567 -0.0089  0.1137  0.0564
15663W        W31132   3.465   4.495  11.108 -0.0879  0.0908 -0.0125
15664W        W31133   1.461  11.082  14.523 -0.1523  0.0164 -0.2982
15665W        W31134  12.306   7.644  13.714 -0.0560 -0.1472 -0.0044
15666W        W31135  17.357   7.665   4.510  0.1169  0.1701  0.0788
15667W        W31136  17.574  10.684   4.397  0.3325 -0.1041  0.0666
15668W        W31137  15.190  16.672  14.931  0.1002  0.2291  0.2741
15669W        W31138  14.985   9.287  11.364 -0.1034  0.1235 -0.1030
15670W        W31139   2.420   2.896   5.200 -0.0938  0.0276 -0.2855
15671W        W31140   5.281  12.823  12.959 -0.0263 -0.2995 -0.1167
15672W        W31141   5.377  11.030  14.490  0.2147  0.1276  0.0298
15673W        W31142   2.672  13.001   6.160  0.3174 -0.2005 -0.0935
15674W        W31143  14.178   4.705   5.991  0.1261  0.0422 -0.1324
15675W        W31144  13.912  17.871   2.813 -0.1134 -0.0065 -0.0894
15676W        W31145  12.885   6.689  13.046 -0.2264  0.1374 -0.3271
15677W        W31146   6.145  11.698  12.968  0.0372  0.4140  0.3458
15678W        W31147  11.248  16.630  15.137  0.0142 -0.0745  0.1692
15679W        W31148  14.297  17.106   3.296  0.1099 -0.0643  0.0521
15680W        W31149  12.551   1.984   1.721  0.0469 -0.1355  0.2952
15681W        W31150  15.851  15.982  12.840 -0.0189  0.0374 -0.0367
15682W        W31151   0.689  14.764  13.610 -0.1550  0.3693  0.0429
15683W        W31152   9.245   4.960   2.250 -0.2539 -0.1714 -0.1672
15684W        W31153  13.286  14.569  14.050 -0.2168 -0.2886  0.1106
15685W        W31154  12.672   2.126  11.007  0.0963 -0.0266  0.0557
15686W        W31155   0.796  10.471  14.892  0.3281  0.0510 -0.3215
15687W        W31156  12.077   8.400  10.298  0.1750  0.3303 -0.1297
15688W        W31157  17.623   1.572   0.765  0.0206  0.0871 -0.1493
15689W        W31158  14.523  13.450   5.369  0.2113  0.1300 -0.0627
15690W        W31159  12.414  17.864   6.232  0.0298 -0.0388  0.0249
15691W        W31160   7.621   6.097  11.717  0.0442 -0.1389  0.0971
15692W        W31161   7.927  13.426   1.577 -0.1318  0.3503 -0.0308
15693W        W31162   3.039   1.955  16.078  0.0501  0.1832  0.3187
15694W        W31163   4.635   8.789   5.371  0.0340  0.4061  0.0607
15695W        W31164   6.721  16.342  15.675  0.0666  0.1268 -0.0611
15696W        W31165   7.891   1.766   0.222 -0.1065  0.2235  0.1739
15697W        W31166  18.108   4.901  15.076 -0.0693 -0.1942 -0.2577
15698W        W31167   8.006   0.438  15.773  0.2107  0.0650 -0.0176
15699W        W31168  15.357   9.937  14.172 -0.0124  0.1717  0.1287
15700W        W31169   1.945   7.259  13.400 -0.0815  0.0217  0.0874
15701W        W31170   4.410  17.526   2.485  0.1617  0.0501  0.0501
15702W        W31171  10.327  14.606   2.422 -0.0546  0.0675  0.0226
15703W        W31172   9.326  10.688  15.631 -0.1219 -0.1832 -0.0083
15704W        W31173   7.170   9.424  12.363 -0.2084 -0.2570 -0.1708
15705W        W31174   0.946   4.390  13.680 -0.1758  0.0502 -0.0737
15706W        W31175  14.284  18.002  13.764 -0.2293  0.0374 -0.1817
15707W        W31176   7.535   2.096   4.987  0.0339  0.1603 -0.0028
15708W        W31177  16.978   8.113  11.738  0.0196 -0.2777 -0.0856
15709W        W31178  16.085  13.190   0.478 -0.0315  0.4220  0.4980
15710W        W31179   7.325  15.469  15.811 -0.1432  0.4777  0.1165
15711W        W31180  12.554   0.248  12.260  0.2097  0.1016 -0.0147
15712W        W31181   2.980   9.097   0.440  0.1193 -0.2170 -0.0577
15713W        W31182   1.453  17.048   1.441 -0.4401  0.0709 -0.1183
15714W        W31183   3.504  10.546   4.545 -0.0359 -0.1326 -0.0126
15715W        W31184   9.761   5.474  11.385 -0.4517  0.1374  0.0240
15716W        W31185   5.705   8.367  15.869  0.3173  0.1008 -0.2043
15717W        W31186   6.049  16.336   4.400  0.0539 -0.0165  0.0131
15718W        W31187  11.655  16.871   4.585  0.1956  0.1116  0.1981
15719W        W31188  15.006   8.317   6.191 -0.2443 -0.0265  0.2581
15720W        W31189   0.688  17.459  15.448 -0.0745 -0.0525  0.1787
15721W        W31190  16.300  11.036  12.455 -0.1964 -0.3340 -0.1351
15722W        W31191  12.493  17.161  14.375 -0.3206  0.1539 -0.1845
15723W        W31192   7.187  11.823   3.362  0.0653  0.1166 -0.2863
15724W        W31193   3.714   0.519  14.537  0.1093  0.0367  0.1245
15725W        W31194  13.818  17.738   0.009 -0.1479  0.0437 -0.1608
15726W        W31195   9.725   4.978   1.990  0.0734  0.0332  0.1021
15727W        W31196  18.015  13.755   5.231  0.1507  0.1370 -0.0343
15728W        W31197  17.504   3.958   1.858 -0.1343 -0.1795  0.0376
15729W        W31198   8.019   4.989   4.284 -0.2197 -0.2027 -0.2505
15730W        W31199   7.741   2.770  11.664  0.0785  0.0472 -0.1468
15731W        W31200  17.592  16.651   5.240 -0.2045 -0.2220  0.0752
15732W        W31201   2.413  10.133   2.356  0.1451 -0.3281 -0.0299
15733W        W31202   9.902  13.611   2.821  0.0662  0.2499 -0.1096
15734W        W31203   1.258  16.518  15.641  0.0233  0.1243  0.2536
15735W        W31204   1.052   9.460  11.524 -0.0184  0.1552  0.1176
15736W        W31205  16.787   9.579   0.495 -0.1463 -0.2496  0.4087
15737W        W31206  11.791  14.183   4.437  0.2558  0.3837  0.1923
15738W        W31207  16.942  11.240   0.756  0.1432  0.2787  0.0391
15739W        W31208  10.971   3.740  13.764  0.2954  0.2539  0.0895
15740W        W31209  11.205  15.401  11.596 -0.0000  0.0391 -0.2191
15741W        W31210  17.639   0.371   1.587  0.0027  0.0795  0.1174
15742W        W31211   2.716  16.805   6.734  0.0714  0.2562  0.1035
15743W        W31212   1.879  14.060   6.061  0.3292 -0.1268  0.2182
15744W        W31213   6.846  10.508   0.843 -0.1676 -0.0862  0.1319
15745W        W31214   5.025  15.902  11.371  0.0235  0.3913 -0.0138
15746W        W31215  13.810   4.994   4.140 -0.0477  0.2633 -0.0354
15747W        W31216  13.873  10.084  14.485 -0.2753 -0.0981  0.2727
15748W        W31217   7.819  18.037   0.113 -0.1273 -0.0866  0.1442
15749W        W31218   5.551  15.457   1.241 -0.0323  0.0237 -0.1274
15750W        W31219  13.308   7.582  15.420 -0.0046  0.0986  0.1012
15751W        W31220   5.325   9.397   9.469 -0.0726  0.0444 -0.1656
15752W        W31221   4.613   7.641   4.807  0.0182 -0.0493  0.0545
15753W        W31222   1.558   2.075  11.859 -0.1666 -0.2876  0.0716
15754W        W31223  16.650   2.041  13.078 -0.0886  0.1443  0.1835
15755W        W31224   4.319  10.362  13.976 -0.1167 -0.1862 -0.0415
15756W        W31225  13.917  12.115   5.189  0.0893  0.3097 -0.2732
15757W        W31226  12.040  15.149   1.953  0.1562  0.2297  0.0832
15758W        W31227  13.210  13.060   1.427  0.0169 -0.1166  0.1159
15759W        W31228   9.342  12.644   0.856  0.1967 -0.0714 -0.0312
15760W        W31229   7.005   4.044  10.995 -0.0550  0.3049  0.0254
15761W        W31230   1.904   0.968  11.486  0.2349 -0.1594 -0.0112
15762W        W31231   3.684   6.341  15.233  0.0241 -0.1471 -0.3073
15763W        W31232   0.751  11.224  10.926  0.0616 -0.0631  0.3010
15764W        W31233   0.920  13.997   3.850 -0.1190 -0.0415  0.0865
15765W        W31234   8.590  13.342   3.192  0.2720 -0.0812 -0.2514
15766W        W31235  17.477   8.516   5.844  0.1177 -0.0811  0.0137
15767W        W31236   9.363   9.987   0.216 -0.0942  0.2044 -0.3065
15768W        W31237  17.061   3.002  11.006 -0.1645 -0.1903  0.1461
15769W        W31238  13.680   5.216   3.578  0.0756  0.3046  0.3138
15770W        W31239  17.536   6.027  13.118  0.0917  0.0484  0.0252
15771W        W31240   6.066   1.404   1.041 -0.0410 -0.1908 -0.1316
15772W        W31241   1.073   5.903   0.641 -0.2279 -0.1557  0.3628
15773W        W31242   8.666  12.206   0.537 -0.0629  0.0007 -0.1153
15774W        W31243  14.571  13.372  11.105  0.4185 -0.0577 -0.1080
15775W        W31244   2.577  14.787   1.781  0.1214  0.0871  0.0668
15776W        W31245   1.444   1.012   5.233 -0.0761 -0.1741 -0.3000
15777W        W31246  10.783  12.259   1.765  0.0711 -0.0493 -0.0003
15778W        W31247   9.560   3.113   2.695  0.0319  0.0170  0.0262
15779W        W31248   6.659   3.562   3.221 -0.1888 -0.2268  0.4236
15780W        W31249  17.859   5.732   4.963 -0.0540  0.0449 -0.2499
15781W        W31250  11.153   2.514  12.143 -0.1155 -0.0737  0.2399
15782W        W31251  17.056   3.395   2.875  0.0904  0.0843 -0.0683
15783W        W31252   7.018   2.394  15.509 -0.4339  0.2689  0.0013
15784W        W31253   3.881   2.395  12.755 -0.0689 -0.2587 -0.1419
15785W        W31254   6.417   0.956   3.309  0.3145 -0.1660  0.1126
15786W        W31255   1.850  12.197  15.105 -0.3040  0.1367  0.1391
15787W        W31256   8.458   5.970   1.621  0.0674 -0.3258  0.0291
15788W        W31257   5.222   9.030  12.376 -0.0061  0.0270  0.1848
15789W        W31258  11.922   0.847   1.589 -0.0289  0.1123  0.0132
15790W        W31259   7.146   8.557  16.081  0.1183 -0.2009  0.1470
15791W        W31260  13.070   6.974   2.001  0.0265  0.0546  0.0870
15792W        W31261  13.399   0.708  13.969  0.0652  0.0393  0.0071
15793W        W31262   8.132  11.393  11.799  0.1359 -0.0172 -0.0281
15794W        W31263   3.608   6.331   3.989 -0.0364  0.0354  0.0612
15795W        W31264  17.012  17.137  12.203  0.1478  0.2743 -0.2618
15796W        W31265  14.969   0.234  14.872  0.0925  0.1440 -0.3048
15797W        W31266  13.341  16.743   5.347  0.1307 -0.0139  0.0780
15798W        W31267   0.790  14.284  13.415  0.0927  0.1882  0.0358
15799W        W31268   6.570   7.112   1.888  0.0977  0.1279  0.1140
15800W        W31269   6.216   2.284  15.005 -0.1279  0.0300 -0.0286
15801W        W31270   8.080  11.550  15.689 -0.0150  0.0208  0.2381
15802W        W31271  16.258   9.600  11.885 -0.0308  0.0704 -0.1620
15803W        W31272  17.086  12.131   1.311 -0.0235  0.2620  0.0720
15804W        W31273  11.996   1.220  14.164  0.0358 -0.1769  0.2138
15805W        W31274   5.541   9.672  15.851  0.1173  0.0463 -0.0768
15806W        W31275   4.841  17.147   1.287 -0.0153  0.3948 -0.1200
15807W        W31276   8.595   8.700  14.284  0.0311  0.0078  0.3110
15808W        W31277  12.882  16.160   0.398  0.1339 -0.0048 -0.1158
15809W        W31278   9.354   4.129  12.529  0.0910  0.0025  0.2075
15810W        W31279  18.272   3.487   3.720  0.0954  0.1127  0.1460
15811W        W31280  11.202   1.348   4.358 -0.1646 -0.0290  0.2080
15812W        W31281   8.412  15.570   3.249  0.0334 -0.1836 -0.0867
15813W        W31282  10.120   9.745   4.791  0.0801 -0.1780 -0.3725
15814W        W31283  13.736   8.301  14.794  0.3412  0.1072 -0.0371
15815W        W31284   4.511  12.581   5.736 -0.1837 -0.1251 -0.0915
15816W        W31285   5.268  10.291   2.170 -0.0998  0.2516 -0.0208
15817W        W31286   5.894   0.499  14.524 -0.0235 -0.4790  0.0180
15818W        W31287   8.364  10.688   2.275 -0.1695 -0.2953  0.3127
15819W        W31288   0.728   5.535   0.309  0.3029 -0.1865 -0.2161
15820W        W31289  16.075  14.427  15.128  0.2097 -0.0034  0.2292
15821W        W31290  12.989   4.847   0.307 -0.3111 -0.0186 -0.2474
15822W        W31291  16.507   8.016  15.545 -0.0900  0.2593 -0.2166
15823W        W31292   8.911  12.633  13.004  0.2821 -0.0357 -0.4497
15824W        W31293   7.791  15.601  11.763 -0.3351  0.0558 -0.0170
15825W        W31294   7.442  13.348   1.851 -0.0481  0.2869 -0.0026
15826W        W31295   6.285  17.985   1.891 -0.0287  0.0632  0.1209
15827W        W31296  10.813   2.911   0.385  0.1357 -0.0470 -0.3542
15828W        W31297   9.712   8.898  15.003 -0.1282 -0.1198  0.4347
15829W        W31298  15.908   9.094  10.682 -0.1655  0.0099  0.0690
15830W        W31299   0.059   1.674   0.169  0.0154 -0.4359  0.2279
15831W        W31300  10.574   5.673   5.791  0.1656 -0.1875 -0.1424
15832W        W31301   4.515   1.617   5.188 -0.0889  0.0477  0.0365
15833W        W31302  11.253   3.338   4.625 -0.1870 -0.3061  0.4569
15834W        W31303   5.964   4.295   1.316 -0.2124 -0.0817  0.2551
15835W        W31304   0.250  16.428   2.241 -0.0279 -0.2147  0.3484
15836W        W31305   3.888  10.547   1.446 -0.1139 -0.0014  0.0207
15837W        W31306   0.312   2.648  11.417 -0.2577 -0.0247 -0.0612
15838W        W31307   6.678  11.525   5.427 -0.1993  0.2300 -0.0945
15839W        W31308  10.214  16.258   4.824  0.0511  0.2452  0.2253
15840W        W31309   4.306  15.046   5.449 -0.3906 -0.0355  0.0690
15841W        W31310   8.092   1.293   6.016  0.0716 -0.0932  0.2597
15842W        W31311  15.219   3.345  10.735 -0.2002  0.1652  0.0489
15843W        W31312   3.478   7.045  11.555 -0.1375 -0.0788 -0.2076
15844W        W31313   2.588   8.930  11.313 -0.2099  0.0688  0.3054
15845W        W31314  14.142   5.326   1.280 -0.4714  0.0362 -0.0585
15846W        W31315  13.748   7.452  14.414 -0.0508 -0.1368 -0.0658
15847W        W31316  17.278   8.396  13.080 -0.0240  0.2737 -0.1840
15848W        W31317  13.103  10.921   5.365  0.2326 -0.2731 -0.0609
15849W        W31318  16.616  10.453  10.449  0.2198 -0.0907  0.3680
15850W        W31319   1.230  10.623   1.370 -0.0611 -0.2288  0.0571
15851W        W31320  17.769  13.466  15.209  0.1118 -0.0182 -0.1033
15852W        W31321  16.756  14.882  11.847 -0.1213 -0.2493 -0.0624
15853W        W31322   2.731  16.483   4.476 -0.0373  0.0829  0.1643
15854W        W31323   0.316  17.620   4.127 -0.0326 -0.2747 -0.0596
15855W        W31324  13.289  12.012  15.331  0.0883 -0.0549 -0.1791
15856W        W31325  13.349  12.548  12.273  0.0140 -0.0020 -0.0019
15857W        W31326   5.790   8.902  13.208  0.2434 -0.1591 -0.0475
15858W        W31327   5.706   3.904   4.283 -0.1572 -0.1605 -0.2971
15859W        W31328   4.960   2.175   2.511 -0.0608 -0.0060 -0.2966
15860W        W31329  15.797  17.804   3.881  0.1985 -0.2408 -0.1076
15861W        W31330   0.234  15.436  13.841  0.2219  0.1347 -0.2383
15862W        W31331   3.497  10.375   1.762  0.1216 -0.0776  0.0749
15863W        W31332  11.285   5.505   0.569 -0.1094  0.1771  0.0187
15864W        W31333   0.992  12.244   2.000  0.0932 -0.1526 -0.0809
15865W        W31334   5.503   4.486   2.749 -0.1417  0.3171 -0.1263
15866W        W31335   2.067  11.734   2.566  0.1010 -0.0833  0.0288
15867W        W31336   9.142   6.837  15.750  0.1650 -0.1662  0.2442
15868W        W31337   7.226  13.124  13.091 -0.1309  0.0418 -0.2348
15869W        W31338   2.717  15.004  13.249 -0.3642 -0.0199 -0.0710
15870W        W31339   7.554  13.742   2.125  0.2591  0.0351 -0.4627
15871W        W31340   8.156   9.753  15.380 -0.0919  0.0627  0.0669
15872W        W31341   8.316   8.493   2.417 -0.2298 -0.1164 -0.2398
15873W        W31342   1.266   0.872   0.763 -0.1274  0.0506  0.0028
15874W        W31343   3.064   6.746  10.962 -0.1738  0.0990 -0.1721
15875W        W31344   9.706   3.744   3.864 -0.0438 -0.0031 -0.1771
15876W        W31345  17.030   1.503   0.856 -0.1215  0.2137 -0.0524
15877W        W31346   0.959   0.783   6.252  0.1020 -0.2088  0.0423
15878W        W31347  17.183  17.025   0.009 -0.2582  0.0765 -0.1457
15879W        W31348   3.553  14.441   4.575 -0.1297 -0.2640 -0.0042
15880W        W31349  13.645   0.277  14.901  0.1711  0.0460  0.3677
15881W        W31350  13.286  16.114  11.737  0.0178 -0.0511  0.1758
15882W        W31351   7.474  11.553  15.868  0.1587  0.0466 -0.4073
15883W        W31352  10.988   4.864   1.054 -0.0222  0.2369  0.1491
15884W        W31353  12.637   0.094  14.021  0.1495  0.1929 -0.3120
15885W        W31354  17.919  18.118  11.686 -0.1698 -0.0118 -0.2384
15886W        W31355   6.658  15.020   2.504 -0.0820 -0.4266  0.3192
15887W        W31356  14.587  10.588   2.479  0.0575 -0.0609  0.0867
15888W        W31357   0.958   7.297   0.696  0.3097  0.0602  0.0217
15889W        W31358   7.717   6.842  14.973 -0.0015 -0.1423 -0.1929
15890W        W31359  11.586  16.187  13.006  0.1444 -0.1865  0.2793
15891W        W31360  10.523  11.426   1.307 -0.1583 -0.1361  0.3177
15892W        W31361  16.619   5.065  13.713 -0.1142  0.0122 -0.1931
15893W        W31362  15.808   2.233  10.970 -0.0124 -0.0063  0.1370
15894W        W31363  15.022   4.402  10.819  0.4668 -0.0013 -0.0612
15895W        W31364   4.258  17.933  14.117  0.1928  0.0425 -0.0171
15896W        W31365   2.097  10.530   4.988 -0.0895 -0.0432  0.0727
15897W        W31366  15.849   5.821  11.338 -0.0691 -0.0920  0.1049
15898W        W31367   4.928  11.775  11.591 -0.1029 -0.3238  0.2193
15899W        W31368  12.407   8.525  14.344  0.2214  0.2848  0.1430
15900W        W31369  17.889   3.793   4.836  0.0683 -0.2475  0.0083
15901W        W31370  16.782  14.228   1.053 -0.1122  0.0403  0.5118
15902W        W31371   1.437  10.644   2.954 -0.0587 -0.1022 -0.0662
15903W        W31372  12.362   6.177   5.836 -0.0138  0.0623  0.0410
15904W        W31373  14.097   7.909   5.287  0.0605  0.1720  0.1392
15905W        W31374  14.701   8.324   2.372  0.0623 -0.1355  0.0226
15906W        W31375  17.280   6.680  11.157 -0.1205  0.0900  0.2823
15907W        W31376   0.459  15.903  12.175 -0.1108  0.1700  0.1867
15908W        W31377  11.328   8.444  11.338 -0.0254 -0.0680 -0.2086
15909W        W31378   1.112  10.037  12.288  0.0176  0.0371 -0.2879
15910W        W31379  11.169   1.076  13.995 -0.2859 -0.2677 -0.2219
15911W        W31380  15.200   6.687   0.651 -0.0315  0.0760 -0.1372
15912W        W31381  18.287   0.894   3.615  0.1321 -0.0966 -0.0955
15913W        W31382  13.647   1.501  12.610 -0.1046 -0.0396  0.0311
15914W        W31383   3.552   2.218  13.681 -0.0442  0.0328  0.0492
15915W        W31384   0.528   0.333   2.691 -0.0671 -0.0993 -0.1384
15916W        W31385   7.777  14.671   1.059 -0.2885  0.1043  0.0092
15917W        W31386  15.834   5.663   0.708  0.1827 -0.0753 -0.1356
15918W        W31387  17.218  11.184   0.171  0.0314  0.1589  0.0817
15919W        W31388   5.030   4.040  13.640 -0.1364  0.2790 -0.0094
15920W        W31389   5.411  16.068  15.175  0.0681  0.1082  0.1293
15921W        W31390  10.915   8.961  12.527  0.0836  0.0363  0.0269
15922W        W31391  17.833   6.038   5.457  0.2001  0.0829  0.0374
15923W        W31392   0.065   3.783  11.330 -0.2689  0.1533 -0.2138
15924W        W31393  15.875  14.109  13.340  0.2384  0.0472  0.2282
15925W        W31394   9.324  15.996  15.340 -0.1601 -0.1576  0.0833
15926W        W31395   0.448   7.634   3.192  0.1197 -0.1347 -0.0039
15927W        W31396  14.474   7.475   0.915 -0.0813 -0.0151 -0.0779
15928W        W31397   6.238  15.817   2.804  0.3607  0.0406 -0.1899
15929W        W31398   3.270  15.708  15.951 -0.0321  0.1992  0.0885
15930W        W31399   6.459   7.441   2.332 -0.5190 -0.2578  0.0888
15931W        W31400  15.610  11.431   1.399 -0.2302  0.2653  0.0248
15932W        W31401   0.773  17.829  10.753  0.0933  0.1144 -0.0309
15933W        W31402   0.839  15.008  13.208  0.0299 -0.0608 -0.2823
15934W        W31403  12.884   6.344  15.691 -0.3070 -0.1381 -0.0921
15935W        W31404   6.597   5.868  14.668  0.3316  0.0516 -0.3064
15936W        W31405  13.033  16.673   3.996  0.2549  0.0190 -0.5249
15937W        W31406   1.513  14.889  12.507 -0.0696  0.0858  0.2742
15938W        W31407   7.545   7.239  14.075  0.0964 -0.1689 -0.2403
15939W        W31408  10.088   2.459  14.412  0.0433 -0.1715  0.1465
15940W        W31409   1.964  18.092   0.806  0.1397 -0.0003  0.1275
15941W        W31410  11.806  14.084  14.926 -0.0125 -0.0824 -0.1321
15942W        W31411   9.364  12.760  12.694  0.2340 -0.1142  0.5656
15943W        W31412  12.107   2.029  12.859  0.0035 -0.1615  0.0168
15944W        W31413  14.051   4.835   3.282 -0.2116 -0.2173  0.0188
15945W        W31414  12.152  17.633   5.821 -0.1127 -0.0108 -0.2650
15946W        W31415   5.654   0.869  15.791  0.0280 -0.0032 -0.3630
15947W        W31416   0.555  15.433   0.851  0.1369 -0.0283  0.1107
15948W        W31417  11.013  16.337  12.738 -0.2539 -0.0374 -0.2183
15949W        W31418   3.647   6.950   1.193  0.2027  0.4513  0.2057
15950W        W31419  14.350   7.458  12.551 -0.0733  0.0384 -0.1284
15951W        W31420  15.405  16.600   3.301  0.1456 -0.0725  0.3633
15952W        W31421   3.219  15.192  14.746  0.2308  0.3156 -0.0296
15953W        W31422   4.167  13.677  15.892 -0.0289  0.1146  0.0476
15954W        W31423  11.931   8.261   5.229  0.1316  0.0326 -0.0446
15955W        W31424   2.073  11.565  14.239 -0.2676 -0.0171  0.1606
15956W        W31425  10.345   2.998  13.912  0.0701  0.1011  0.0100
15957W        W31426   5.478   9.515   4.688  0.2251  0.0976  0.0178
15958W        W31427   1.659  10.145  14.627  0.1498  0.1262 -0.1425
15959W        W31428  16.511   0.579  13.533  0.0205 -0.0066  0.3882
15960W        W31429   3.105   3.681   5.300  0.1402 -0.2171 -0.2280
15961W        W31430  13.425   9.710   6.077  0.0076 -0.2335 -0.1056
15962W        W31431   6.993  11.397   0.030 -0.0586  0.3680 -0.1970
15963W        W31432   1.273   9.012  12.376  0.1225  0.1800  0.4249
15964W        W31433  15.596  17.295  13.008 -0.2097  0.1091 -0.1486
15965W        W31434   1.133   6.002   3.472 -0.1157 -0.0554 -0.0335
15966W        W31435  13.415  16.466   0.683 -0.0785  0.0039  0.2589
15967W        W31436   7.122   1.090   5.745 -0.0154  0.0617 -0.2129
15968W        W31437  13.804  10.009  13.720  0.2019  0.0366 -0.0871
15969W        W31438   5.727  17.871  11.832  0.1885 -0.2700 -0.0521
15970W        W31439   8.920   1.550   0.976 -0.0182 -0.0406 -0.0815
15971W        W31440  11.729   1.344   5.319  0.1197  0.2904 -0.0526
15972W        W31441   0.954   7.753   3.292  0.1217 -0.3955 -0.2876
15973W        W31442  17.874  17.126  11.668  0.0038 -0.1863  0.1773
15974W        W31443   5.904  17.785  13.719  0.0456  0.1179  0.3422
15975W        W31444  12.054   8.270   0.426  0.2297  0.0185  0.0938
15976W        W31445  10.321   1.673  11.593 -0.1591  0.2427 -0.3524
15977W        W31446  14.818  16.405  14.272  0.5001 -0.0029  0.3019
15978W        W31447  11.041   2.147   0.222 -0.0411 -0.3158  0.1536
15979W        W31448   3.544   6.467  13.713 -0.2427 -0.2265  0.0301
15980W        W31449   2.388   2.604  11.097 -0.1706  0.3908 -0.0948
15981W        W31450  11.357   7.152  14.321  0.1145 -0.1352  0.1723
15982W        W31451   9.576   0.077  13.859 -0.2300 -0.3911  0.0115
15983W        W31452   7.898  16.901  11.020  0.0391  0.2726  0.1213
15984W        W31453   4.091  11.459  11.047  0.0100 -0.2097 -0.0366
15985W        W31454   2.967  17.578  13.480  0.1178 -0.0718  0.0193
15986W        W31455   5.683   8.542  13.539  0.1648 -0.0299 -0.1029
15987W        W31456   5.485   7.310   1.163 -0.1713  0.1951 -0.1748
15988W        W31457  13.001   1.470  11.759  0.0174 -0.1330 -0.0399
15989W        W31458   6.196  14.812  10.665  0.1527  0.2013 -0.0702
15990W        W31459  16.800  17.809   0.593 -0.1535  0.1140  0.1831
15991W        W31460  14.752   3.065  10.582  0.0360 -0.0507 -0.2348
15992W        W31461   1.134   2.306  11.058  0.1322  0.2391 -0.4088
15993W        W31462   6.196  17.667   2.377  0.1901 -0.0660  0.0168
15994W        W31463  15.896   3.254   5.161 -0.0481  0.0742 -0.0637
15995W        W31464   4.852   4.469  12.342  0.0456  0.2693  0.0534
15996W        W31465   7.016  14.172   3.455 -0.0678 -0.1668 -0.0889
15997W        W31466  15.501  12.304   3.851  0.2702  0.0871  0.1921
15998W        W31467   5.464   2.351  12.970  0.1737 -0.0070  0.2659
15999W        W31468  17.682  16.650  11.730  0.4968  0.0792 -0.1584
16000W        W31469   9.740   2.997  12.964  0.4559 -0.1475 -0.2931
16001W        W31470   0.032   3.119  14.913  0.1589  0.2856 -0.0447
16002W        W31471   0.920   6.832   3.708 -0.5135  0.0110 -0.0212
16003W        W31472   1.281   8.548   0.578  0.1505 -0.2388 -0.2484
16004W        W31473  16.973  17.206   0.738 -0.3196 -0.2901 -0.1438
16005W        W31474   1.478   7.955   1.186  0.3350  0.1498  0.0057
16006W        W31475   1.636   0.597  11.832  0.1663  0.0153  0.1370
16007W        W31476  11.989   9.556   1.616 -0.2253  0.0312 -0.1808
16008W        W31477   9.869   5.693   2.753 -0.0021 -0.2408  0.1497
16009W        W31478  11.780  11.776  11.957 -0.1735  0.3861  0.2893
16010W        W31479  11.809   9.066   1.800  0.1446 -0.2381 -0.1784
16011W        W31480   5.255  17.129   0.431  0.1855 -0.0207 -0.1118
16012W        W31481  12.188  15.440   1.540  0.0236 -0.0482  0.0110
16013W        W31482   3.287  13.785   5.272  0.1868  0.0908  0.1338
16014W        W31483   4.706   8.214  13.092  0.3707 -0.0823  0.0638
16015W        W31484  12.945   7.846  15.037 -0.1981 -0.2607  0.2093
16016W        W31485  16.959   0.472   0.794 -0.0560  0.5233 -0.1407
16017W        W31486   5.166   8.440  11.755 -0.2103 -0.1163  0.0605
16018W        W31487  12.629   6.747  12.105 -0.0803  0.2324  0.0109
16019W        W31488   5.995  17.438  15.517 -0.2755 -0.0856  0.1971
16020W        W31489   6.044  10.761   0.359 -0.3085 -0.0381  0.0915
16021W        W31490   6.353  16.205  14.807 -0.0158 -0.0056 -0.1454
16022W        W31491   0.233   0.214  15.617 -0.1019  0.1018 -0.4783
16023W        W31492  15.914   1.064   5.938  0.1593 -0.0855 -0.0295
16024W        W31493   0.719  16.508  10.418  0.4983 -0.1140  0.0317
16025W        W31494   2.131  14.431  15.834 -0.2343  0.0613  0.2156
16026W        W31495   7.645  16.709  12.616  0.1096  0.0683 -0.0607
16027W        W31496  14.442   1.819   4.439  0.1742 -0.2733 -0.1917
16028W        W31497  16.867  13.359  12.041  0.0733  0.0163 -0.0373
16029W        W31498  16.111   8.619  13.920  0.1637 -0.0339  0.0348
16030W        W31499   8.895   7.434   2.151 -0.0573  0.1180  0.0229
16031W        W31500  17.703  17.705  13.283 -0.2359  0.0317  0.1756
16032W        W31501   7.789  15.350  11.342  0.2730  0.1368  0.2966
16033W        W31502   9.717   0.112  15.686 -0.0008 -0.0202 -0.0778
16034W        W31503  14.861   1.046   2.173  0.0587  0.1537 -0.1473
16035W        W31504   5.718  17.793   4.645  0.2951 -0.2573 -0.1237
16036W        W31505  14.152   3.716  13.879  0.4036  0.1106 -0.0262
16037W        W31506  17.389   9.355   0.946  0.3464 -0.2082  0.0734
16038W        W31507  16.589   1.356   4.879  0.0136 -0.0393 -0.3584
16039W        W31508   0.616  17.543   3.012  0.0638  0.0061  0.1087
16040W        W31509  16.690  12.797  15.644  0.1753  0.2187  0.2242
16041W        W31510   1.739   5.754   5.493  0.4357  0.2118 -0.2571
16042W        W31511   3.320   7.442  14.715 -0.0209 -0.1204  0.1062
16043W        W31512   0.805   7.066  12.920 -0.0501  0.0356 -0.1398
16044W        W31513  18.154   1.412   3.376 -0.0699  0.0618  0.0602
16045W        W31514   5.925   4.386   4.474  0.0370 -0.2355  0.1702
16046W        W31515  14.364   4.126  14.904  0.0750 -0.0433 -0.3304
16047W        W31516   3.945  10.764   0.172 -0.1290 -0.3147 -0.0253
16048W        W31517   9.011   8.710   1.676 -0.2111 -0.1790  0.2851
16049W        W31518   0.084  14.682   1.539  0.0644  0.0223 -0.1078
16050W        W31519  14.876   9.764   2.192  0.1138 -0.1665 -0.1982
16051W        W31520  15.744   2.393   3.958  0.2547 -0.3328 -0.0436
16052W        W31521  17.171   0.337   5.242  0.0979  0.0380  0.0172
16053W        W31522   7.173   7.536  12.994  0.1258 -0.2377  0.1454
16054W        W31523   8.131  17.570   4.488 -0.0340 -0.3039 -0.1839
16055W        W31524  17.241   3.670   3.245 -0.1438  0.0732 -0.5265
16056W        W31525   3.509   5.461  10.997 -0.3487  0.1198  0.1591
16057W        W31526   0.741  11.134   3.641 -0.0761  0.1888  0.1791
16058W        W31527   4.404   5.061  14.352  0.0220 -0.0035 -0.1610
16059W        W31528  11.751  18.072  13.283  0.2353 -0.2719  0.2401
16060W        W31529  12.752   6.159  14.096  0.2767 -0.2403  0.1199
16061W        W31530   5.104  13.685   2.812 -0.0765 -0.2074  0.2272
16062W        W31531  15.540   0.242   5.716 -0.2284  0.2226  0.4398
16063W        W31532  12.017   4.171  13.822 -0.0967  0.0168 -0.0609
16064W        W31533  11.897   1.718   5.656 -0.0810 -0.1257 -0.2029
16065W        W31534   2.598  11.076   5.516 -0.0691  0.0851  0.1758
16066W        W31535   1.830   4.808   0.833  0.0028 -0.2662  0.0490
16067W        W31536   4.622   8.296   3.591 -0.0107 -0.0480  0.1107
16068W        W31537  17.819   5.183  13.172 -0.1627  0.0625  0.0924
16069W        W31538  14.227  10.050  14.096  0.2192  0.0427 -0.1460
16070W        W31539  12.953  16.701  14.466 -0.0033  0.0999 -0.0221
16071W        W31540   3.363  14.153  12.423  0.1629 -0.0213  0.0727
16072W        W31541  16.286  17.542  11.863  0.0532  0.3608  0.0375
16073W        W31542  16.753  15.005  15.875 -0.1491  0.2691 -0.0305
16074W        W31543   5.964   9.430  15.990 -0.0762  0.1123  0.2350
16075W        W31544  11.939  10.316   2.767  0.0502  0.0246  0.0979
16076W        W31545   2.615   8.037   4.786  0.1364 -0.0333 -0.0574
16077W        W31546   2.485  12.396   5.396 -0.1994  0.2697  0.1821
16078W        W31547   5.031  16.017  14.238 -0.0775  0.1910 -0.0426
16079W        W31548   6.792  15.493  12.514  0.1971 -0.2036 -0.1435
16080W        W31549   1.427   6.184   0.323 -0.2365  0.1065  0.2181
16081W        W31550   4.733   7.711  14.145 -0.1822 -0.1973 -0.0584
16082W        W31551   3.586  13.963  15.458 -0.0735  0.0368  0.0338
16083W        W31552   8.631  12.006  13.527  0.0421 -0.2919  0.0199
16084W        W31553   9.630   8.431  11.863 -0.2715  0.0228 -0.1730
16085W        W31554  17.003  16.951  14.606  0.0352 -0.2562  0.0663
16086W        W31555  16.531  11.451   3.345 -0.0699  0.0227  0.2720
16087W        W31556  10.326   3.111   3.746 -0.1492  0.1927 -0.1839
16088W        W31557  12.571  10.128  13.876  0.2734 -0.1871 -0.0010
16089W        W31558  14.220  11.488   0.834  0.0373 -0.0922  0.1873
16090W        W31559   2.173   7.155  10.896  0.1846  0.3880 -0.0992
16091W        W31560  11.547   6.353  14.647  0.1295  0.1053  0.0609
16092W        W31561   1.661   2.168   5.659  0.0910 -0.1399 -0.1090
16093W        W31562  15.786  16.606  15.617 -0.0377 -0.2228 -0.2844
16094W        W31563  11.891   1.634   4.184 -0.2545 -0.0121 -0.1508
16095W        W31564  13.270   4.732   2.168 -0.0212  0.0015  0.0754
16096W        W31565   9.192  10.578   4.383  0.1539 -0.0578 -0.0329
16097W        W31566   3.904  16.611  12.949 -0.1827 -0.1844  0.2595
16098W        W31567   1.201   6.222  10.863  0.0164  0.0315  0.0678
16099W        W31568   0.719   3.946  12.001 -0.1891 -0.1583  0.3293
16100W        W31569   1.604   5.839  12.140  0.0530  0.1132  0.0985
16101W        W31570   6.804   8.597  10.718 -0.0059 -0.0861 -0.0368
16102W        W31571  15.040   1.602   5.557  0.3038 -0.0580  0.0427
16103W        W31572   1.402   1.769  15.610 -0.1802 -0.3587 -0.2104
16104W        W31573   1.838   9.214   0.049 -0.2974  0.0113  0.0678
16105W        W31574  11.156  16.479   5.119 -0.1680  0.0956 -0.1879
16106W        W31575   6.513   5.448   4.260 -0.1233 -0.2247 -0.0465
16107W        W31576   7.264   8.712  13.699  0.1115  0.1165  0.2447
16108W        W31577   7.643  13.270  12.368 -0.1048 -0.0629 -0.1397
16109W        W31578   8.401  10.337  14.154  0.4342 -0.1833  0.0727
16110W        W31579   1.018   9.596  15.929  0.1495 -0.1013  0.0867
16111W        W31580   5.607  11.833  13.097 -0.2445 -0.0768 -0.1730
16112W        W31581   6.647   0.714  10.166 -0.1155  0.0934 -0.2284
16113W        W31582   5.057   6.900   4.565 -0.3696  0.0639  0.0006
16114W        W31583   1.942   0.671  13.622 -0.0990  0.2165 -0.0427
16115W        W31584  16.999   2.027   2.207 -0.0038 -0.3080 -0.0379
16116W        W31585   4.240   1.085   5.072 -0.1966 -0.0222 -0.0265
16117W        W31586   5.397  16.338   2.842  0.2311  0.0757 -0.1073
16118W        W31587   7.897   8.453   1.072 -0.1337  0.1669 -0.4707
16119W        W31588   1.732   9.343   4.982  0.0634  0.2372  0.1530
16120W        W31589   5.411   0.072   4.990 -0.0781 -0.0498 -0.0407
16121W        W31590  18.140  15.639   5.063 -0.3194  0.1861 -0.0261
16122W        W31591   1.948   6.028  15.668 -0.1328  0.0675  0.2635
16123W        W31592   6.231   9.635   2.890 -0.2254  0.1508 -0.0097
16124W        W31593  10.960   8.360   4.671  0.0361 -0.1216 -0.2269
16125W        W31594   9.559   5.695  15.262  0.2175 -0.2876 -0.0002
16126W        W31595  15.308  16.412  15.690  0.2310  0.0932 -0.1544
16127W        W31596   2.975   4.687  13.301  0.2716  0.2210 -0.0359
16128W        W31597  11.722  11.488   2.360 -0.2671 -0.0151  0.0438
16129W        W31598   7.862   3.343   4.516 -0.1109  0.0588 -0.0036
16130W        W31599  13.976   3.334   0.829  0.1337 -0.3327 -0.3740
16131W        W31600  12.372   7.521  14.436  0.1543  0.0815  0.0315
16132W        W31601   6.195   5.254   3.588  0.0930  0.1483  0.2932
16133W        W31602  10.760  10.468   4.580 -0.0407  0.0063  0.4327
16134W        W31603   2.924   5.010   0.709  0.3401 -0.1432 -0.1259
16135W        W31604   7.366  17.853  14.813  0.0260  0.0353  0.2139
16136W        W31605  15.369  12.124   3.346 -0.0334 -0.0693  0.3658
16137W        W31606   3.959   9.533  13.103  0.0750  0.0465 -0.1239
16138W        W31607   5.438   8.120   3.154 -0.0755  0.0601  0.2424
16139W        W31608   5.224   1.550  12.495 -0.0846  0.1675  0.0746
16140W        W31609   2.286   4.600   1.062  0.1731  0.2183 -0.2723
16141W        W31610   6.291  15.853   2.261 -0.0767 -0.2493  0.1163
16142W        W31611   7.773  14.186  15.418 -0.0902  0.1011 -0.0702
16143W        W31612  17.556   0.434  12.953  0.0448  0.0270 -0.1548
16144W        W31613   3.790  11.550  15.134 -0.0472  0.2188 -0.0162
16145W        W31614   7.211   3.987  11.967  0.3515 -0.0062  0.0745
16146W        W31615   4.507   2.368   2.621 -0.2769 -0.1624 -0.3511
16147W        W31616   7.187  15.621   3.963  0.1147 -0.1519 -0.4470
16148W        W31617   7.329  16.726  13.548 -0.0040  0.0583  0.0215
16149W        W31618  16.685  16.026   0.058  0.2045 -0.1394 -0.2180
16150W        W31619  15.024  11.832   4.658  0.3437 -0.0747 -0.0015
16151W        W31620   8.740   6.756  14.001 -0.2921  0.2796  0.1554
16152W        W31621   9.932  10.901   4.218  0.0501  0.0710  0.2443
16153W        W31622  10.404   3.668  14.448  0.1016  0.2166  0.1477
16154W        W31623  11.038  10.735   0.259 -0.1273  0.1015  0.0248
16155W        W31624   2.968   9.447   2.373  0.1459 -0.0138  0.1813
16156W        W31625   4.442   7.296  13.429  0.0584  0.1956 -0.1264
16157W        W31626  16.421   4.374   0.569  0.3297  0.1203 -0.1131
16158W        W31627  18.042  16.159  12.344 -0.1164  0.0523  0.0100
16159W        W31628   7.020   1.014  13.965 -0.1333 -0.0398  0.0767
16160W        W31629  18.107   0.573   3.980 -0.0743 -0.0018 -0.1116
16161W        W31630  10.397   6.107  13.326 -0.2395 -0.0727  0.1318
16162W        W31631   4.274   8.765   2.443  0.1880  0.0693  0.0320
16163W        W31632  12.156   6.183  15.348  0.1008 -0.2678 -0.3992
16164W        W31633  13.352   5.326  13.654 -0.0785  0.1909 -0.1905
16165W        W31634   5.994  11.658  13.470 -0.1081  0.0411  0.1763
16166W        W31635  16.145  17.065   1.708 -0.2309  0.1421  0.1600
16167W        W31636   0.876   7.354   3.571  0.0305 -0.0177 -0.0548
16168W        W31637   9.958  16.744  15.050 -0.1201 -0.2000  0.0245
16169W        W31638   1.862  15.262   2.020  0.1681 -0.1934  0.3085
16170W        W31639   5.237  15.166  14.717 -0.0019 -0.0084 -0.0515
16171W        W31640   9.383  10.012   2.250  0.2193  0.0023 -0.1968
16172W        W31641  17.992  11.712   3.412 -0.1684 -0.0879  0.1331
16173W        W31642  12.293  14.443  11.338  0.0877 -0.2597 -0.1297
16174W        W31643  12.883  17.806   4.395  0.0835 -0.2762  0.2486
16175W        W31644  17.865   0.326  11.757  0.2210 -0.1405  0.1460
16176W        W31645   7.749  10.192   1.001 -0.3002  0.1458 -0.1096
16177W        W31646   5.857   7.711   4.707  0.1276 -0.1765  0.0914
16178W        W31647   6.330  10.624   1.924  0.2888 -0.3388 -0.2814
16179W        W31648   4.788   1.031  10.969  0.2512  0.0043 -0.2020
16180W        W31649   8.123   2.842   2.606  0.0803  0.0855  0.2170
16181W        W31650   1.465  11.416   3.184 -0.0560 -0.0786  0.1606
16182W        W31651  13.170   2.665  14.213 -0.3171  0.0527  0.0676
16183W        W31652  13.835   7.606  15.250 -0.2572  0.0064  0.0333
16184W        W31653  11.349   2.297  14.509 -0.1673 -0.1445 -0.2697
16185W        W31654  10.380  14.134  12.831  0.2215  0.0090 -0.0843
16186W        W31655   6.249   9.889  13.318  0.0268 -0.1426  0.1691
16187W        W31656   4.008  16.437  14.628 -0.1335 -0.0373  0.2422
16188W        W31657   2.079   6.173   1.177  0.3621 -0.1029  0.0976
16189W        W31658  13.432  13.391   0.682  0.1002  0.1780  0.1662
16190W        W31659   8.527   8.888  10.387  0.1085 -0.2227 -0.2913
16191W        W31660   3.451  17.577  11.421 -0.0638 -0.0769 -0.3553
16192W        W31661  11.093   8.900  15.883  0.0725 -0.1945 -0.0384
16193W        W31662  12.152   7.479  14.963  0.0275  0.2820  0.1421
16194W        W31663   7.478   2.968   4.293  0.2491  0.4041 -0.0213
16195W        W31664  11.456   2.582   1.678 -0.0923  0.1260 -0.0544
16196W        W31665   2.911  16.582  12.505  0.1668  0.0144  0.0959
16197W        W31666   4.293   1.460  15.694  0.0270 -0.2246  0.0537
16198W        W31667  15.922  10.124   4.007  0.1038 -0.0430 -0.2751
16199W        W31668   3.243   6.333   2.961  0.0922  0.1538  0.0745
16200W        W31669   1.830  12.068  13.545 -0.4007  0.2265 -0.1693
16201W        W31670  15.471   1.916   0.607  0.0622  0.0239 -0.0676
16202W        W31671   4.465   8.402  12.567  0.1095  0.1689 -0.1779
16203W        W31672  10.979   5.507   4.969  0.0583  0.1589 -0.2967
16204W        W31673   9.815  15.052  12.872  0.0769  0.0154  0.4924
16205W        W31674   8.450  16.823  16.008 -0.0523  0.0613 -0.0417
16206W        W31675   3.434  14.538   3.451 -0.0264  0.1817  0.0204
16207W        W31676  13.271   1.446  12.227 -0.1474  0.1865  0.0669
16208W        W31677   6.788  14.775  11.903 -0.1534 -0.0775  0.1424
16209W        W31678   8.835   4.225   3.487 -0.0269  0.1357  0.0832
16210W        W31679   2.349  12.406   2.034  0.2155 -0.0518  0.0052
16211W        W31680  11.473   2.293   3.900 -0.4150  0.0861  0.0429
16212W        W31681   3.407   9.667  13.461  0.2056 -0.1436  0.1228
16213W        W31682  12.851  13.352  13.213  0.2887 -0.0072 -0.1321
16214W        W31683   0.018   6.300   5.672  0.1487  0.1009 -0.1590
16215W        W31684   6.894   8.093  15.979 -0.0596 -0.1659 -0.0056
16216W        W31685  17.663   7.049   2.572 -0.2013 -0.0572  0.0412
16217W        W31686  17.523   0.027  15.528 -0.4292 -0.0840  0.0594
16218W        W31687   1.147   6.183  13.434 -0.0376  0.3296 -0.1127
16219W        W31688   5.325  17.557  11.263 -0.2649  0.2451 -0.0755
16220W        W31689   4.596  16.213   4.145  0.3176  0.0169 -0.0693
16221W        W31690  13.441  12.855   3.200 -0.0480 -0.1330 -0.0919
16222W        W31691   6.091  17.976  11.461  0.0685  0.1793  0.1647
16223W        W31692   8.761  14.119   0.240 -0.1431 -0.0046  0.0862
16224W        W31693  13.141  17.737  12.252  0.1265  0.0787  0.0805
16225W        W31694  13.185  16.102  15.502  0.0241  0.0968 -0.1886
16226W        W31695  17.728   8.168   1.013 -0.3787 -0.0095 -0.1006
16227W        W31696  10.204  14.987   5.284  0.0940  0.1055  0.1254
16228W        W31697  11.974  12.849   4.328 -0.1599 -0.1590 -0.1820
16229W        W31698   0.664  16.389  12.046 -0.1477  0.1282  0.0920
16230W        W31699   6.407   3.389  11.948 -0.1061  0.1556 -0.2012
16231W        W31700  18.191   8.584   0.304  0.0779  0.3490 -0.1906
16232W        W31701   4.961   6.441  15.209  0.2271  0.1289  0.2549
16233W        W31702   0.108   4.275  15.501 -0.2527 -0.2929  0.0789
16234W        W31703   1.552   7.766  12.622  0.1443 -0.0524 -0.3391
16235W        W31704  11.249  14.593  10.449  0.0414 -0.2800  0.0536
16236W        W31705  13.056  13.813   2.094  0.3081  0.1269  0.0530
16237W        W31706  15.770   1.490   0.687  0.2036  0.0550 -0.0924
16238W        W31707   2.290   9.495  10.861 -0.2280  0.0561  0.0530
16239W        W31708   1.679   6.553  11.044  0.2788 -0.0434  0.0862
16240W        W31709   3.420  12.369  11.905 -0.0526  0.2661  0.1360
16241W        W31710   0.367   0.732   0.514 -0.1949 -0.0299  0.4848
16242W        W31711   6.435  14.492   0.863 -0.2780 -0.0021  0.0128
16243W        W31712  11.329  14.063   5.661  0.0779 -0.1771 -0.0921
16244W        W31713  12.747   3.738  14.931  0.0315 -0.0416 -0.0910
16245W        W31714   4.725   7.571   1.220  0.2109 -0.5183  0.1349
16246W        W31715  17.248  10.135   3.767 -0.3135  0.1962  0.0341
16247W        W31716  13.218  12.002   0.639  0.0124 -0.0856 -0.1533
16248W        W31717   3.459   9.477   5.754  0.0870 -0.0623 -0.0742
16249W        W31718   5.506   8.807  11.738 -0.2838 -0.0359 -0.1167
16250W        W31719  13.108   3.169   5.177  0.0632  0.4748  0.1382
16251W        W31720   5.318  13.003  10.067  0.0473  0.0233  0.3254
16252W        W31721   7.610  15.386   0.341 -0.1317 -0.4747  0.4182
16253W        W31722  16.862   9.328   3.341  0.0077  0.0957  0.0294
16254W        W31723  15.529  15.472   3.653  0.0785 -0.0984  0.2827
16255W        W31724  16.235   3.543   3.896 -0.0586  0.2484 -0.2431
16256W        W31725  13.169   8.739   2.389 -0.2340 -0.1798 -0.0526
16257W        W31726   1.835   9.280  12.759  0.1426 -0.1507  0.2736
16258W        W31727   0.872  12.570   1.591  0.1004  0.0308 -0.3123
16259W        W31728  12.313   1.145   6.723  0.4216  0.2933 -0.2362
16260W        W31729  10.442   0.452   5.299 -0.0570  0.1633  0.2770
16261W        W31730  12.647   8.138  11.443 -0.1879 -0.2530 -0.1941
16262W        W31731  13.945   9.078   1.719  0.1723  0.0297  0.3795
16263W        W31732   4.087   8.243  11.788  0.3631 -0.0785  0.0867
16264W        W31733  10.752  12.650  12.987  0.1130  0.0580 -0.0027
16265W        W31734   7.976  11.364   3.791  0.1427  0.0703  0.0790
16266W        W31735   5.161  13.941  15.090  0.1784  0.3620 -0.1742
16267W        W31736  15.406   5.712   1.268  0.0199 -0.3105 -0.3136
16268W        W31737  15.330   7.056  10.862  0.3078 -0.5684  0.1362
16269W        W31738  17.383   1.810  15.396 -0.1311  0.2372 -0.0617
16270W        W31739  17.648  14.272  13.028  0.0303 -0.0865  0.1380
16271W        W31740   2.490  11.957  15.297 -0.1895 -0.0026  0.2051
16272W        W31741   6.215  15.116  14.874 -0.1833  0.1593 -0.2369
16273W        W31742   2.057  16.852   2.628 -0.2875 -0.0705 -0.0538
16274W        W31743   9.745  16.881  15.928 -0.3060 -0.5023  0.1736
16275W        W31744   6.803  15.768  13.203  0.0298 -0.0639 -0.2425
16276W        W31745   9.438   9.756  10.847 -0.2995 -0.0377 -0.3435
16277W        W31746  14.767  18.193   5.756 -0.0310  0.0821  0.2774
16278W        W31747   5.863  13.985   3.263 -0.1793 -0.0176 -0.2623
16279W        W31748   9.159   9.626  14.462  0.2490 -0.0509 -0.0853
16280W        W31749  13.208  11.008  15.411  0.1285 -0.2082 -0.1238
16281W        W31750   5.358  16.657  10.448 -0.5260 -0.2247  0.1766
16282W        W31751  14.914   9.249  12.910  0.0055 -0.0856  0.0049
16283W        W31752  15.880  10.557   5.433 -0.0186 -0.4350 -0.0722
16284W        W31753   1.806   8.745  14.731 -0.1056 -0.1734  0.0683
16285W        W31754   2.431  14.353   2.019  0.2743  0.4298 -0.2514
16286W        W31755  12.637   6.632   5.604 -0.0637 -0.1314 -0.0308
16287W        W31756  15.039   6.509   1.149 -0.0594  0.4204  0.0619
16288W        W31757  11.966   2.456  13.655 -0.0613 -0.0642 -0.0802
16289W        W31758   9.866   6.606  15.348 -0.0594  0.1029 -0.0433
16290W        W31759  11.958   0.701  15.133  0.1562 -0.0818  0.1876
16291W        W31760   7.134   1.332   0.379  0.2573  0.0305  0.1753
16292W        W31761  13.488   7.876   3.421  0.4809  0.0948  0.3692
16293W        W31762  16.028   5.807   4.385  0.1145  0.3040 -0.1436
16294W        W31763   3.826   9.327  14.642 -0.1800 -0.1481  0.1142
16295W        W31764  13.335  13.373   3.188  0.0641 -0.1225 -0.2376
16296W        W31765  15.827   9.665   2.061  0.1683 -0.2741 -0.0107
16297W        W31766   7.079  18.035   3.480 -0.0839  0.0386  0.2291
16298W        W31767  11.747   3.430  14.013 -0.1262  0.0020  0.1280
16299W        W31768   4.611  12.858  14.695 -0.0932  0.1205 -0.1563
16300W        W31769   3.247   5.118  11.648 -0.0219  0.0222 -0.2541
16301W        W31770  12.216   2.701   5.339  0.0434  0.0507 -0.4216
16302W        W31771   0.621   8.867   5.787 -0.0201 -0.3128  0.1889
16303W        W31772   7.479  12.238   3.276 -0.2490  0.1066 -0.2737
16304W        W31773   2.475  15.130  11.606  0.0892 -0.2220 -0.0525
16305W        W31774  16.705  17.058   4.267  0.0492 -0.0539 -0.1982
16306W        W31775   7.705   8.564  14.486 -0.1834 -0.0345  0.0843
16307W        W31776   5.453  12.044   4.802 -0.4428  0.4702  0.2407
16308W        W31777   0.393   0.026  13.754  0.2590  0.0540 -0.0344
16309W        W31778  13.014  12.912  12.010 -0.1651  0.2863 -0.1362
16310W        W31779   3.471  14.762  14.644  0.2293 -0.1288 -0.1223
16311W        W31780  16.956   2.726  15.104 -0.1573 -0.1743  0.0073
16312W        W31781  17.877   8.828  12.442  0.0723 -0.1154  0.3741
16313W        W31782  12.255  18.047   5.165 -0.1554 -0.2264 -0.1903
16314W        W31783  11.350   5.322   2.905 -0.1296  0.1835 -0.0390
16315W        W31784  15.903   6.624  11.683 -0.1731  0.0919  0.0437
16316W        W31785   1.913  17.594   5.798 -0.0221 -0.0275  0.2637
16317W        W31786   6.630   9.309   2.611  0.2459  0.0719  0.1931
16318W        W31787   7.434   2.514   4.559 -0.3566  0.3129 -0.1598
16319W        W31788  16.445   9.748  12.554  0.2989  0.0819 -0.1764
16320W        W31789   4.996   5.819  11.830 -0.2114 -0.0261  0.0628
16321W        W31790   3.221  18.273  13.480  0.3595  0.2784 -0.3051
16322W        W31791   8.289  13.799   1.634  0.4198  0.0129 -0.1080
16323W        W31792   1.161   9.520   5.829  0.2568  0.0417 -0.1061
16324W        W31793  12.524   0.274  14.448 -0.1152  0.1640 -0.0378
16325W        W31794  16.478  15.933   4.566  0.2048  0.1771  0.2387
16326W        W31795  11.462   5.632   4.842  0.0942  0.0532  0.1081
16327W        W31796   8.243   2.044  11.092 -0.1694 -0.0037 -0.1873
16328W        W31797   2.727  12.234  11.359 -0.1214 -0.0939  0.2317
16329W        W31798  13.167   6.884   5.430 -0.3442 -0.2379 -0.0316
16330W        W31799   1.015   6.614  15.642 -0.0956  0.3212  0.0377
16331W        W31800  18.035  16.286  15.459 -0.0205 -0.0930 -0.2040
16332W        W31801  11.675   3.148  11.453 -0.1303 -0.0888 -0.1658
16333W        W31802  16.131  17.585   1.711 -0.1434 -0.0629 -0.2953
16334W        W31803   3.665   0.319  15.547 -0.0808 -0.3507  0.2699
16335W        W31804   0.031   5.665   0.420  0.2463 -0.0608 -0.1062
16336W        W31805  12.424  13.600  13.229 -0.1549 -0.0440  0.2715
16337W        W31806  16.580   0.153  14.025 -0.1013  0.1621 -0.1572
16338W        W31807   6.002  12.309  11.463 -0.0620 -0.1705 -0.4013
16339W        W31808  15.080  10.480   0.480  0.0985  0.0158 -0.1208
16340W        W31809   8.628   9.883  11.552  0.0364  0.2372  0.0671
16341W        W31810  14.063  12.028  12.125 -0.1044  0.0531  0.1261
16342W        W31811   7.765   9.079   2.204  0.0111  0.0480 -0.2571
16343W        W31812  10.833  14.666  11.710  0.1839 -0.4044  0.1769
16344W        W31813  18.176   9.444   5.450 -0.3936  0.1084 -0.1501
16345W        W31814   9.968  12.765  15.408  0.1407 -0.0457 -0.0939
16346W        W31815   4.521  13.225   4.002  0.2927  0.3828 -0.5757
16347W        W31816   9.682   8.588   3.650 -0.0159 -0.1702 -0.0693
16348W        W31817   3.051   9.401   4.092  0.3330  0.3172  0.2462
16349W        W31818   6.335   3.645   4.364 -0.0520 -0.3991  0.6164
16350W        W31819   7.300   3.270  12.954 -0.2280 -0.1350  0.0064
16351W        W31820  11.839   9.573   2.632 -0.0743 -0.2312 -0.0040
16352W        W31821  18.196   7.419   1.845 -0.1161  0.0205 -0.1347
16353W        W31822   8.872  16.212  14.987  0.0300  0.1345 -0.0098
16354W        W31823   5.332  17.641   3.812 -0.2980 -0.1946  0.0505
16355W        W31824  17.812   5.053   5.683  0.1195  0.1286 -0.0594
16356W        W31825   8.469   6.485  13.432  0.1130 -0.2475  0.0679
16357W        W31826   5.634   6.325   0.201  0.1366 -0.1545  0.0698
16358W        W31827   5.137   6.802   3.266  0.3824 -0.1829 -0.5255
16359W        W31828  10.806   4.799  12.459 -0.0756  0.3832 -0.0993
16360W        W31829  10.021  16.125  13.485  0.1487 -0.0455  0.0252
16361W        W31830   9.351  16.585   3.365  0.5220  0.2077  0.3257
16362W        W31831  11.583  17.959  16.048  0.3306  0.1928 -0.1045
16363W        W31832   5.189  16.660  13.547  0.0266  0.0550 -0.1410
16364W        W31833  13.170   2.594   5.029  0.0187  0.0562  0.0559
16365W        W31834   0.773  13.505   2.759  0.2629  0.1300  0.0941
16366W        W31835  16.477   2.585   2.056  0.0161  0.0789 -0.2703
16367W        W31836  16.885   4.458  14.009 -0.0390  0.1787 -0.1914
16368W        W31837   0.245  14.014   1.287  0.0713 -0.0888  0.2056
16369W        W31838  13.500  16.728  13.481 -0.1710 -0.1163  0.4069
16370W        W31839  13.208   6.726   3.449 -0.0896 -0.2054 -0.1596
16371W        W31840   1.990   8.334  12.590  0.2547 -0.2998 -0.2040
16372W        W31841   9.322   1.997  15.766 -0.3305 -0.1927 -0.0164
16373W        W31842  10.982  13.004   4.748  0.0443 -0.1460  0.1457
16374W        W31843  12.750   1.888  14.681 -0.1313 -0.0622 -0.1252
16375W        W31844   8.873   9.309   0.447  0.2577  0.2887  0.0746
16376W        W31845   9.755  13.723  11.018 -0.0552  0.4165 -0.0836
16377W        W31846  12.728  16.990   2.837 -0.0972 -0.0213  0.1225
16378W        W31847  17.453  11.698  13.696 -0.1312  0.0947  0.0851
16379W        W31848   9.989  17.124   2.783  0.2023 -0.0452 -0.0148
16380W        W31849   4.754   2.723   4.388  0.2089 -0.2975 -0.0165
16381W        W31850   0.967  11.525  15.689  0.2186  0.0023 -0.1661
16382W        W31851   6.051  14.121  10.062 -0.2161 -0.1738 -0.0838
16383W        W31852  17.019   4.767   0.769  0.2151  0.0026 -0.0126
16384W        W31853   1.737  12.952   4.409 -0.0436 -0.0427  0.0662
16385W        W31854   1.482   8.842  12.766  0.2189 -0.1556  0.0087
16386W        W31855  13.521   0.165  13.872 -0.0073  0.1535 -0.0432
16387W        W31856   0.236  14.226   4.539 -0.3725  0.0181  0.0675
16388W        W31857   4.099  12.951   0.759 -0.0662  0.3032 -0.4445
16389W        W31858   0.577   2.634   4.418 -0.1008  0.0789 -0.3274
16390W        W31859   6.944   1.768   4.126 -0.1101 -0.1145  0.1811
16391W        W31860  14.988  11.444   3.746  0.0343 -0.0617  0.4578
16392W        W31861   5.913   5.913   2.627 -0.5134  0.0843 -0.0782
16393W        W31862  10.127   3.499  15.336 -0.0084  0.0155 -0.0658
16394W        W31863   7.421   2.723  12.667  0.0288  0.0241  0.0223
16395W        W31864   5.570   8.310  12.658  0.1290 -0.0588 -0.1641
16396W        W31865   9.757  11.759   4.931 -0.2397  0.3195  0.1783
16397W        W31866  12.975   2.129   5.593 -0.1229 -0.0730 -0.0130
16398W        W31867   0.028   8.466   3.852 -0.2824  0.0963  0.1498
16399W        W31868   3.878   5.706  12.408 -0.0658  0.1934  0.1850
16400W        W31869   5.020   8.889  11.928 -0.4347 -0.1806 -0.2067
16401W        W31870   7.815  15.668  12.618 -0.0371  0.0998  0.1578
16402W        W31871   9.732  11.834   1.006 -0.1391  0.0268 -0.0606
16403W        W31872   5.889   2.363  12.517  0.4129  0.3994 -0.1406
16404W        W31873  16.575   7.382  10.511  0.1266 -0.2638 -0.0283
16405W        W31874  14.908  15.330  14.750 -0.0216  0.1290 -0.1020
16406W        W31875  16.974   4.952   3.287  0.0790  0.0379 -0.2450
16407W        W31876  16.167  11.049   3.551  0.0779 -0.0817 -0.1270
16408W        W31877  11.421   1.815   4.092  0.1201 -0.5679 -0.2745
16409W        W31878   9.491   0.517   4.461 -0.0465  0.2868  0.2291
16410W        W31879   6.103  12.272   5.489  0.0869  0.5188 -0.1116
16411W        W31880  10.850  15.747   5.858  0.1876 -0.2222  0.0338
16412W        W31881   2.215  10.178   4.648 -0.0128  0.0816 -0.5409
16413W        W31882  11.100  12.021   0.325 -0.4733 -0.3669  0.2251
16414W        W31883  16.232   0.653  11.871  0.0753 -0.1613 -0.0649
16415W        W31884   7.855   9.158  14.458  0.1203  0.0373  0.0553
16416W        W31885  11.396   5.121   0.910 -0.0972  0.1158  0.1086
16417W        W31886   7.559   0.344   0.387 -0.0580 -0.0121 -0.0680
16418W        W31887  12.874  12.335   2.162  0.2921 -0.0275  0.1466
16419W        W31888   6.635  11.858  14.791 -0.0352  0.0934 -0.0269
16420W        W31889   5.418   5.588  11.987  0.0158 -0.1895  0.5055
16421W        W31890  15.910  15.523  11.372 -0.1367  0.1750  0.0894
16422W        W31891   2.864  13.463  13.544 -0.0805 -0.0655  0.0032
16423W        W31892  14.435  10.371   3.866  0.1343  0.1852 -0.1789
16424W        W31893  10.915  12.094  14.541  0.3313 -0.0493 -0.2522
16425W        W31894   8.259   1.412   3.741 -0.1402  0.1317 -0.2786
16426W        W31895   0.104   9.925  11.946 -0.2115 -0.0975 -0.2332
16427W        W31896   7.164  17.401   5.743  0.1494 -0.0757  0.0169
16428W        W31897  17.529  18.143   3.507 -0.0064  0.0377 -0.0288
16429W        W31898  15.219  14.067  15.297 -0.0012 -0.1913 -0.4069
16430W        W31899   3.951  16.056  15.432  0.0308  0.0025 -0.1674
16431W        W31900   4.682   5.751   1.164  0.2250 -0.0457  0.1494
16432W        W31901   8.316   5.122  11.895 -0.1328 -0.4706  0.0649
16433W        W31902  10.858   0.518  15.439 -0.0583 -0.1549 -0.0853
16434W        W31903   1.653  14.973   4.641 -0.1687 -0.0621 -0.1293
16435W        W31904   4.253   6.042  10.934 -0.0288  0.3866  0.0401
16436W        W31905  10.439  17.411  14.362  0.0335  0.0454 -0.0109
16437W        W31906  14.459   0.185   0.208  0.1651 -0.1177 -0.0217
16438W        W31907   0.473  11.120  12.669 -0.2200 -0.0198 -0.2971
16439W        W31908   1.917   7.824  12.963  0.3482  0.1142  0.0509
16440W        W31909   5.140  14.581   1.382 -0.2086 -0.4327 -0.4720
16441W        W31910   1.803   6.998  11.151 -0.3700 -0.0644 -0.0612
16442W        W31911   6.532   9.161   0.821  0.1150 -0.1509  0.1254
16443W        W31912  13.727  10.469   3.513 -0.3728 -0.1301  0.0630
16444W        W31913   9.457   1.670  15.410  0.0073  0.0907  0.0779
16445W        W31914   9.466   6.776   5.021  0.0219 -0.0369 -0.1130
16446W        W31915  11.528  12.562   4.108  0.2271 -0.0820  0.1637
16447W        W31916   9.125   1.534  12.842 -0.3024 -0.0076 -0.2021
16448W        W31917   5.561  13.385   2.459 -0.1625  0.0033 -0.0850
16449W        W31918   9.936  13.974   3.162  0.0912  0.2854 -0.2773
16450W        W31919   2.141   9.010   3.229 -0.1891 -0.0060  0.0065
16451W        W31920   9.194   7.387   0.692 -0.2691  0.1578 -0.1503
16452W        W31921   7.151   1.209  15.136  0.0116 -0.0630  0.1608
16453W        W31922   7.219   7.059   2.608  0.0305  0.0536 -0.1823
16454W        W31923   1.777   9.195   2.877  0.0027  0.1029 -0.1052
16455W        W31924   9.791  12.609   5.395  0.3934  0.0900  0.0073
16456W        W31925   9.254  12.979  14.851 -0.2129  0.0453 -0.1589
16457W        W31926   3.862  18.117   3.484  0.1616  0.1008 -0.3049
16458W        W31927   8.967   1.174   1.300  0.0139 -0.0654 -0.1982
16459W        W31928   5.775  10.955   3.948 -0.2638  0.1345  0.0183
16460W        W31929   0.034   0.477   6.328 -0.0545 -0.2180 -0.2512
16461W        W31930   2.341   6.118  11.608  0.2626 -0.0630 -0.0431
16462W        W31931   1.585   0.139   4.583 -0.0497  0.1071  0.1278
16463W        W31932   6.341   5.593  11.884 -0.0721 -0.2526 -0.4203
16464W        W31933  10.412   3.690  10.113 -0.0888 -0.1254  0.0165
16465W        W31934  10.594   5.608   1.967 -0.2220  0.0357  0.1516
16466W        W31935  16.698   5.159  15.635 -0.3675  0.1414  0.0447
16467W        W31936  14.923  16.700  12.574  0.1181 -0.1608  0.0743
16468W        W31937   6.676   8.234   3.714 -0.0578  0.1749  0.0501
16469W        W31938  15.042   0.225   4.958  0.0321 -0.1884 -0.0185
16470W        W31939   5.306  13.029  12.480  0.0411  0.1767  0.0657
16471W        W31940   0.540  17.133   3.601 -0.0724  0.0175 -0.1268
16472W        W31941   6.806   8.867   2.639  0.0264  0.0756 -0.0559
16473W        W31942   1.031  12.041   2.492  0.1048 -0.3068 -0.0034
16474W        W31943   1.067  16.516   5.697  0.1803 -0.0464 -0.1241
16475W        W31944   8.038  15.193  12.064  0.2272  0.2963  0.0493
16476W        W31945   1.685   4.006   0.577  0.1491 -0.2543 -0.0022
16477W        W31946   1.956  17.256   0.223 -0.2343  0.3082  0.2350
16478W        W31947   7.201   9.248  12.834  0.1492  0.0623 -0.0231
16479W        W31948   6.505   9.613   4.572 -0.1837 -0.4546  0.0818
16480W        W31949   8.129  14.504  13.780  0.2175  0.2415 -0.1392
16481W        W31950  16.275  10.020   0.189  0.0836  0.0622 -0.1583
16482W        W31951  17.582   8.934   4.797 -0.3018 -0.1313  0.3126
16483W        W31952  10.615  10.444  11.347 -0.0221 -0.0525  0.1705
16484W        W31953   4.914  15.332   5.485 -0.0145  0.0662  0.0941
16485W        W31954  17.554   4.337   3.804 -0.0842  0.1866 -0.2850
16486W        W31955   1.816  12.016   3.913 -0.0304 -0.1309 -0.0641
16487W        W31956   0.353   7.565   1.340  0.1573  0.1040 -0.0755
16488W        W31957   8.985   4.516   6.001  0.0008  0.0514 -0.0510
16489W        W31958   7.309   1.376  12.268 -0.1013 -0.0587 -0.1604
16490W        W31959   9.116  14.414   5.034 -0.1259 -0.0375  0.0449
16491W        W31960   4.472   8.641  15.503 -0.2616  0.0013 -0.0969
16492W        W31961   1.346   7.397   1.921 -0.0039  0.0621 -0.0428
16493W        W31962  15.507  17.118  14.784  0.3370  0.1107  0.1821
16494W        W31963   8.618  16.389  14.581 -0.1515  0.2153 -0.1999
16495W        W31964   6.897  17.527   9.902 -0.0053  0.0972 -0.0227
16496W        W31965   2.190   3.312  15.300  0.1488 -0.2513  0.1640
16497W        W31966   9.233  11.024   0.228 -0.0864  0.0881 -0.0590
16498W        W31967  13.568   5.313   1.621  0.0873  0.2366 -0.1000
16499W        W31968  10.796   4.688  11.189 -0.2022 -0.0328 -0.1581
16500W        W31969  15.516   5.094   3.376 -0.1212  0.1459 -0.2601
16501W        W31970  14.599  14.262   0.442 -0.2816 -0.0870 -0.2417
16502W        W31971   6.185   2.130   4.349 -0.2318  0.0309  0.1450
16503W        W31972  14.716  11.597   0.163  0.0482  0.0573 -0.1656
16504W        W31973  14.436   2.094  12.987  0.0274  0.0188 -0.0315
16505W        W31974  10.488   6.240   5.359  0.2451  0.0645  0.0083
16506W        W31975   0.731  15.027   4.219 -0.1742  0.0475 -0.1964
16507W        W31976  16.646  13.837   1.913  0.2249 -0.1899  0.3123
16508W        W31977   4.081   0.619   4.899 -0.1043  0.0099 -0.0119
16509W        W31978  11.516  17.756   4.542 -0.0894 -0.0498  0.0630
16510W        W31979  17.441  15.410   0.410  0.0051  0.0935 -0.3406
16511W        W31980  12.972  11.399  12.211 -0.0036  0.3540  0.0397
16512W        W31981  14.984  12.361   1.337  0.0947  0.0943  0.2840
16513W        W31982  12.668   8.250  14.659  0.5600 -0.4064 -0.1510
16514W        W31983  10.470  14.721  11.246  0.1813  0.0522 -0.0319
16515W        W31984   2.394  14.658  11.362  0.0940  0.2875  0.0486
16516W        W31985   2.318   6.694   3.544 -0.1032  0.0453  0.0023
16517W        W31986   0.663   0.936   0.100 -0.0102  0.1529  0.2262
16518W        W31987   6.639  16.432   3.077  0.1241  0.1887  0.2217
16519W        W31988   0.873   0.578   4.816 -0.0132  0.4271  0.0003
16520W        W31989   1.030  11.707  13.328 -0.1600  0.4470  0.0533
16521W        W31990   7.632   4.863  15.180 -0.2948  0.2383  0.2209
16522W        W31991   3.879  13.217   2.411 -0.2387  0.0429 -0.0482
16523W        W31992  13.754  14.880  11.519  0.0625  0.1300 -0.0026
16524W        W31993   8.465   5.799  14.466 -0.0239 -0.1636  0.2996
16525W        W31994   3.580   9.887  11.265  0.1284 -0.0700  0.1109
16526W        W31995  16.324  11.422   4.248  0.4710  0.3143 -0.3329
16527W        W31996   6.751  16.078   0.202  0.0049 -0.1090 -0.2931
16528W        W31997  14.334   3.395   5.891  0.1852 -0.1180  0.1670
16529W        W31998   5.264   5.911  15.799  0.3053 -0.1287  0.2379
16530W        W31999  13.569   6.189  15.055 -0.3077  0.0567 -0.0589
16531W        W32000   4.735   3.412  12.545 -0.1433  0.1410 -0.0915
16532W        W32001  13.312  18.122  12.542  0.2282  0.0998  0.1276
16533W        W32002   1.404  16.345  14.404 -0.1257  0.2362  0.0728
16534W        W32003  14.600   0.916   4.136  0.1745  0.1124  0.2385
16535W        W32004   6.381  12.478   5.160  0.1921  0.0712  0.4327
16536W        W32005   6.772   8.755   4.101 -0.1882 -0.2011 -0.1026
16537W        W32006   9.187   1.263   4.541  0.0554 -0.1922 -0.1439
16538W        W32007  17.950   8.351   4.237 -0.0439  0.2242 -0.2612
16539W        W32008  17.208  16.783  13.789 -0.0812  0.0627  0.1536
16540W        W32009  13.877   2.849   0.973 -0.0006  0.1675  0.0691
16541W        W32010   2.892   6.001   0.856 -0.2162  0.0138  0.0811
16542W        W32011   2.703  17.052   0.176  0.3714  0.1756  0.0361
16543W        W32012   3.559   3.566  13.658  0.0626  0.2508  0.1721
16544W        W32013   5.936   6.345  11.879  0.1553  0.1947  0.1177
16545W        W32014  17.431  15.472  14.716  0.2986  0.3444 -0.0089
16546W        W32015   1.598  13.026   0.573  0.1149  0.1529  0.1192
16547W        W32016   9.665   2.248   1.214 -0.0565 -0.1258  0.0845
16548W        W32017   5.834  15.435  12.885 -0.2423  0.2158  0.0143
16549W        W32018  18.256  17.077  11.289 -0.0404  0.0342 -0.1388
16550W        W32019   3.352   8.654  13.788  0.0795  0.0675  0.0949
16551W        W32020   8.354   4.852   3.077  0.3257 -0.0672 -0.0037
16552W        W32021   0.353  12.604  11.887 -0.0687  0.2887  0.0498
16553W        W32022  17.523  11.413   2.562  0.3443 -0.0136  0.0079
16554W        W32023  12.834  12.652  14.085  0.0128 -0.2392 -0.3228
16555W        W32024   2.260  10.311  13.581  0.0314 -0.1066  0.0451
16556W        W32025  13.350   1.977   1.025  0.1493 -0.0342  0.1268
16557W        W32026   4.132   0.207   1.374 -0.2561 -0.1714  0.1952
16558W        W32027   2.228  12.174  11.831  0.1132 -0.0325  0.0113
16559W        W32028   9.333  17.089   3.343 -0.1695 -0.2259 -0.2146
16560W        W32029  12.519  16.922  14.799 -0.1649 -0.0394 -0.0053
16561W        W32030  12.856   0.263  11.798  0.1630  0.0739  0.0796
16562W        W32031   5.712   4.925   0.682 -0.1173 -0.1885 -0.1117
16563W        W32032   6.662   1.036   0.840 -0.0841  0.1324 -0.0813
16564W        W32033  10.853  17.117   2.448  0.0935 -0.0312 -0.0910
16565W        W32034   5.469   6.378  15.127  0.1801 -0.0355 -0.3236
16566W        W32035   1.875   2.592  15.509 -0.0478 -0.0153  0.0077
16567W        W32036   3.750  13.715   2.515 -0.0295  0.1019 -0.0738
16568W        W32037   0.921   8.988  14.979  0.1519  0.0686 -0.0938
16569W        W32038   9.807   9.765   1.172 -0.1627  0.2248 -0.0850
16570W        W32039   9.900   9.019  10.959 -0.0614 -0.2882 -0.0516
16571W        W32040  16.596  15.678   2.234  0.0447  0.1597 -0.0091
16572W        W32041  17.818   1.272   3.792  0.2743 -0.2900  0.0553
16573W        W32042   2.375   5.666  11.915  0.4376 -0.0359  0.2785
16574W        W32043   5.000  16.326  13.171 -0.2002 -0.1224  0.0155
16575W        W32044  16.272   5.765  13.139 -0.0420  0.3873  0.4553
16576W        W32045   3.702  13.589   0.664  0.0058  0.1139  0.0018
16577W        W32046  15.023  12.751   0.244 -0.1571  0.1473  0.0502
16578W        W32047  16.729  15.303   5.390 -0.0915 -0.1217  0.1909
16579W        W32048   1.956  11.449   1.750  0.0108  0.1298  0.0736
16580W        W32049  12.375   7.692   3.898  0.0941  0.2022 -0.2141
16581W        W32050   1.414   4.604  13.794  0.0531 -0.0391  0.1437
16582W        W32051   8.022  14.936  14.136 -0.2294  0.0959 -0.1657
16583W        W32052   7.751   4.756  14.115 -0.1016  0.2101  0.0300
16584W        W32053   5.591  12.384   0.079  0.1785  0.0107  0.2376
16585W        W32054   8.537   1.588  13.688 -0.1680  0.0181  0.0750
16586W        W32055   5.931   5.355  11.941  0.1897  0.0356  0.2979
16587W        W32056   6.448   4.419   0.984 -0.0738 -0.1359  0.0961
16588W        W32057   6.684   1.737   0.246  0.0095  0.0324  0.0600
16589W        W32058   4.293   6.497  12.046  0.0428  0.0889 -0.0859
16590W        W32059  13.653   2.175   0.076  0.4058  0.0896 -0.1852
16591W        W32060   3.616   8.534  15.637 -0.0897  0.1040  0.1938
16592W        W32061  17.619   7.443  13.947  0.1302 -0.0668  0.0674
16593W        W32062  15.465  11.623   4.509 -0.0354 -0.2181 -0.1171
16594W        W32063   4.703   3.113  13.559 -0.0489  0.0219 -0.3266
16595W        W32064  13.530   5.172  15.358  0.0628 -0.2878  0.1504
16596W        W32065   2.265  17.186   0.777 -0.0628 -0.3054 -0.0233
16597W        W32066   7.918  13.315  13.441  0.1651  0.1327  0.0010
16598W        W32067  17.671  10.191   5.199  0.2340 -0.0590  0.1355
16599W        W32068   9.745  15.662   1.039 -0.3995 -0.0300 -0.0387
16600W        W32069   9.949   3.842  10.991  0.1909 -0.1942  0.0772
16601W        W32070  12.675   5.297   2.641  0.2732  0.0869  0.0599
16602W        W32071  17.390  17.406  10.638  0.2544 -0.2594  0.0203
16603W        W32072  15.249  14.088  15.840  0.3196 -0.0172 -0.0405
16604W        W32073   5.028  14.010   3.646  0.0461  0.0570  0.0257
16605W        W32074   3.743   3.344  13.206 -0.1430 -0.3732 -0.0753
16606W        W32075   3.894   1.724   2.843  0.4721 -0.0272  0.1710
16607W        W32076   8.702   2.040  14.137 -0.1254 -0.0582 -0.0059
16608W        W32077   9.869   3.249   4.894  0.2930  0.0594  0.3559
16609W        W32078   7.537   4.981   5.462 -0.0413 -0.0973  0.0054
16610W        W32079   4.760   3.078   9.869 -0.0835 -0.2045 -0.0171
16611W        W32080   1.510  13.585  13.582 -0.1674  0.0263  0.2797
16612W        W32081  14.197  13.459   4.863 -0.0340 -0.2197  0.0533
16613W        W32082   4.545   1.393  14.106 -0.2866  0.2338 -0.1344
16614W        W32083   3.219   4.010  14.191 -0.1305 -0.2685 -0.0609
16615W        W32084   7.074  12.576   0.649  0.2279  0.2036  0.3231
16616W        W32085  11.771   5.389  10.817  0.1101 -0.2100  0.1512
16617W        W32086  15.899  17.714   5.232  0.0927  0.3505 -0.2632
16618W        W32087   9.434  18.244   6.123 -0.1171 -0.3066 -0.1382
16619W        W32088   1.794  13.814   4.229 -0.0405  0.4675 -0.2278
16620W        W32089  11.753   2.237  11.291  0.2751 -0.1321  0.1451
16621W        W32090   0.282  11.780   0.256 -0.0544  0.1264  0.1307
16622W        W32091   0.007   3.364  10.554  0.0695 -0.0461  0.0180
16623W        W32092  10.209   6.925  12.734  0.1688 -0.1726  0.1079
16624W        W32093   8.740   9.328   1.715 -0.1521 -0.2986  0.1607
16625W        W32094  17.108   5.908  12.617 -0.1774 -0.2354  0.0474
16626W        W32095  13.290  15.660  12.556 -0.1848  0.2410  0.3030
16627W        W32096  11.533   5.955  12.659  0.0860 -0.3147  0.0215
16628W        W32097  18.219  15.633  15.681 -0.0267  0.2341  0.3887
16629W        W32098   6.227  17.011   4.570  0.2391 -0.0229  0.0165
16630W        W32099   6.838  11.146  13.932 -0.1858  0.0635 -0.1271
16631W        W32100   7.513   9.527  15.162  0.2236  0.0369  0.0598
16632W        W32101   2.294  18.090  14.930  0.1144  0.1844  0.0981
16633W        W32102  15.001   2.117  11.718  0.1150 -0.0246 -0.0554
16634W        W32103   1.854  10.351   5.943 -0.1858  0.3393 -0.0298
16635W        W32104   7.925   8.229   2.516 -0.1498  0.3147  0.0868
16636W        W32105   0.954  14.377   1.827 -0.1828  0.1487  0.0793
16637W        W32106   6.456  11.277  13.653  0.0972 -0.0826 -0.0513
16638W        W32107   6.424  14.490   4.895 -0.0016 -0.0287 -0.0407
16639W        W32108   7.991   2.526  14.217 -0.2843 -0.0016 -0.0277
16640W        W32109  17.186  17.159   1.981  0.0064  0.0411 -0.0464
16641W        W32110  17.098   0.745   1.242  0.0006  0.0057  0.1564
16642W        W32111   0.910   2.085   4.983 -0.1929  0.2489 -0.1992
16643W        W32112   4.506   3.701  14.214  0.1322 -0.0202  0.0285
16644W        W32113  15.829  12.390  10.658 -0.0912 -0.2433  0.1478
16645W        W32114   3.966   6.240   3.654  0.0093 -0.1931  0.2224
16646W        W32115  12.602   4.497  14.544 -0.0891  0.0975  0.0996
16647W        W32116   4.364   2.751  11.439  0.2032  0.1633 -0.2515
16648W        W32117   0.306   2.030   2.614  0.1442 -0.0849 -0.3021
16649W        W32118  14.697  14.699  12.529  0.0548  0.1000  0.0862
16650W        W32119  14.158  16.673  13.151 -0.0892  0.2516 -0.0593
16651W        W32120   0.998   9.021  11.224  0.2029 -0.0085 -0.0753
16652W        W32121   2.475  11.348  13.388 -0.0403  0.2300  0.0260
16653W        W32122   6.162   3.892   5.222 -0.0088 -0.0751 -0.2787
16654W        W32123   4.259  12.634  13.156 -0.1381 -0.0170 -0.0358
16655W        W32124   5.440  11.937   0.386 -0.2008  0.1619 -0.0034
16656W        W32125  14.361   5.248   3.140 -0.0104 -0.1349 -0.3609
16657W        W32126  11.222   5.145  12.639  0.0845 -0.3135  0.1640
16658W        W32127   8.514  14.242   3.794  0.1791 -0.1908  0.0339
16659W        W32128  10.324   4.524  11.687 -0.0098 -0.0081 -0.1688
16660W        W32129   7.807   2.257  10.880  0.0267  0.0454 -0.0068
16661W        W32130   6.414  16.708   2.692  0.0555  0.1261 -0.0491
16662W        W32131   9.115   4.915  13.710  0.0270  0.1101 -0.0777
16663W        W32132  14.917   9.930   0.627 -0.0896 -0.0086 -0.1139
16664W        W32133   1.313   8.650   5.412  0.0164 -0.0593 -0.1851
16665W        W32134  10.673   7.324   4.893  0.0579  0.0886 -0.0647
16666W        W32135   0.997   5.404  15.479  0.1759 -0.0684 -0.0296
16667W        W32136   4.709   8.910  13.895  0.2448  0.1038 -0.3773
16668W        W32137   3.633   0.023   2.478 -0.2740 -0.0166  0.2755
16669W        W32138  11.503  10.642   0.471  0.0955 -0.1480  0.0031
16670W        W32139  15.935   2.191   4.467  0.0523  0.0848 -0.4852
16671W        W32140  14.554  14.556  15.989 -0.1826 -0.1389 -0.1556
16672W        W32141  13.383  15.258   2.900  0.0230 -0.3247  0.2188
16673W        W32142   4.108   6.844  14.710  0.1261 -0.2842 -0.0816
16674W        W32143  16.991  18.202   3.452  0.2377 -0.2144 -0.0582
16675W        W32144   0.024   1.024   0.745  0.1754 -0.2323 -0.1450
16676W        W32145   1.652   8.278   3.240 -0.1736  0.3362  0.1840
16677W        W32146   3.358   8.132  12.266 -0.0637  0.1086 -0.0237
16678W        W32147   5.059   5.590   2.308 -0.0670 -0.1657  0.4122
16679W        W32148  15.573  13.673   4.963  0.0257 -0.2065  0.0772
16680W        W32149  12.742   4.215   5.572 -0.1704  0.1164 -0.4558
16681W        W32150   4.706  13.111   2.386 -0.2283 -0.3044  0.0075
16682W        W32151   4.075   1.776   4.348  0.1263  0.0097  0.4323
16683W        W32152   7.191   7.893   0.436  0.3538  0.2256  0.2353
16684W        W32153   0.976  16.797   1.614 -0.1568  0.2095 -0.1824
16685W        W32154   6.469   5.337  15.408 -0.3005  0.0921  0.1110
16686W        W32155   8.137  16.077  14.379 -0.0149 -0.0851  0.5141
16687W        W32156  16.306  11.522   5.187  0.0552 -0.1263 -0.0703
16688W        W32157   8.612  11.710  13.042  0.0619 -0.0817  0.0277
16689W        W32158   8.554  17.243   5.966 -0.0500 -0.0967  0.4876
16690W        W32159   4.480  17.967   4.935 -0.0821  0.1883  0.1171
16691W        W32160   1.316   2.296  10.580 -0.1373  0.3166  0.3447
16692W        W32161   2.709  15.088   1.047 -0.2219  0.1941  0.2838
16693W        W32162  16.420  10.070  14.950  0.0651 -0.3131  0.3224
16694W        W32163   9.108  13.018   4.882  0.3090 -0.0427  0.0748
16695W        W32164  14.374   0.662  12.237 -0.0877  0.1863 -0.2677
16696W        W32165  16.901  16.241  15.633  0.3355  0.0489 -0.0077
16697W        W32166   0.544   6.708  14.665 -0.0904 -0.1492 -0.3035
16698W        W32167   3.669   7.907   0.804  0.2324  0.1985  0.0884
16699W        W32168  18.074   7.982   2.453  0.4023  0.4104 -0.0104
16700W        W32169   1.029   9.534  15.123 -0.1923  0.0589 -0.0088
16701W        W32170   3.799   0.521  14.053 -0.0648  0.0729  0.3593
16702W        W32171   2.715   0.470  14.602 -0.1580 -0.1286 -0.0462
16703W        W32172   7.484   7.478  12.200  0.0916 -0.2425 -0.0170
16704W        W32173   3.582   5.020  11.277  0.0418 -0.0595 -0.2759
16705W        W32174   7.924  15.270   3.131  0.0383  0.1741  0.1072
16706W        W32175  11.922   7.169   3.610 -0.0802  0.1322  0.1064
16707W        W32176   8.990   7.078   4.270  0.1493 -0.0172 -0.1365
16708W        W32177   7.734  11.725  10.036 -0.0009 -0.2091  0.1310
16709W        W32178  10.799  17.359   1.982  0.1309 -0.1098  0.2432
16710W        W32179  13.772  15.013  12.883  0.1588 -0.1993 -0.0215
16711W        W32180  14.220   5.167  11.549 -0.0746 -0.3020 -0.2448
16712W        W32181   2.377  15.914   3.856 -0.0366  0.2783  0.1125
16713W        W32182   4.796   4.934   4.427 -0.1180  0.3214 -0.1738
16714W        W32183  16.787  12.778  14.938  0.0261  0.1756 -0.1782
16715W        W32184  15.662   2.559   5.643  0.1613  0.1115 -0.0850
16716W        W32185   6.009  13.403  15.523 -0.0232  0.0413 -0.0982
16717W        W32186  14.413  10.884  14.257 -0.1467 -0.0938 -0.1764
16718W        W32187   0.547   2.584   3.456 -0.6100 -0.3595 -0.0794
16719W        W32188  17.238  10.887   3.238  0.0216  0.2397  0.1253
16720W        W32189  15.801  17.304  14.269  0.1337  0.2311 -0.1807
16721W        W32190  15.592  13.240  13.673 -0.1077  0.1457 -0.2562
16722W        W32191   6.052  13.452  14.986  0.2101 -0.1421  0.2561
16723W        W32192   5.899  10.306  13.374 -0.3628 -0.1470 -0.1040
16724W        W32193   0.196  17.445   1.441  0.3087 -0.0845  0.1903
16725W        W32194  14.312   6.978  14.257 -0.0659  0.2068 -0.3523
16726W        W32195   8.079  13.336   4.737 -0.1571 -0.3853  0.3867
16727W        W32196  12.263   4.367  11.381  0.0532  0.1160 -0.1654
16728W        W32197   3.075   2.098   2.448 -0.1208 -0.0172  0.0822
16729W        W32198  12.397   3.358  13.466 -0.1646  0.1069 -0.0924
16730W        W32199  17.828  17.207   1.436  0.0909  0.2482 -0.1233
16731W        W32200   3.675   0.322   0.297  0.1495  0.2747  0.0922
16732W        W32201  14.488  10.689   4.703 -0.0847  0.3941 -0.2651
16733W        W32202  12.469  12.451   1.860  0.0769  0.0734 -0.1622
16734W        W32203  15.087   9.737   2.759  0.0923  0.1214 -0.2300
16735W        W32204   9.813   5.006   4.302 -0.1447  0.1123  0.0131
16736W        W32205  11.540  13.744  11.905  0.2320  0.1126 -0.1514
16737W        W32206  14.282   9.242   1.104 -0.3141 -0.1081  0.1054
16738W        W32207  10.200   4.017  15.247 -0.0719  0.0866  0.1917
16739W        W32208  12.692  17.118  15.617  0.0919 -0.0465  0.0411
16740W        W32209  16.766   5.825   3.094  0.1189 -0.0143  0.1031
16741W        W32210   5.982   6.356   2.758  0.0451  0.2193  0.0263
16742W        W32211   3.663   5.059   2.061  0.1406 -0.0291  0.0681
16743W        W32212   3.214  14.827   2.361 -0.1058 -0.1777  0.0459
16744W        W32213  18.070  14.657  13.786  0.0976  0.1150 -0.1592
16745W        W32214  13.530  14.032  12.649 -0.1771 -0.0645  0.0628
16746W        W32215   3.957  17.923  15.070  0.1266 -0.1894 -0.1612
16747W        W32216   1.834   1.572   5.195 -0.0430 -0.0885  0.1742
16748W        W32217   0.050   7.200  12.244  0.1455  0.0736 -0.0419
16749W        W32218   1.583  17.606  16.087 -0.0778 -0.1184  0.0825
16750W        W32219   8.946  10.178   3.429  0.1256  0.0482  0.0125
16751W        W32220   2.778   6.092  13.596  0.0416  0.1165  0.0076
16752W        W32221   1.385  15.024  15.917  0.0999  0.3136  0.1159
16753W        W32222   1.148   0.694  15.123 -0.0571 -0.0045  0.0536
16754W        W32223   3.530   4.810  13.126  0.0475 -0.1859 -0.0608
16755W        W32224   5.239   4.131  12.456  0.1372  0.2920 -0.3102
16756W        W32225  15.294   5.617   4.828 -0.0627 -0.0743 -0.2437
16757W        W32226   8.844   1.924   1.978 -0.1652  0.1408  0.0643
16758W        W32227   8.234  17.772   2.092 -0.3509 -0.1502  0.0329
16759W        W32228   0.707  10.126   3.949 -0.1918 -0.0591  0.2140
16760W        W32229  15.107   8.776   3.872 -0.1918 -0.0494 -0.0111
16761W        W32230   2.909   3.063  11.784 -0.0620 -0.1974 -0.1061
16762W        W32231   8.945   6.787  13.564  0.0338  0.1755  0.6028
16763W        W32232  11.843   6.440  15.037 -0.0205  0.0323 -0.1867
16764W        W32233  14.011  14.782  11.972 -0.0293 -0.3609 -0.1672
16765W        W32234  17.554  12.208  14.925 -0.0938  0.1024  0.1696
16766W        W32235   8.776  10.819   5.423  0.0587  0.0721 -0.0119
16767W        W32236   2.377   7.355  15.694  0.0960  0.1175 -0.0339
16768W        W32237  10.538  12.704  10.528 -0.2301  0.0653  0.2954
16769W        W32238  12.978   1.736   5.198  0.0259 -0.0302  0.2366
16770W        W32239   5.334  16.581   2.431 -0.0967 -0.0452  0.1059
16771W        W32240   5.985   1.253  13.765 -0.2298  0.0999 -0.4158
16772W        W32241   5.101   0.410  11.128 -0.0700  0.1452  0.0445
16773W        W32242   0.615  11.465   4.446  0.2826 -0.4317  0.0842
16774W        W32243   0.027   9.227   9.574  0.0161  0.2202  0.0055
16775W        W32244   2.031   2.238  11.407  0.0197  0.3073  0.2759
16776W        W32245  14.072   8.126   0.488 -0.0348  0.1277 -0.0665
16777W        W32246   7.154  16.135   2.333  0.1654  0.1983  0.0542
16778W        W32247  11.462   8.914  14.586  0.3126 -0.2266  0.0310
16779W        W32248   0.704   8.391  11.781 -0.4823  0.3466  0.0800
16780W        W32249   2.222   8.010  11.226  0.1185 -0.3079 -0.0056
16781W        W32250   6.676  15.328  13.015  0.1007 -0.0089 -0.4064
16782W        W32251  11.668  13.521   4.889 -0.1645  0.1375  0.1822
16783W        W32252   9.701  15.665  15.537  0.0188 -0.0975 -0.3660
16784W        W32253   3.091  11.350   3.805 -0.3668  0.0492 -0.2017
16785W        W32254   6.056   8.660   5.271 -0.1773 -0.1349  0.2475
16786W        W32255  13.210   2.901   1.486  0.1286 -0.0809 -0.1201
16787W        W32256  12.298   8.286   6.677 -0.3661 -0.2179  0.0949
16788W        W32257  16.170  17.930  14.612  0.0509 -0.2389 -0.1873
16789W        W32258  15.358   1.532  14.530 -0.0900 -0.0906  0.0222
16790W        W32259   6.926  15.846   0.621  0.1566  0.1808 -0.0103
16791W        W32260   8.711  10.722   1.463 -0.0834 -0.0512  0.2615
16792W        W32261   7.165  12.432  15.969 -0.0836 -0.0085  0.1875
16793W        W32262   5.097   0.630  11.733  0.2573  0.1601  0.0113
16794W        W32263  14.616   0.894   1.419  0.3384  0.3224 -0.1026
16795W        W32264  15.428  18.117   3.998  0.1265  0.1099  0.0548
16796W        W32265  12.166  14.571   2.931  0.1151  0.3820 -0.1322
16797W        W32266   9.779   4.455   1.936  0.2435 -0.2442 -0.4083
16798W        W32267   7.550   2.797  13.133 -0.0364 -0.0869  0.0007
16799W        W32268   6.167  14.143   6.100  0.1049 -0.3743  0.2792
16800W        W32269   6.886   0.219  15.875  0.0759 -0.4167 -0.0301
16801W        W32270   6.690   5.001   4.520 -0.2121 -0.0995  0.4165
16802W        W32271   9.697  10.542  11.534  0.0875 -0.0247  0.1675
16803W        W32272  15.744  11.090   1.806  0.0084 -0.0334 -0.1670
16804W        W32273   4.061   8.635   0.908  0.2129  0.0552 -0.1412
16805W        W32274  14.550  11.225  13.477 -0.2488  0.0316 -0.1098
16806W        W32275   5.166   3.623   1.450  0.0193 -0.1143 -0.1041
16807W        W32276   4.250   8.157  13.474  0.0978 -0.0623  0.0031
16808W        W32277   9.716   6.313   2.121  0.0754 -0.3585  0.0106
16809W        W32278   8.611   1.731   3.729 -0.0273 -0.2280 -0.1405
16810W        W32279   3.539   3.151  11.290 -0.1529  0.5688 -0.1649
16811W        W32280  13.720   0.977   1.333  0.3216 -0.0026 -0.0776
16812W        W32281   8.734   0.540  12.848 -0.1729  0.1603  0.0963
16813W        W32282   1.838   6.410  16.082 -0.1885  0.2013  0.2446
16814W        W32283   2.807  16.416  14.388 -0.1686  0.2666 -0.1626
16815W        W32284   5.275   5.393   3.235  0.3360 -0.2078 -0.2116
16816W        W32285   0.682   8.053   2.938  0.0603 -0.1488  0.1907
16817W        W32286   7.957   1.152  11.030 -0.2736  0.1821  0.4179
16818W        W32287  14.195  10.392   1.931 -0.1393  0.3113  0.1881
16819W        W32288  12.591   5.920   3.281  0.0497  0.0811  0.0304
16820W        W32289   3.711   3.679   1.167 -0.0715 -0.0758 -0.0843
16821W        W32290  16.471  11.270   1.040  0.0844  0.0874  0.0321
16822W        W32291  14.045  18.239  16.074  0.0713  0.1916  0.1718
16823W        W32292  17.638   7.480   1.120 -0.0632  0.0688  0.2937
16824W        W32293   6.014  16.887   5.931  0.1059 -0.0513  0.3079
16825W        W32294  14.474   6.033  11.984  0.1127 -0.0711 -0.1913
16826W        W32295   2.958  16.672   5.229 -0.1231 -0.2592  0.2242
16827W        W32296   1.799   1.351   4.250  0.2247  0.4046 -0.0084
16828W        W32297  15.309  10.929   1.381  0.1445 -0.1414 -0.1645
16829W        W32298   8.786   2.609   1.392  0.0929  0.0457 -0.2525
16830W        W32299   0.810   9.995   0.218  0.0658  0.1374 -0.1061
16831W        W32300  10.548   2.812   6.243 -0.1143 -0.0198 -0.0050
16832W        W32301   1.240  17.680  10.593  0.3719  0.2156  0.0111
16833W        W32302  16.188   6.973  11.320  0.1872 -0.2365 -0.0151
16834W        W32303   9.465   4.443   0.642 -0.5297 -0.2299  0.0092
16835W        W32304   2.181  11.365   1.320  0.0896 -0.3641 -0.1998
16836W        W32305  16.061  15.841   2.306  0.2675 -0.0873 -0.2012
16837W        W32306  17.187  12.468   0.059 -0.0749 -0.1560  0.1678
16838W        W32307  11.357  11.691   3.106  0.1394 -0.0869  0.4264
16839W        W32308  13.952  13.888   1.900  0.1385  0.1983 -0.1292
16840W        W32309   1.234   4.457  10.857 -0.2243  0.0379  0.1176
16841W        W32310  14.206   7.850   4.683 -0.2323 -0.2288 -0.3293
16842W        W32311   6.094  17.004   5.059 -0.0833  0.0060  0.2115
16843W        W32312  15.863  14.530   4.888 -0.0106  0.0885  0.1835
16844W        W32313   5.056   0.757   5.039 -0.1700 -0.0599 -0.1440
16845W        W32314   3.839   1.403  12.687  0.3685  0.0738 -0.1802
16846W        W32315   3.906  16.838  13.743  0.0309  0.1512 -0.0169
16847W        W32316   9.300  15.670  13.131  0.2198  0.1005 -0.2364
16848W        W32317  16.038   1.681   5.162  0.0613  0.0423 -0.0994
16849W        W32318  15.602  15.743  13.294  0.0139 -0.1587  0.0980
16850W        W32319   5.035  11.164  14.134 -0.2484  0.2616  0.1259
16851W        W32320  16.973  17.406   1.606 -0.1692 -0.2206  0.2709
16852W        W32321   4.950  11.290  11.833 -0.4309  0.3620 -0.1162
16853W        W32322  17.943   1.635   2.156 -0.3659 -0.2564 -0.0604
16854W        W32323   4.530   5.551   2.545  0.2941  0.0204 -0.0024
16855W        W32324   5.175  12.526   4.475  0.2533  0.0570 -0.0601
16856W        W32325  14.707  14.832   2.559  0.2396 -0.0214  0.2154
16857W        W32326   1.465   4.329   2.304  0.2756  0.1632  0.0120
16858W        W32327   3.116   1.677   3.298  0.3223 -0.1558 -0.1906
16859W        W32328  17.484   9.218   1.804  0.1674  0.0219 -0.0809
16860W        W32329  16.344   2.168  11.808 -0.0305  0.0870 -0.2517
16861W        W32330  16.016   2.353  15.154 -0.0480 -0.0319  0.0299
16862W        W32331   3.769   5.161  11.886  0.2039  0.1157  0.1516
16863W        W32332   5.207   9.193   3.473  0.2952  0.2555 -0.0492
16864W        W32333  14.838  11.772   5.118  0.3409  0.1568  0.2184
16865W        W32334   1.044   9.698   2.985 -0.3382 -0.4765  0.4113
16866W        W32335   6.588  11.913   3.798 -0.1384 -0.0806  0.3568
16867W        W32336   6.534   2.508  15.421 -0.2626 -0.0295 -0.1914
16868W        W32337  16.313   9.119  16.055 -0.1662 -0.2202  0.0525
16869W        W32338  14.228   1.663   2.532 -0.1048  0.0892  0.0156
16870W        W32339   6.179  14.538  13.082  0.2141 -0.2473  0.2255
16871W        W32340  14.143  17.583  11.130 -0.1126  0.1642  0.1518
16872W        W32341  14.359  15.659  14.024  0.3301  0.2601  0.1683
16873W        W32342   5.145  17.720   0.845  0.0494 -0.2224  0.0914
16874W        W32343   3.853   2.337  11.537  0.1300  0.2198 -0.1729
16875W        W32344   5.424  10.967   1.248 -0.0395 -0.0766  0.0377
16876W        W32345   7.808  11.620   2.728  0.0310 -0.0002 -0.1169
16877W        W32346   5.380  13.183   3.682  0.0688  0.2296 -0.0589
16878W        W32347   5.535   6.232   1.833  0.1898  0.0342  0.2180
16879W        W32348  15.849   2.111   2.561 -0.0993 -0.2806 -0.0233
16880W        W32349  11.605   5.802   0.961  0.2100 -0.1403  0.3794
16881W        W32350   7.175  12.620  13.318 -0.1624 -0.0561 -0.2847
16882W        W32351  14.204   6.243   3.566 -0.1466 -0.0759 -0.1141
16883W        W32352  11.223   9.349  16.071  0.0162  0.0143 -0.1618
16884W        W32353   2.817   1.232  10.112 -0.0722  0.1409  0.0387
16885W        W32354  15.539  13.837  11.942  0.1431  0.1239 -0.3191
16886W        W32355  10.409  14.941  11.868 -0.3475  0.1855 -0.1466
16887W        W32356  16.569  15.598   4.995 -0.2252  0.1147  0.4585
16888W        W32357  12.415  12.036  14.239  0.0923  0.1189  0.1259
16889W        W32358   2.576   8.873  15.220 -0.1685 -0.0178 -0.0950
16890W        W32359   5.157   7.772   4.788  0.1434 -0.0508  0.0747
16891W        W32360  11.192   8.822   2.817  0.2095 -0.0559  0.0392
16892W        W32361   9.184  10.546   2.310 -0.1933  0.0606 -0.0422
16893W        W32362   1.091   5.882  15.726 -0.1040  0.0763 -0.0406
16894W        W32363   4.055   8.427  15.206  0.1127  0.2136 -0.3095
16895W        W32364  13.160   8.142   0.997 -0.2381  0.0417  0.0538
16896W        W32365   8.102   6.607   3.506 -0.0234  0.0624  0.3252
16897W        W32366   6.165   4.962  10.314  0.0874 -0.0065  0.1354
16898W        W32367   8.648   8.473   4.662  0.1405 -0.2207 -0.0052
16899W        W32368  12.273   5.700  15.246 -0.1619  0.0758 -0.0931
16900W        W32369  16.639   9.773   3.265  0.2825  0.2577 -0.0570
16901W        W32370  11.981  17.354  15.300  0.0428  0.2316  0.0588
16902W        W32371  11.186   7.949   0.847 -0.0529  0.0094  0.1183
16903W        W32372   2.037  13.704   5.001 -0.2709 -0.1736 -0.0359
16904W        W32373   8.221  10.572  11.939 -0.0506  0.0229  0.1198
16905W        W32374   1.418  15.044  13.136  0.0715  0.2253  0.0386
16906W        W32375   6.204   5.636   3.260 -0.0005 -0.3392  0.1985
16907W        W32376   3.238  15.745   2.137 -0.1397 -0.2001 -0.2027
16908W        W32377   4.799  13.404   4.379  0.0391  0.0665  0.0933
16909W        W32378   2.763  14.890  14.538 -0.0610  0.1384  0.0994
16910W        W32379   6.886  11.614  10.897 -0.0118 -0.1229  0.0949
16911W        W32380  18.093   1.085   1.847 -0.0211  0.3540 -0.1598
16912W        W32381   7.335   8.270  12.852  0.1810 -0.2469 -0.0763
16913W        W32382  15.118  13.203  12.933 -0.2476  0.2999 -0.1051
16914W        W32383  12.355   1.465  15.749 -0.2411 -0.1373  0.1059
16915W        W32384   5.558  14.685  15.125  0.4219 -0.0290  0.3389
16916W        W32385   8.154  14.779   5.156 -0.0949  0.0312 -0.2416
16917W        W32386  10.513   5.263  15.424  0.0886 -0.0005 -0.1571
16918W        W32387  11.950  17.017  11.693 -0.1028  0.0884  0.4258
16919W        W32388  17.629   6.103   0.145 -0.0157 -0.0098 -0.1491
16920W        W32389   1.845   7.000  12.980 -0.3007 -0.0876 -0.0603
16921W        W32390  16.851   2.061   1.260  0.2049 -0.1495 -0.1177
16922W        W32391  17.879   0.200   4.710 -0.1136 -0.0913  0.2212
16923W        W32392   2.442   0.964   2.673  0.1462  0.2914 -0.1144
16924W        W32393  11.884  10.528   0.037 -0.0632 -0.2346  0.0167
16925W        W32394   7.095   4.924   2.646 -0.0301  0.2450 -0.0924
16926W        W32395  17.537   6.640  15.295 -0.0407 -0.0566 -0.0453
16927W        W32396   6.862   7.821   4.079  0.2367 -0.0739  0.1672
16928W        W32397  14.494  18.097   3.870 -0.1303 -0.3334  0.0405
16929W        W32398   7.581   5.366  13.475  0.3333  0.1123  0.5280
16930W        W32399   0.269   3.953   1.072 -0.0759 -0.1403 -0.1745
16931W        W32400   5.750  17.835   9.498  0.1239  0.0349  0.1590
16932W        W32401   3.810   2.262   1.280  0.2336 -0.0359  0.2315
16933W        W32402  10.478  15.809   2.527 -0.1498  0.1281  0.1904
16934W        W32403   0.250  10.189  12.477  0.1350 -0.2264 -0.0322
16935W        W32404   3.717  11.918  15.442  0.2076  0.0010 -0.2302
16936W        W32405  18.089  17.751   0.832 -0.0651 -0.0184  0.1341
16937W        W32406  11.914  11.764   0.664  0.1259  0.4809 -0.1595
16938W        W32407  15.236   6.221  10.282  0.2094  0.0276  0.0636
16939W        W32408   5.407   3.258   4.682  0.1652  0.0625 -0.2030
16940W        W32409   8.240  15.998  12.591  0.0653 -0.0108  0.0233
16941W        W32410   8.418  13.888   0.558 -0.2012  0.0043 -0.1956
16942W        W32411   4.140  11.242   5.383  0.1503  0.5131 -0.0404
16943W        W32412  11.972  11.833   0.080 -0.0790  0.0105  0.2507
16944W        W32413   9.702  11.425   4.286 -0.0337 -0.0538 -0.0232
16945W        W32414   2.911  13.461   5.301  0.2587 -0.0544 -0.0638
16946W        W32415  16.085   3.349  12.241  0.3604 -0.2717 -0.1080
16947W        W32416  17.224   8.586   2.877  0.0300 -0.0427 -0.0393
16948W        W32417  11.868   8.670   5.452  0.1499  0.2778  0.1252
16949W        W32418  12.338   3.118  15.303 -0.0837 -0.3733 -0.4411
16950W        W32419  16.362  11.173   2.981  0.1775  0.1620  0.1231
16951W        W32420  13.468  14.190  11.756 -0.4103  0.2158 -0.1270
16952W        W32421   6.825  16.917  12.697 -0.2431 -0.0278  0.1173
16953W        W32422  13.394  15.335   5.447 -0.1189  0.0242 -0.0746
16954W        W32423  16.253  10.152  13.540 -0.0659  0.2976  0.2924
16955W        W32424   4.308  16.641   4.048 -0.0421 -0.0320  0.2836
16956W        W32425   4.310   3.002  10.178 -0.1503  0.1282  0.0864
16957W        W32426   2.625  16.540  12.128  0.0609  0.3969 -0.0967
16958W        W32427  16.539  15.724  15.755  0.0634 -0.0467 -0.2568
16959W        W32428  17.254  17.882  12.801  0.0892  0.3888  0.0883
16960W        W32429  11.623  14.011   1.385  0.0410 -0.2348 -0.0195
16961W        W32430  10.621   2.251   5.406  0.1165 -0.0617  0.1882
16962W        W32431   8.073   1.647  15.565  0.0515 -0.0895 -0.0229
16963W        W32432   2.975   5.022   1.190 -0.1857 -0.0408  0.0016
16964W        W32433   5.433  17.583  13.863  0.1314  0.1658 -0.0874
16965W        W32434  11.957   2.823  13.319 -0.0137  0.1092  0.0643
16966W        W32435  13.273   1.160  15.500  0.0885  0.0550 -0.0973
16967W        W32436   1.914  11.108   3.813  0.4381 -0.1148 -0.1632
16968W        W32437  11.713   7.713  15.298  0.3361 -0.0362  0.0017
16969W        W32438  16.234  13.793   3.084  0.0315  0.0648  0.2591
16970W        W32439  16.986  13.200   1.174 -0.0691  0.1081 -0.5833
16971W        W32440   0.372  17.975  10.210 -0.3708  0.1322 -0.0904
16972W        W32441   7.859  12.039  11.325  0.0414 -0.1576  0.1686
16973W        W32442  14.807  15.611  12.879 -0.0412  0.1248  0.0578
16974W        W32443  12.786  14.555   2.477  0.3405 -0.1752 -0.2431
16975W        W32444  11.428   6.674  10.896  0.1563  0.1341 -0.5596
16976W        W32445  12.970   5.001   5.827  0.1544 -0.0042 -0.2235
16977W        W32446   9.258  17.130   5.556 -0.1716 -0.1420 -0.0953
16978W        W32447   0.782   0.915  11.307  0.0531  0.1790 -0.0654
16979W        W32448   1.815   2.674  11.123  0.0124 -0.0721 -0.1176
16980W        W32449  14.639   1.435   4.044 -0.1101 -0.0393  0.0763
16981W        W32450   9.598  12.770  10.033  0.2044  0.1763 -0.0315
16982W        W32451  15.910   8.087   0.704 -0.1857 -0.0219  0.1072
16983W        W32452  18.159   9.221  15.714  0.0813  0.1593 -0.4236
16984W        W32453  18.012  13.885  13.274 -0.0745 -0.0185 -0.0560
16985W        W32454  11.106   9.487  12.825  0.0013 -0.2533  0.0275
16986W        W32455   7.820  17.160   1.275  0.1301 -0.0752 -0.0398
16987W        W32456   2.845   9.086  10.045  0.1541  0.1965  0.1041
16988W        W32457  16.397   6.694  12.874 -0.1574  0.1743 -0.0850
16989W        W32458   0.413   1.602   3.464 -0.0137  0.2838  0.2537
16990W        W32459   5.830   9.003   5.559 -0.1137 -0.0648  0.2955
16991W        W32460   1.190   3.954   3.076 -0.0270  0.0057  0.2941
16992W        W32461   7.453  11.513   1.543 -0.0617 -0.0605 -0.1262
16993W        W32462  18.129   7.790  10.256 -0.0781  0.0199 -0.1118
16994W        W32463  16.507  17.016   0.786  0.2917  0.0945 -0.0388
16995W        W32464   5.629   5.533   0.695 -0.1045 -0.0073 -0.0998
16996W        W32465   5.217   3.182  15.235 -0.2040 -0.1365  0.0467
16997W        W32466  14.134   0.559   0.019  0.1160 -0.0860  0.1558
16998W        W32467  13.254  11.943   5.538 -0.1795 -0.2042  0.2537
16999W        W32468  14.838   6.516  10.248 -0.2255 -0.1390  0.1465
17000W        W32469  14.594  14.902   3.385 -0.3562  0.1062 -0.2359
17001W        W32470  11.756  13.011   1.965 -0.0710  0.1224  0.2253
17002W        W32471  13.031  11.698  13.065  0.0011  0.3468 -0.1402
17003W        W32472   3.877   2.782   1.313  0.0776  0.1370 -0.1611
17004W        W32473  13.302   7.523   4.873  0.0266 -0.2387  0.0782
17005W        W32474   7.039  14.068  11.413 -0.0966 -0.0762  0.0586
17006W        W32475   0.676   0.852  10.654  0.0512  0.3226  0.1703
17007W        W32476  11.904   4.563  12.830 -0.1054 -0.0484 -0.1676
17008W        W32477   5.589  11.848  12.189  0.1453 -0.0722  0.1949
17009W        W32478   7.775  15.955  12.187 -0.4730  0.2623 -0.1604
17010W        W32479  11.589  10.390   1.682 -0.1465 -0.0145  0.0889
17011W        W32480   9.352   7.613  13.814 -0.1390  0.0666 -0.0250
17012W        W32481  14.244  10.848   2.866 -0.0135  0.0608 -0.3227
17013W        W32482  10.062   2.096   1.664 -0.1769 -0.1406 -0.0615
17014W        W32483   1.501   6.327  14.017  0.0274 -0.1826  0.0838
17015W        W32484   0.863  16.709  13.399  0.1740  0.0775 -0.3447
17016W        W32485  12.253   3.242  13.952 -0.0685 -0.3957  0.0555
17017W        W32486   6.119  11.310  14.487  0.2328  0.0087  0.1605
17018W        W32487   9.985  13.898  11.423 -0.1438 -0.0781 -0.1878
17019W        W32488  13.360   1.636   2.059 -0.1070 -0.3372  0.2551
17020W        W32489  14.087   3.585  11.625 -0.0339  0.0366  0.2835
17021W        W32490   3.555   8.611  10.543 -0.0347  0.0312 -0.1680
17022W        W32491  12.745  11.733   1.415 -0.0638 -0.0749  0.2548
17023W        W32492   7.733   4.097   2.562  0.2082 -0.1327  0.1330
17024W        W32493  15.112  14.610  12.838 -0.0156 -0.3037 -0.1541
17025W        W32494  13.429   8.227  13.948 -0.1260 -0.1135 -0.0424
17026W        W32495  14.199  18.030  12.534  0.0484 -0.0147  0.1419
17027W        W32496  13.454  17.955  14.971 -0.1405 -0.1353 -0.1833
17028W        W32497  10.274  12.157  14.614 -0.1896 -0.2933 -0.2479
17029W        W32498  13.872   1.847   4.354  0.2001  0.1787  0.0673
17030W        W32499   6.006   1.234   3.092  0.0621  0.1585 -0.2232
17031W        W32500   0.506   8.504   3.753  0.0697 -0.2550  0.0406
17032W        W32501  10.726  12.444  12.439 -0.2945 -0.0111  0.1058
17033W        W32502   0.404   8.486  10.557 -0.1562 -0.0523  0.0029
17034W        W32503  11.422   3.656   3.596 -0.1925 -0.2070  0.2028
17035W        W32504   8.103   0.302   2.427 -0.0348  0.1005 -0.2082
17036W        W32505  11.404   0.855   1.581  0.0040 -0.1422  0.3722
17037W        W32506  11.471   4.079   4.355 -0.3266 -0.0319  0.3250
17038W        W32507   2.634   9.244  12.223 -0.0403  0.0186 -0.0756
17039W        W32508  12.566  16.858  11.746  0.1930  0.2257  0.3153
17040W        W32509   4.466  16.307  15.316  0.1203  0.2111  0.0569
17041W        W32510  11.128  13.934  15.385  0.3188 -0.0089 -0.1999
17042W        W32511   8.115   3.749   3.731  0.2605 -0.1322  0.0459
17043W        W32512   3.956   3.840   2.746  0.1243  0.0821 -0.2049
17044W        W32513   3.770   1.619   1.250  0.2999 -0.2643  0.0530
17045W        W32514   1.412  15.319   3.232 -0.0934  0.0713  0.1081
17046W        W32515   5.813  13.647  14.538 -0.1403  0.3892 -0.1218
17047W        W32516   9.293   7.619  11.606 -0.1465  0.2636 -0.1550
17048W        W32517   1.242   6.604  11.776  0.1944 -0.0499  0.1798
17049W        W32518  15.970   2.806  15.453 -0.0955 -0.0890  0.0887
17050W        W32519  17.343  13.077  11.954  0.1176  0.0184  0.0942
17051W        W32520  14.810   6.248   1.598  0.2254  0.2825  0.1194
17052W        W32521   3.811   4.298  15.931 -0.2842 -0.3565 -0.0192
17053W        W32522   2.421   4.092  11.247 -0.1950 -0.1017  0.0584
17054W        W32523   4.139   0.448  13.699  0.0262 -0.0127  0.1916
17055W        W32524   6.188   3.237  10.943 -0.2902  0.2747  0.2137
17056W        W32525  17.097  10.529  12.005  0.0490 -0.1395  0.0675
17057W        W32526  14.665   5.008  11.772 -0.1154 -0.3145  0.2086
17058W        W32527  17.462  16.025  11.095 -0.0317  0.2947 -0.2376
17059W        W32528   6.349   1.749  13.881 -0.1712 -0.1272 -0.2089
17060W        W32529  13.007  11.550  15.493 -0.0233  0.2889 -0.1027
17061W        W32530  14.229  14.573   0.300  0.1811 -0.2380  0.0771
17062W        W32531  15.434  11.177   3.814  0.1390 -0.0669  0.2960
17063W        W32532  15.923  10.539   4.924 -0.1805  0.2065 -0.0675
17064W        W32533   2.312   1.785  11.456  0.0887  0.0222  0.2524
17065W        W32534  15.255  14.438   3.726 -0.1711 -0.0569 -0.1055
17066W        W32535   0.401   8.150   0.974  0.3692  0.0404  0.2194
17067W        W32536   8.733   7.186   1.029 -0.0067  0.0487 -0.3787
17068W        W32537  15.113  14.528   4.622  0.1264  0.2861  0.2441
17069W        W32538   7.758   8.031   4.679 -0.1162  0.1052 -0.2448
17070W        W32539  12.389   7.890  14.763  0.0689  0.0124  0.0265
17071W        W32540  13.509  17.855  11.909 -0.1980 -0.2508 -0.1764
17072W        W32541   8.201  11.861   1.854 -0.2802 -0.0143  0.3986
17073W        W32542   9.584   0.931   3.575  0.1092 -0.1044  0.0185
17074W        W32543   4.749   3.763   4.289 -0.2864 -0.0971  0.1109
17075W        W32544  10.996   8.534  12.298  0.0407  0.0844 -0.0663
17076W        W32545  18.240  17.194   1.772  0.0563  0.2798  0.2101
17077W        W32546  13.277   8.398   5.404 -0.0643 -0.2105  0.1328
17078W        W32547   4.295   7.220  11.488 -0.1589  0.2496  0.2651
17079W        W32548  15.050   3.084   2.236  0.0951 -0.2236 -0.0524
17080W        W32549   6.346  11.517   5.071 -0.4211  0.0247  0.1949
17081W        W32550  10.041   7.364   0.638  0.0286  0.1106  0.1358
17082W        W32551  13.082  12.413  15.377 -0.1596 -0.1956 -0.0147
17083W        W32552   8.416  13.309   3.738 -0.1223 -0.0985 -0.2044
17084W        W32553  17.178  14.062   0.117  0.1347  0.4160  0.2208
17085W        W32554   6.198  13.314  12.197  0.0097 -0.2288 -0.0223
17086W        W32555  14.060  16.435  14.751  0.0690  0.1107 -0.1431
17087W        W32556  13.695  16.900  15.497 -0.2429 -0.0723 -0.0799
17088W        W32557  12.393  16.497   0.713 -0.1431 -0.1290 -0.0531
17089W        W32558   6.414   8.685   3.779  0.2508 -0.0910 -0.1152
17090W        W32559  17.163   4.102   0.161 -0.0948  0.2748 -0.0740
17091W        W32560   9.382  17.616  14.351  0.1318 -0.0720 -0.4319
17092W        W32561   6.984   9.569  15.028  0.2195 -0.0752 -0.0817
17093W        W32562   7.450  16.373   0.896  0.4121 -0.2025  0.4088
17094W        W32563   2.696   6.991  13.500  0.0123  0.1754 -0.1011
17095W        W32564   2.403   2.397   6.162  0.1651  0.0594  0.1653
17096W        W32565  17.013   6.164  14.849 -0.0943  0.1736  0.0872
17097W        W32566   3.937   3.429  15.905 -0.0428 -0.2143 -0.0212
17098W        W32567  11.726  13.941   1.861  0.2081  0.1146  0.1249
17099W        W32568  10.790   7.280   0.113 -0.1055  0.1365  0.1011
17100W        W32569  12.353   7.077   3.285 -0.1323 -0.3202  0.1417
17101W        W32570   7.014   5.624   1.642  0.1376 -0.0922 -0.0754
17102W        W32571   0.332  14.747  11.221  0.2290 -0.1836  0.0005
17103W        W32572   6.541   8.986   1.789 -0.2030 -0.0184 -0.1095
17104W        W32573   5.293  18.269  15.676 -0.2459 -0.4547  0.1244
17105W        W32574   1.135   4.230   2.643  0.2274  0.0138 -0.0988
17106W        W32575  17.444   2.691  14.222 -0.0264  0.1390  0.3314
17107W        W32576  13.506   4.516   3.257  0.0265 -0.2478 -0.3260
17108W        W32577  10.886  10.353  14.051  0.0439 -0.1752  0.1052
17109W        W32578  10.560  13.460  11.186 -0.2111  0.1203 -0.3868
17110W        W32579   4.457   9.723   2.570 -0.1153 -0.1688  0.2373
17111W        W32580  16.701   4.309  12.591 -0.0998 -0.1550  0.2336
17112W        W32581  17.348  11.672  11.723  0.0275  0.0758  0.1042
17113W        W32582   2.629   8.259  11.412  0.1168 -0.1802  0.1001
17114W        W32583   4.430   6.178   3.724 -0.0913 -0.1017  0.1806
17115W        W32584   1.469   9.850  15.086  0.0495  0.2054 -0.1867
17116W        W32585  11.756   7.711  14.694 -0.4525 -0.2456 -0.1590
17117W        W32586   7.337   6.038  14.720 -0.1059 -0.0391 -0.3215
17118W        W32587  14.503   9.290   4.424 -0.0480  0.0384  0.3615
17119W        W32588  16.896   1.512   2.268 -0.2212 -0.1926 -0.0840
17120W        W32589   4.026   1.545   5.190  0.1248  0.0562 -0.2270
17121W        W32590   8.466  13.356   1.689 -0.2056  0.0555 -0.2610
17122W        W32591   8.769  17.009   1.417 -0.1973 -0.0954 -0.1380
17123W        W32592  15.178   3.658   0.856 -0.0426  0.2532 -0.0580
17124W        W32593   2.513   6.324   5.755 -0.4189 -0.1380  0.0387
17125W        W32594  11.336   2.750   2.591  0.1808  0.0888  0.0088
17126W        W32595  12.294  17.173  13.019  0.2774  0.0500 -0.0628
17127W        W32596   7.393  14.372   2.905 -0.0092 -0.1609 -0.3399
17128W        W32597  15.973   5.718   2.094  0.1372 -0.1236  0.0146
17129W        W32598   8.847   0.290  12.258  0.5360  0.0848 -0.1976
17130W        W32599   2.271   4.341  15.261 -0.2255  0.1821 -0.1096
17131W        W32600   8.110   8.561   2.895  0.1513 -0.0401 -0.0564
17132W        W32601   4.724   3.211  14.432 -0.0577  0.0179  0.1048
17133W        W32602   3.467   6.227   3.449  0.1602  0.0928 -0.1456
17134W        W32603   6.917  15.241   4.409  0.1343  0.0277  0.0545
17135W        W32604   7.915  15.575  13.137 -0.1446 -0.1818  0.4042
17136W        W32605   0.165  10.427  14.550 -0.1233  0.0521  0.0809
17137W        W32606  17.892   9.547   1.883 -0.0619  0.0496  0.1647
17138W        W32607   7.699   4.653   4.447 -0.1109 -0.0059  0.1738
17139W        W32608   5.168   8.936   1.123 -0.1231  0.1183 -0.0763
17140W        W32609   3.471   9.281  13.184 -0.0764  0.2858  0.2365
17141W        W32610  14.495  13.170   1.795 -0.0818 -0.1977  0.0439
17142W        W32611  12.938   8.090  11.849 -0.1436 -0.3507  0.2200
17143W        W32612   9.666   0.720   1.707  0.0786 -0.1815  0.1415
17144W        W32613  12.476  16.839   5.836  0.1096 -0.0194  0.1221
17145W        W32614   3.167  17.425   2.590  0.1566  0.1642  0.0349
17146W        W32615  16.456   5.723   4.107  0.0353 -0.1314  0.0341
17147W        W32616   1.525  16.443  12.620 -0.0477 -0.0774  0.2952
17148W        W32617  16.749  17.577  15.671 -0.0775 -0.0827 -0.0510
17149W        W32618  12.595   6.899   4.162 -0.2389 -0.0639 -0.0357
17150W        W32619  14.128  16.420   2.778  0.0644  0.1405  0.1480
17151W        W32620   2.341  10.166  10.919 -0.1703 -0.2259  0.1199
17152W        W32621  10.736   5.593   1.449 -0.1587 -0.0822  0.0311
17153W        W32622  14.325   0.625  12.742 -0.0094 -0.1674  0.1232
17154W        W32623  17.677   8.856  15.472 -0.0890  0.1961  0.1689
17155W        W32624  12.737   7.141   5.594 -0.2019 -0.0084 -0.4466
17156W        W32625  15.482   0.479   1.779 -0.0853  0.0706 -0.0227
17157W        W32626   6.650   9.105  12.427 -0.0635 -0.1435 -0.0285
17158W        W32627  17.281  17.408   0.425 -0.0848 -0.6090  0.1025
17159W        W32628   4.233  14.841  11.255 -0.0893 -0.1687  0.2244
17160W        W32629  11.659   5.433   1.372  0.1308  0.2178 -0.2196
17161W        W32630   5.396  14.096  12.473 -0.1277  0.0069 -0.2961
17162W        W32631  15.656  11.093   0.980  0.0489  0.2603  0.0756
17163W        W32632   1.643   3.102  15.416 -0.0054  0.0348 -0.0790
17164W        W32633   8.599   0.478  10.920  0.0384  0.0099  0.0635
17165W        W32634   6.956   4.755   0.007  0.1226 -0.0807 -0.2253
17166W        W32635  12.894  13.882  15.988  0.0001 -0.1676  0.1851
17167W        W32636   7.099   7.270  12.533 -0.0279  0.0763 -0.1129
17168W        W32637  16.184  12.852   3.458 -0.1282 -0.2090  0.1441
17169W        W32638  17.289   4.959   1.563 -0.1468  0.1664 -0.0600
17170W        W32639   9.564  18.222   0.965 -0.0737 -0.1335  0.3387
17171W        W32640   1.326   2.937   0.759 -0.3096  0.4321 -0.2122
17172W        W32641   8.309   2.031  13.858 -0.1114 -0.1269 -0.1435
17173W        W32642   7.429  17.913   3.903 -0.0285  0.1048 -0.0678
17174W        W32643   1.401  14.182   5.128  0.1566 -0.1407 -0.2388
17175W        W32644   2.180   2.469  12.186 -0.2882 -0.1655 -0.0583
17176W        W32645   9.628  10.033   2.724 -0.0256  0.3901 -0.6078
17177W        W32646  15.183   4.158   3.581  0.0773 -0.2401 -0.2034
17178W        W32647  15.123  13.626  14.295  0.2340 -0.0869  0.0668
17179W        W32648   3.563   7.797   0.324  0.2945 -0.0616  0.0556
17180W        W32649   0.575  14.492   0.285 -0.0383 -0.0837  0.0776
17181W        W32650   3.792  12.931   2.883 -0.0493  0.0644 -0.0997
17182W        W32651  11.791   4.207   0.546  0.1193  0.0184 -0.1675
17183W        W32652   1.216   6.706  14.190  0.0410  0.1357 -0.0094
17184W        W32653  11.844   5.328  14.494  0.0366 -0.1071  0.2153
17185W        W32654   0.953   4.620  15.612  0.0550  0.0612  0.1402
17186W        W32655  17.460  16.429  15.518  0.2216  0.2516 -0.1679
17187W        W32656  10.118  13.433  14.260  0.2405  0.3622 -0.0698
17188W        W32657   6.419  15.400  10.905  0.0912  0.1255 -0.2861
17189W        W32658  13.775   7.130   2.881 -0.1839  0.0551 -0.1010
17190W        W32659   8.949  12.777   5.286 -0.0879 -0.1593  0.0030
17191W        W32660   8.133   3.791  13.754 -0.1653 -0.3032  0.0780
17192W        W32661   5.510  11.977   1.569 -0.0163 -0.4453  0.3947
17193W        W32662   1.266  11.092   2.819 -0.1876 -0.6002  0.0548
17194W        W32663  10.431   9.100   0.625  0.3764  0.0863 -0.0274
17195W        W32664   2.899   0.288   0.038  0.0072  0.0185  0.2120
17196W        W32665  14.590  14.664  10.707  0.0365 -0.0443  0.1144
17197W        W32666  13.556  15.021  15.942  0.1933  0.3557 -0.2022
17198W        W32667   5.130   2.780  12.955  0.2677  0.0197  0.2736
17199W        W32668   6.567  16.339   9.906 -0.1266  0.0162 -0.0417
17200W        W32669  15.986   2.402   1.989  0.0180 -0.0298 -0.1745
17201W        W32670   2.846   5.514   1.036 -0.1633  0.2843  0.2211
17202W        W32671  17.931   5.522   4.056 -0.0917  0.0465  0.0461
17203W        W32672   3.177  14.821  15.579 -0.1355  0.0496 -0.1811
17204W        W32673  14.573   3.668  12.515  0.1420 -0.2838  0.3098
17205W        W32674  10.794  17.897  13.606  0.3487  0.5006  0.2302
17206W        W32675  15.831   3.037   1.282 -0.2108  0.1781  0.0606
17207W        W32676   8.665  16.880   0.957  0.1584  0.1521 -0.1369
17208W        W32677   7.644   0.734  15.987  0.0680 -0.1583  0.0398
17209W        W32678   8.769  16.532   1.441 -0.0742  0.0545 -0.0413
17210W        W32679   5.257  14.963  12.549 -0.0008  0.0282  0.1407
17211W        W32680   3.786  16.935  15.903  0.2798  0.3273  0.1266
17212W        W32681  10.171   5.036  14.253 -0.0555  0.1371 -0.0974
17213W        W32682   8.899   2.123  15.337  0.0121 -0.0208  0.2662
17214W        W32683   7.442   5.257   2.856 -0.2071 -0.1259  0.1945
17215W        W32684  15.339  14.022   1.148 -0.1086  0.1006 -0.3782
17216W        W32685   3.953  10.637  13.345  0.1646  0.1885 -0.0341
17217W        W32686  13.265  17.000  10.626 -0.5232  0.0002 -0.4013
17218W        W32687  13.274  12.253   3.317 -0.0206 -0.1960 -0.0749
17219W        W32688   6.070   8.271  12.521 -0.3384  0.0965 -0.0249
17220W        W32689  17.483   9.816  13.512 -0.0342 -0.1978 -0.1898
17221W        W32690   2.758  10.767  13.204 -0.0305 -0.0628 -0.0773
17222W        W32691   7.037   0.501  11.742 -0.1364  0.1757 -0.2048
17223W        W32692   9.934  12.805  13.305 -0.2526 -0.0832  0.0810
17224W        W32693   1.617   4.323  11.627 -0.0928  0.1485 -0.2409
17225W        W32694   5.660  13.731   2.846 -0.1590 -0.0497  0.0155
17226W        W32695  12.494  11.817  13.310  0.0649 -0.0816  0.0475
17227W        W32696  16.946  16.453  16.065  0.1918  0.0852 -0.0837
17228W        W32697   7.226   1.808   0.100  0.0665  0.1736  0.0678
17229W        W32698   2.138   5.538  14.891  0.1420  0.0965  0.1064
17230W        W32699   1.403  17.584   1.345 -0.2784 -0.1869 -0.0036
17231W        W32700  10.787   2.928  15.937  0.1651  0.0287  0.1181
17232W        W32701  12.466  17.332  15.254  0.0382  0.3270  0.1304
17233W        W32702   8.265   1.287   1.623 -0.1836 -0.2390  0.0261
17234W        W32703  16.227  16.409   2.372 -0.2146  0.0296 -0.0718
17235W        W32704   3.529   3.858   5.615 -0.4602  0.1250 -0.2720
17236W        W32705   5.982   4.776  12.719  0.2507 -0.0997 -0.2498
17237W        W32706   0.174  16.239  12.673 -0.0949  0.3605  0.0769
17238W        W32707  11.613  11.423  13.411 -0.0623  0.0693 -0.0765
17239W        W32708  13.008   4.888  11.983  0.4079  0.0116  0.2310
17240W        W32709   6.694   2.840   9.926 -0.0313 -0.0714 -0.0675
17241W        W32710  11.907   3.229  13.558  0.2758 -0.6311 -0.0119
17242W        W32711   5.520  15.421   5.368 -0.0673 -0.0408  0.0544
17243W        W32712   1.462  13.415   4.024  0.0156  0.1264  0.1995
17244W        W32713   9.378   8.554   3.082  0.0184  0.1006 -0.0274
17245W        W32714   5.442  12.618   5.544  0.0343 -0.3853 -0.2120
17246W        W32715  15.243   8.822  12.932 -0.2559  0.0128 -0.2695
17247W        W32716  11.836   6.064   1.969  0.1272  0.0855  0.4635
17248W        W32717   8.356  16.526   4.771  0.1377 -0.5412 -0.0838
17249W        W32718  13.183   3.710  14.654  0.0696  0.2769 -0.1042
17250W        W32719   5.644  15.752   0.273  0.0413  0.0195 -0.2350
17251W        W32720   5.714   8.704   2.354  0.2746  0.4824  0.0890
17252W        W32721   3.811   6.108  14.772  0.1233 -0.0557  0.2838
17253W        W32722   8.003   5.682   3.230  0.1309 -0.0531  0.2527
17254W        W32723   7.154   8.645   4.556 -0.0404  0.0000  0.0588
17255W        W32724   2.116   0.568  11.766  0.0546  0.1412  0.3672
17256W        W32725   6.015   5.804  10.825 -0.0735  0.1405 -0.0710
17257W        W32726   1.609   2.310  12.337 -0.3379 -0.0151 -0.1808
17258W        W32727   1.178  10.422  15.149 -0.0354 -0.0356 -0.0783
17259W        W32728   0.969   2.967   1.809 -0.1446 -0.0023  0.0333
17260W        W32729  10.114   8.364  12.428  0.4185  0.0069 -0.3659
17261W        W32730   3.166   0.071  11.729 -0.1804  0.0104  0.0424
17262W        W32731   2.567   3.813   0.064 -0.1659  0.2093  0.3016
17263W        W32732  13.190   2.754  13.190  0.0874 -0.2484 -0.1802
17264W        W32733  15.524   1.571   1.875  0.0054 -0.1388 -0.1760
17265W        W32734   2.547  10.297  14.784  0.0960 -0.0365  0.0103
17266W        W32735   8.129   4.717   4.730 -0.1404  0.1624 -0.2247
17267W        W32736  17.911   2.618   2.662 -0.1857  0.3690  0.0305
17268W        W32737  11.189   1.292   3.128  0.0954 -0.2230 -0.0072
17269W        W32738   3.757  11.193  15.542  0.1057 -0.1177 -0.1115
17270W        W32739  13.975   2.382  14.575 -0.1432 -0.0987  0.0156
17271W        W32740  15.913  13.542  14.067 -0.1814 -0.3161  0.0180
17272W        W32741   7.738   1.713  11.017 -0.0072 -0.1518 -0.0769
17273W        W32742   5.766   4.665  10.616 -0.1542 -0.1131  0.4257
17274W        W32743   2.104  17.357   4.575  0.3147 -0.0159  0.0153
17275W        W32744  17.588   4.564   4.479  0.1688 -0.0478 -0.1322
17276W        W32745   9.638   6.302   5.707 -0.1702 -0.0952  0.0032
17277W        W32746  17.038   3.024  12.355 -0.0757 -0.3352 -0.1758
17278W        W32747   3.682  12.506   6.066  0.1715  0.2336  0.1607
17279W        W32748  13.075  13.114  16.080  0.0662  0.2173 -0.0117
17280W        W32749   2.696  10.683   2.621  0.2228  0.1066 -0.3144
17281W        W32750   1.608  12.962   2.828  0.0234  0.1090  0.1054
17282W        W32751  13.893   4.061  13.071 -0.0209 -0.2850 -0.0040
17283W        W32752  13.280   4.606  12.416  0.2371  0.0580  0.0421
17284W        W32753   8.819  15.051   1.817  0.1018  0.0722  0.2728
17285W        W32754   8.856   4.210  11.459  0.1509  0.1678  0.1732
17286W        W32755   9.735  16.068  14.516  0.0625  0.1921 -0.1091
17287W        W32756  16.066   1.190   3.533  0.3951  0.2215  0.0910
17288W        W32757   3.752  14.177  11.521 -0.2561  0.0605 -0.1660
17289W        W32758   3.865   0.634  10.958  0.1887  0.1906  0.0360
17290W        W32759  16.248  12.224  13.518 -0.1724  0.1240 -0.0932
17291W        W32760   7.622   0.886   4.453 -0.5256 -0.0701  0.0011
17292W        W32761  17.349   9.217  15.386 -0.1124 -0.1879  0.2046
17293W        W32762  13.521  15.034  14.177 -0.1297 -0.0956  0.1389
17294W        W32763   2.572   6.998  14.474  0.3425 -0.2072 -0.0193
17295W        W32764   9.686  13.953  15.603  0.0327  0.1035  0.0930
17296W        W32765  13.790   7.654   5.002 -0.0401 -0.3496 -0.1272
17297W        W32766  14.106  16.240   4.921  0.1023 -0.3026 -0.0603
17298W        W32767  16.706   1.606   3.078 -0.3064 -0.1651  0.2302
17299W        W32768  11.794  11.450  15.699 -0.0696  0.2400 -0.0187
17300W        W32769   4.771  12.401   1.224 -0.3232  0.0052  0.0087
17301W        W32770  17.157  16.607  11.886 -0.1461 -0.3096 -0.0172
17302W        W32771   6.060   9.767  15.495 -0.4634  0.1117 -0.2886
17303W        W32772   5.293  12.785  14.941 -0.1393  0.0153  0.1176
17304W        W32773   9.406   1.844  12.451  0.0036  0.1755  0.2296
17305W        W32774   7.901  14.384  11.381 -0.2539  0.0516  0.0724
17306W        W32775   6.719   3.289   5.861 -0.2075  0.1620 -0.2025
17307W        W32776  16.028   7.738   5.373  0.3574 -0.0416 -0.1352
17308W        W32777  14.413  15.975   5.674 -0.1088  0.0874  0.2985
17309W        W32778   7.942  17.445  14.978 -0.0789 -0.1185 -0.0816
17310W        W32779  15.272   0.599  11.769  0.0404  0.2735 -0.3485
17311W        W32780  12.157  14.076   5.206  0.3357 -0.0930  0.0710
17312W        W32781  12.167   7.852   4.951  0.0093  0.0049 -0.1300
17313W        W32782  15.858   6.703  14.570 -0.0549 -0.0075 -0.1080
17314W        W32783  10.539   0.523   1.672 -0.1611  0.1979 -0.1804
17315W        W32784  14.964   5.190  14.353  0.1527 -0.1088 -0.4161
17316W        W32785  10.077  10.128  12.624  0.1025 -0.1251  0.1113
17317W        W32786  14.265  17.040  15.314 -0.0364 -0.2034  0.0471
17318W        W32787   5.620   5.828   4.597 -0.1069  0.1090 -0.1281
17319W        W32788  15.966  10.248   0.879 -0.0908  0.2766  0.1023
17320W        W32789   4.573  10.377  10.646 -0.2619 -0.1501  0.0153
17321W        W32790   4.845  14.667   4.744  0.1070 -0.1912  0.2253
17322W        W32791   8.060   7.012   3.748  0.4135  0.2407  0.0766
17323W        W32792   0.131   2.756  15.444  0.1851  0.0872 -0.1007
17324W        W32793  16.647   0.635  14.029 -0.0111  0.0936 -0.2713
17325W        W32794  13.631   3.975  14.937  0.0552 -0.0275  0.1150
17326W        W32795  18.118   7.383  14.168 -0.0808 -0.1380  0.1479
17327W        W32796   3.618   8.472   5.025  0.1183 -0.3363  0.3065
17328W        W32797   9.260   6.132  11.381  0.0478 -0.1115 -0.1034
17329W        W32798   8.401   4.884  13.015 -0.0107 -0.1105  0.2182
17330W        W32799   1.630  17.116  15.144 -0.3112 -0.0867 -0.1236
17331W        W32800  15.219   8.421  14.199 -0.0151  0.1152  0.0892
17332W        W32801  10.297   2.883   5.038  0.0290  0.1874 -0.0564
17333W        W32802  18.064   2.394  15.089 -0.1415 -0.4240 -0.0663
17334W        W32803  15.709   8.667  10.322  0.2198 -0.2217  0.1623
17335W        W32804  17.245  18.285  13.719  0.2474 -0.0418  0.2805
17336W        W32805   5.866  17.595   4.048 -0.2428 -0.0049  0.1077
17337W        W32806   2.765   4.566   1.160 -0.1286  0.0171  0.2036
17338W        W32807   9.171   3.669  15.848 -0.0872 -0.5207  0.1270
17339W        W32808   8.641  17.668   3.424  0.1343 -0.0549  0.1672
17340W        W32809   3.286  11.129  10.944 -0.1470  0.4247 -0.1638
17341W        W32810   9.385   2.754  16.058  0.2595  0.0279 -0.0970
17342W        W32811  11.192  17.104  13.316  0.0247 -0.1458  0.0892
17343W        W32812  10.586  15.942  11.401  0.1966 -0.2161  0.1562
17344W        W32813  10.660  12.395  10.095 -0.0094 -0.2419  0.0779
17345W        W32814  17.097  15.403  15.570  0.0025 -0.2356  0.4044
17346W        W32815  11.293   6.658  14.262  0.0236 -0.1353  0.4026
17347W        W32816  17.678  10.730   1.599 -0.2092 -0.0040  0.2837
17348W        W32817  10.994  14.210   0.563 -0.0654  0.1006  0.2681
17349W        W32818  12.150   8.905  12.474 -0.1635  0.3005  0.3146
17350W        W32819  17.008   8.542   1.993 -0.0452  0.0165 -0.2836
17351W        W32820  17.176  10.410   4.227  0.0755  0.0249 -0.2005
17352W        W32821  17.489   1.812  12.903  0.4442 -0.0079  0.0642
17353W        W32822   3.362   6.846  13.370  0.1217  0.0727  0.1809
17354W        W32823  17.066  11.857   3.922  0.1166  0.0468 -0.1387
17355W        W32824  17.405  11.307  15.879 -0.1209  0.0593  0.1454
17356W        W32825  14.917   2.720  14.783 -0.1941 -0.0229  0.2572
17357W        W32826  15.781   8.439  14.249  0.1031  0.0113  0.0764
17358W        W32827   3.507  15.590  11.875 -0.0003  0.0213 -0.0793
17359W        W32828   1.288   5.967   2.491  0.4454  0.3473  0.2836
17360W        W32829  11.443   4.440   3.457 -0.0316  0.0963  0.4529
17361W        W32830  18.175   9.359   2.802  0.0349 -0.0864  0.1330
17362W        W32831  14.873  14.931  15.515 -0.1971  0.1064 -0.1153
17363W        W32832  17.590  11.399  10.742 -0.2017  0.0508  0.0180
17364W        W32833  14.233  16.882   4.489 -0.1462  0.2808 -0.4333
17365W        W32834   9.954   5.463  13.923  0.3209 -0.1275 -0.4411
17366W        W32835  13.378  12.188  12.693  0.0775  0.2565 -0.2251
17367W        W32836   7.617  15.398   2.735  0.0651 -0.6704  0.0039
17368W        W32837   8.534  15.284   4.471  0.3390 -0.0972 -0.0348
17369W        W32838   6.007   5.932  14.641 -0.0680  0.2402  0.3464
17370W        W32839  17.888  12.884   2.667  0.4585  0.0778 -0.1623
17371W        W32840  12.975   9.649  12.698  0.2804 -0.2638  0.1036
17372W        W32841   2.763  10.245   2.785 -0.0357  0.1283  0.0861
17373W        W32842   1.395   2.204   4.676  0.1767 -0.2197  0.1056
17374W        W32843  10.671  14.928   2.619  0.1168  0.0239 -0.3356
17375W        W32844   3.037  10.585   4.798  0.1016  0.1128  0.3838
17376W        W32845  14.196  17.343   4.313 -0.0367 -0.0739  0.0137
17377W        W32846   3.099   2.394   5.031 -0.0842 -0.3860  0.1980
17378W        W32847   8.090  11.388   1.615  0.2767 -0.0066 -0.1470
17379W        W32848   1.506   5.254   1.867 -0.2600 -0.1263 -0.1019
17380W        W32849   5.833   5.829  11.748 -0.0308 -0.2972 -0.2803
17381W        W32850  10.624   9.227   1.082 -0.1372  0.3278  0.2670
17382W        W32851  10.234   1.933   3.999  0.1356  0.0498 -0.0997
17383W        W32852   9.859  12.296  13.147 -0.1602  0.2795  0.0439
17384W        W32853  17.479  17.796   0.738  0.0555  0.2315 -0.0421
17385W        W32854   6.239  13.482  12.677 -0.0239  0.0958  0.2069
17386W        W32855   3.041  12.879  16.062  0.0092  0.3118 -0.1061
17387W        W32856   1.237  15.958  11.485 -0.0033  0.1252 -0.3432
17388W        W32857   1.087   4.150   5.627 -0.1270 -0.2304 -0.2573
17389W        W32858  10.554   4.555   2.353 -0.1948 -0.2643  0.2751
17390W        W32859   9.306   5.444  13.655 -0.3411  0.3226  0.0419
17391W        W32860   9.902   1.239   3.216  0.0698  0.0425  0.0854
17392W        W32861  13.934  10.136  12.797 -0.2183  0.0480 -0.1794
17393W        W32862  13.017   9.863   3.929  0.1633  0.1401  0.2977
17394W        W32863   5.643   2.746   4.654 -0.0643 -0.1628  0.0809
17395W        W32864  10.598  11.951   1.432 -0.1411  0.1755  0.2209
17396W        W32865   4.991   4.312  15.846 -0.0596  0.0295 -0.1715
17397W        W32866  13.025  16.713   0.344 -0.0087  0.1751  0.0494
17398W        W32867  11.040   9.212   3.869  0.1363  0.2007 -0.1458
17399W        W32868   0.346  13.741  11.210 -0.3038 -0.2591  0.0752
17400W        W32869  10.340  13.767  13.886 -0.1421  0.0816  0.1322
17401W        W32870   4.082  11.185  11.690 -0.1748 -0.1082  0.0030
17402W        W32871  11.828   7.244  14.513 -0.0202  0.0541 -0.0382
17403W        W32872  11.338   4.182  11.845 -0.0791  0.0544  0.1281
17404W        W32873  16.976   6.859   4.934  0.3574  0.0734  0.0777
17405W        W32874  10.959  16.822   2.825  0.0354 -0.2147 -0.3296
17406W        W32875  17.133   2.302   0.377 -0.0599  0.1334  0.3135
17407W        W32876   6.433   3.708  12.474  0.1992 -0.3510 -0.0453
17408W        W32877   5.416   2.797  14.865 -0.0071  0.0806  0.2778
17409W        W32878  15.917  10.451   4.382  0.2856  0.0370 -0.2287
17410W        W32879   9.270  17.488  15.575 -0.0818  0.0190 -0.1098
17411W        W32880   6.707   7.744  10.974  0.1017  0.2393 -0.3573
17412W        W32881   4.365   5.186   3.881 -0.2038  0.0197 -0.0410
17413W        W32882   2.187   2.173   3.583  0.1112  0.2096  0.1111
17414W        W32883  17.705   4.919   2.824 -0.1285 -0.4748 -0.0398
17415W        W32884   2.565  10.686   9.845  0.0904  0.2463  0.3974
17416W        W32885   2.658   5.413  15.570  0.0815 -0.1613  0.0932
17417W        W32886   4.030   7.573   3.953  0.0130  0.1247 -0.1849
17418W        W32887  17.801  15.383  11.249  0.1036 -0.1364  0.2293
17419W        W32888  12.945  12.662   3.338 -0.1440  0.0774 -0.1365
17420W        W32889   7.066   3.128   3.336  0.2209  0.1380 -0.0918
17421W        W32890  17.722  12.665   0.191 -0.2601 -0.0002 -0.2097
17422W        W32891   1.256  14.434   3.065 -0.1444 -0.0796  0.2147
17423W        W32892   1.241  13.232   1.081 -0.0223 -0.0998 -0.0441
17424W        W32893  15.139  11.877   2.865 -0.0243  0.1095 -0.0529
17425W        W32894   1.724   7.751  10.399 -0.1632  0.4626  0.1207
17426W        W32895   2.182  13.816  13.007  0.1635  0.1869  0.2590
17427W        W32896  11.840  12.438   0.113 -0.2256  0.0823  0.0416
17428W        W32897   6.448  10.280   0.534  0.1613  0.2206 -0.1877
17429W        W32898  10.331  12.497  15.152  0.1017  0.0762  0.0516
17430W        W32899  17.549   7.978  13.133  0.3661  0.3412 -0.0493
17431W        W32900  16.250   1.242   5.349 -0.1003 -0.2009 -0.0271
17432W        W32901  16.622   3.909   1.983 -0.2382  0.2366  0.2066
17433W        W32902  10.918   0.119  15.713 -0.0944  0.2351 -0.2326
17434W        W32903  11.431   1.579   5.621  0.1536  0.0962  0.0690
17435W        W32904   2.320   2.440   4.974 -0.1369  0.0410 -0.0874
17436W        W32905   2.809  15.183   1.568  0.1054  0.0813 -0.0254
17437W        W32906   0.870   6.547   5.355  0.0908  0.0878  0.0703
17438W        W32907   6.160  16.886   2.287  0.0750 -0.0855  0.1945
17439W        W32908  16.856  15.724   3.534 -0.1491  0.0836 -0.0723
17440W        W32909   8.979   0.366   0.012 -0.0721  0.4231  0.0648
17441W        W32910   4.131   9.288  12.601 -0.0090  0.0712  0.1091
17442W        W32911  10.952   1.623   0.260  0.0613  0.1120  0.2167
17443W        W32912   9.056   0.442   4.152  0.0605  0.0474  0.1033
17444W        W32913  11.620  11.146  12.628  0.1146 -0.0031  0.2035
17445W        W32914   0.374   1.425  15.950 -0.0343 -0.1156  0.0972
17446W        W32915   0.444   4.719  15.727  0.3010 -0.0377  0.1777
17447W        W32916  13.150   3.214  14.908 -0.0948  0.3199  0.0651
17448W        W32917   1.550   2.689   4.666  0.1363 -0.0135 -0.4387
17449W        W32918   4.274  17.369  11.614  0.1991  0.0833 -0.0739
17450W        W32919   3.526   8.706   0.826  0.1722  0.1102 -0.1629
17451W        W32920   5.347  14.673  10.932 -0.0764 -0.0891  0.0234
17452W        W32921  11.944  12.843  10.730 -0.1221 -0.0979 -0.1314
17453W        W32922  13.850  17.322  15.829  0.1594 -0.0627  0.0910
17454W        W32923   0.688   0.190   2.166  0.2317 -0.1710 -0.0165
17455W        W32924   4.021   8.438  14.442  0.0465 -0.2381 -0.3755
17456W        W32925   7.533  16.153   2.723  0.0769 -0.0908 -0.1189
17457W        W32926   6.227  14.909  14.418 -0.2624  0.0505  0.1240
17458W        W32927  17.900  18.045   3.122 -0.2560  0.0277  0.1790
17459W        W32928   9.506  16.959  11.702  0.2183 -0.1179  0.1081
17460W        W32929  13.672   3.816   2.741  0.1580 -0.1395  0.2301
17461W        W32930   7.800   5.329  10.194  0.1689 -0.2221  0.0927
17462W        W32931  14.182   7.089  15.716  0.0605 -0.2823  0.0929
17463W        W32932   9.991   1.014   2.402 -0.1811 -0.0514 -0.1877
17464W        W32933  10.124  16.680   5.177 -0.0384  0.3714 -0.0123
17465W        W32934   1.785   0.539   4.364  0.0969  0.0087  0.2681
17466W        W32935   4.854   9.486   3.049 -0.0903 -0.1469 -0.2133
17467W        W32936  15.103   7.437  11.859  0.0605 -0.2716  0.1584
17468W        W32937   2.812   3.510   4.372 -0.0816 -0.1326  0.0987
17469W        W32938  12.758  17.368  14.840 -0.1138  0.1064 -0.0619
17470W        W32939   4.860  16.644   2.244  0.1559 -0.1831 -0.2446
17471W        W32940   4.174  17.075  15.591  0.0631  0.2619  0.0142
17472W        W32941  17.944  13.490   3.829  0.1615 -0.0837  0.1894
17473W        W32942   7.903   4.005  12.812 -0.1988  0.2322  0.1036
17474W        W32943   9.137  14.923  12.699  0.0024 -0.0633  0.1030
17475W        W32944  11.027   6.013   4.691 -0.0749  0.1719  0.0455
17476W        W32945   3.743   1.073  14.249  0.0128 -0.0523  0.0422
17477W        W32946   1.439  13.310  15.357 -0.1357 -0.1621  0.1318
17478W        W32947   4.583  17.090   2.390  0.1878 -0.0382 -0.0187
17479W        W32948   6.194   7.070  14.025  0.1218  0.2495 -0.0752
17480W        W32949  17.439   9.051  11.645  0.1053  0.0702  0.0253
17481W        W32950  17.800  17.526   5.912 -0.2133  0.1843 -0.1592
17482W        W32951   4.540  12.021  11.735 -0.2061 -0.1448 -0.1166
17483W        W32952   3.799  14.760   3.706  0.0938  0.1626  0.0561
17484W        W32953   4.305   9.649  13.477  0.0854  0.2271 -0.2949
17485W        W32954  16.004  15.586  10.882  0.1162  0.2051  0.1442
17486W        W32955   3.821   1.066   5.318 -0.1194  0.0497 -0.2082
17487W        W32956  10.271  10.537  12.426  0.0201 -0.0770 -0.1981
17488W        W32957   2.295   6.464  15.673  0.2364  0.1612 -0.0120
17489W        W32958   6.469  11.929  16.108 -0.0227 -0.1058 -0.2887
17490W        W32959   4.999   3.371   3.357 -0.3244 -0.2397 -0.2726
17491W        W32960   9.100   6.558   5.282 -0.1318 -0.2034 -0.3282
17492W        W32961   2.876   1.425  11.365  0.1228  0.0872  0.0570
17493W        W32962   7.564  10.685  11.773  0.0788 -0.1292 -0.2125
17494W        W32963   5.655  12.460  11.918 -0.0025  0.4710  0.0365
17495W        W32964  12.044   7.165  13.465 -0.2546 -0.0602 -0.2513
17496W        W32965   2.746  13.590  15.603 -0.1739 -0.0961 -0.0615
17497W        W32966  12.671  13.060  14.921  0.0081 -0.0090  0.0074
17498W        W32967   9.091   4.530   2.557  0.0214 -0.0123  0.0225
17499W        W32968   9.302   7.431   3.987 -0.1347  0.1407  0.2035
17500W        W32969  13.803   6.050   3.374  0.2017  0.1390  0.1520
17501W        W32970  10.903  15.495  11.209  0.0051 -0.3379  0.1148
17502W        W32971  18.037   8.109  13.170 -0.2107  0.0602  0.0276
17503W        W32972   1.873   9.851  10.896  0.3008  0.0381 -0.0537
17504W        W32973   7.751  15.361   3.984 -0.1348 -0.2025 -0.0704
17505W        W32974   6.924  10.498  15.275  0.1464 -0.1191  0.1210
17506W        W32975  10.252   6.241  15.260  0.0142 -0.3724  0.2565
17507W        W32976   6.884   2.293   5.373  0.0777  0.0499 -0.1679
17508W        W32977   3.938  17.757  11.522  0.1865  0.0469  0.2070
17509W        W32978   9.630   4.091  13.598  0.4170 -0.1215  0.1666
17510W        W32979   6.296  16.266   2.569 -0.1233 -0.1799 -0.1882
17511W        W32980   4.398  15.719  15.321 -0.3030  0.2033 -0.1596
17512W        W32981   0.059   6.663   3.426 -0.2276 -0.4234 -0.3447
17513W        W32982   4.913   0.872  14.765 -0.1456 -0.1823  0.0607
17514W        W32983   3.660  16.884  14.586 -0.1674  0.2607 -0.0199
17515W        W32984   5.489  10.032   4.580  0.0093 -0.1722 -0.0575
17516W        W32985   3.091  15.060   2.848 -0.1015  0.2861 -0.0107
17517W        W32986   2.998   3.831  10.952 -0.3697 -0.0297 -0.2432
17518W        W32987  17.925   6.613  14.969 -0.0140 -0.2720  0.0938
17519W        W32988   7.364   3.755  14.194  0.1909 -0.0117  0.1903
17520W        W32989   6.810   3.505  12.725 -0.1362  0.3030 -0.0342
17521W        W32990  14.594   2.618  14.056  0.2634  0.0935  0.0410
17522W        W32991  12.423  15.070   0.619  0.0830  0.0498  0.2052
17523W        W32992  16.654   6.165   4.086  0.0075 -0.1830  0.1476
17524W        W32993   8.700   0.749  14.563 -0.0095  0.0209  0.2299
17525W        W32994  14.601  11.552   4.595 -0.4104  0.1504  0.0585
17526W        W32995   8.441   4.612   5.222 -0.1728  0.1603 -0.0767
17527W        W32996   2.634  11.904  15.752  0.1079  0.2039  0.1756
17528W        W32997  14.572  13.312   4.060  0.1990  0.0178  0.1798
17529W        W32998   1.600   0.135  15.518  0.1933 -0.0721 -0.2117
17530W        W32999  12.717  10.096   5.352  0.0074  0.0823 -0.0934
17531W        W33000   0.451   5.374  12.525  0.2315  0.0484 -0.1360
17532W        W33001   8.475  11.880  12.045 -0.1029  0.2956 -0.1478
17533W        W33002  11.587   3.253  14.676  0.0199  0.1211 -0.2054
17534W        W33003   5.966   0.648   5.293 -0.2402  0.0719 -0.0459
17535W        W33004   9.137  14.034   0.561  0.0872  0.0949 -0.0327
17536W        W33005  10.262  14.495   3.215 -0.0092  0.0729 -0.0116
17537W        W33006   0.493   5.339  14.638  0.0006 -0.2129 -0.1241
17538W        W33007   7.801  12.791  12.195  0.1115  0.0247 -0.0459
17539W        W33008   9.513  17.748   1.295  0.2060  0.0339  0.4090
17540W        W33009   2.942  13.286   0.337 -0.2301  0.1854 -0.0087
17541W        W33010   0.508   6.393  12.949 -0.2140  0.1388 -0.1660
17542W        W33011  12.978   7.497   0.833  0.1004  0.0082 -0.0733
17543W        W33012  15.396   3.881  12.063  0.0481  0.2654  0.1548
17544W        W33013   0.233   2.132  11.650 -0.1196 -0.3494  0.2500
17545W        W33014   4.696   6.275  10.936 -0.1115  0.0888 -0.0159
17546W        W33015  12.761  12.668  11.349 -0.1975 -0.0737  0.3613
17547W        W33016  11.229   0.200  15.207 -0.0522 -0.1613 -0.2191
17548W        W33017   4.693  10.737  12.504 -0.1434 -0.0718  0.0209
17549W        W33018  12.745  12.572   3.949 -0.2057 -0.0034 -0.2619
17550W        W33019  12.411   1.787  10.787 -0.2485  0.2491  0.0596
17551W        W33020   6.266   0.865   5.576 -0.1872  0.1607  0.2202
17552W        W33021   5.549   9.184   3.886  0.0438 -0.3385 -0.0384
17553W        W33022   7.616  15.213   3.527  0.0118  0.2620 -0.0319
17554W        W33023  15.361  16.214  13.347 -0.1739  0.2255  0.0493
17555W        W33024   9.956  17.573   1.820 -0.0177  0.0727  0.1512
17556W        W33025  10.214  11.328   4.192  0.0310 -0.0703  0.1481
17557W        W33026  18.056  13.895  10.558 -0.0167 -0.1534  0.2453
17558W        W33027  15.090   7.341   2.769  0.2441  0.0923  0.2727
17559W        W33028   2.104   8.667  15.347 -0.1590  0.4555  0.2464
17560W        W33029   6.562  11.409  11.225 -0.2272 -0.0010  0.2686
17561W        W33030  11.442  15.573   5.251 -0.1514 -0.1766 -0.5054
17562W        W33031   8.370  10.064  15.905 -0.2319  0.0011 -0.1587
17563W        W33032   0.591  15.010  14.695  0.0557 -0.1576 -0.0255
17564W        W33033  11.234  17.593   2.629  0.0917  0.0123  0.0362
17565W        W33034  17.207   8.188  14.809 -0.0298  0.1761  0.0588
17566W        W33035  12.559   1.501   3.797 -0.1906  0.1879 -0.0893
17567W        W33036  11.607   1.667   1.789  0.0097 -0.1057 -0.1370
17568W        W33037  16.548   1.173   3.947  0.1035 -0.3774 -0.2772
17569W        W33038  17.116   5.200  13.587  0.0416 -0.0988  0.0428
17570W        W33039   2.541  15.592  14.100  0.2009 -0.0346 -0.1057
17571W        W33040  12.517   8.459   1.792 -0.2385 -0.2668 -0.1968
17572W        W33041  11.709  11.315   2.871 -0.0653  0.0744 -0.1866
17573W        W33042  12.504  13.493  14.720  0.1018 -0.0557  0.0408
17574W        W33043   7.993  13.935  14.553  0.0956 -0.1995 -0.3660
17575W        W33044   3.193  17.873   4.548  0.2704 -0.3995  0.2254
17576W        W33045   3.545  17.873   0.106  0.1065 -0.1048 -0.0562
17577W        W33046  15.652   2.561   2.410 -0.0432  0.0734  0.0205
17578W        W33047   0.716  16.113   5.603 -0.0011 -0.0724 -0.1100
17579W        W33048   3.327   9.258   4.663  0.0468 -0.1917  0.0054
17580W        W33049  14.728  13.825  11.421 -0.2222 -0.0044  0.1029
17581W        W33050  12.927  17.367   5.642  0.1051  0.1153  0.3065
17582W        W33051   0.382  10.721  10.324 -0.1669 -0.2693 -0.0583
17583W        W33052  11.988  14.046  11.327 -0.3914  0.0951 -0.0592
17584W        W33053   9.629   0.665  10.304 -0.0896 -0.0561  0.1224
17585W        W33054  15.375   4.775   1.444  0.0071 -0.1232  0.0120
17586W        W33055   4.694   2.378   0.558 -0.0928 -0.3019 -0.0398
17587W        W33056   0.221  16.176   2.748 -0.0885 -0.1371  0.2780
17588W        W33057   3.662   9.726  14.874  0.1084 -0.0597 -0.3546
17589W        W33058   2.291  10.463   2.791  0.1768 -0.2933  0.0627
17590W        W33059   5.836   2.317  13.750 -0.1085  0.3148  0.0741
17591W        W33060   4.038  12.753   2.330 -0.1701  0.0762  0.0901
17592W        W33061   1.154   5.010  13.485 -0.0402 -0.1257 -0.0080
17593W        W33062   7.422   8.330   0.419  0.1986 -0.0034 -0.1152
17594W        W33063   8.552   1.597  11.672  0.0151  0.1573 -0.0024
17595W        W33064  11.011  11.622  13.664 -0.0217 -0.1096 -0.2333
17596W        W33065   1.705   2.948   2.087 -0.2015 -0.0654  0.1833
17597W        W33066   7.082   4.612  13.544 -0.2208 -0.2583 -0.2216
17598W        W33067   3.260  10.306  11.412  0.0585 -0.3805  0.1189
17599W        W33068  17.289   9.907   4.494 -0.0016 -0.2091 -0.0574
17600W        W33069  14.455   8.277   4.533 -0.1266 -0.4377  0.1573
17601W        W33070  18.021   2.030  11.710 -0.3870  0.1196 -0.1508
17602W        W33071   8.816   6.869  12.430  0.0069 -0.0279 -0.0965
17603W        W33072   0.658   7.187   2.969 -0.2866  0.2202 -0.0344
17604W        W33073  16.339   3.394   4.365  0.1076  0.0156 -0.2500
17605W        W33074   5.091   5.767  10.468  0.0425  0.0707  0.1274
17606W        W33075  12.344  14.777  11.978  0.0796 -0.1413 -0.1651
17607W        W33076  14.613  12.303  15.537 -0.0191 -0.0319  0.0882
17608W        W33077  16.565   1.095  12.149  0.0559 -0.0578 -0.0620
17609W        W33078   7.054  10.609   3.834  0.0786  0.0100 -0.2857
17610W        W33079   0.607   0.129   4.683 -0.0956 -0.0803  0.0833
17611W        W33080   6.993   6.307  11.215 -0.0067  0.4705 -0.1592
17612W        W33081  10.595   6.174  14.318 -0.1405  0.0500  0.3993
17613W        W33082   0.432   1.404   2.920 -0.0286  0.0469  0.4109
17614W        W33083   6.104  14.183  11.619  0.0639 -0.0436 -0.0447
17615W        W33084   9.205  16.315  13.810  0.2191  0.1080  0.0753
17616W        W33085   7.930   0.076   5.197  0.0070 -0.1852 -0.1912
17617W        W33086   9.907  17.203  11.552 -0.1678 -0.3631 -0.0591
17618W        W33087  11.667  16.437   2.240  0.1575 -0.0776 -0.2092
17619W        W33088   9.768  11.185  12.732 -0.1327  0.1350  0.1029
17620W        W33089   1.681   1.384  15.448  0.0228  0.3072 -0.1627
17621W        W33090  11.849  18.151  12.502  0.0952  0.0216  0.1186
17622W        W33091  17.379  13.327   1.856 -0.1070  0.3613  0.1606
17623W        W33092   6.299   1.931   3.641 -0.2041  0.0853 -0.0240
17624W        W33093   1.885  16.051   6.009  0.2447 -0.1356  0.0876
17625W        W33094  13.429   8.980  16.084  0.0007  0.0648  0.0357
17626W        W33095  10.116   4.270   5.011 -0.1615 -0.0114 -0.2750
17627W        W33096   1.124   4.544  11.390 -0.2629  0.3134  0.0369
17628W        W33097   8.754  15.603   1.192  0.2609 -0.0527 -0.0954
17629W        W33098   0.451  10.976  13.859 -0.0789  0.1334 -0.0190
17630W        W33099   9.888  13.782   0.838  0.0096  0.0179  0.0343
17631W        W33100  13.486   7.744   1.637 -0.0082  0.0424 -0.0849
17632W        W33101   7.137   2.087   1.480  0.2474  0.0170 -0.0815
17633W        W33102  15.919   9.550   3.851  0.0031  0.1790 -0.0810
17634W        W33103  10.893  16.807  12.990  0.0115 -0.1247  0.1051
17635W        W33104  11.738   3.841  11.873 -0.0955  0.1166 -0.1719
17636W        W33105  11.858  18.065   1.990 -0.0659  0.1213  0.2826
17637W        W33106   9.286  14.965   0.460  0.0383 -0.1704  0.3172
17638W        W33107   0.202  16.047  15.550  0.1786 -0.0656 -0.2425
17639W        W33108   8.036   1.403   0.518  0.3371  0.0741  0.0453
17640W        W33109   1.129   8.466  13.014 -0.0906  0.0511  0.1317
17641W        W33110  14.268   0.587  13.234  0.2680  0.2555  0.0064
17642W        W33111   0.182   2.248  14.209 -0.0175 -0.0602  0.2931
17643W        W33112  17.626  11.813  12.337 -0.0872 -0.0586  0.3431
17644W        W33113  10.169   7.773  14.148 -0.0849 -0.1361  0.0082
17645W        W33114   6.733   0.345  10.613 -0.1313 -0.4722  0.0875
17646W        W33115   5.079   6.173  11.425 -0.0193 -0.0044 -0.2236
17647W        W33116  16.404   2.134   1.846 -0.3593 -0.0062  0.0072
17648W        W33117   9.556   3.405   5.312 -0.1055 -0.1502  0.0498
17649W        W33118   9.984   5.594   0.700  0.0582 -0.1849  0.1494
17650W        W33119  12.969  17.498  15.963  0.0909 -0.1966  0.0123
17651W        W33120   0.095   6.571   2.405  0.1204 -0.0340 -0.0140
17652W        W33121  13.243   0.049  11.485  0.0569 -0.0353  0.5463
17653W        W33122   7.649   4.828   2.990 -0.0420 -0.0663 -0.2151
17654W        W33123  13.568   9.198   4.869  0.1714 -0.1574 -0.0338
17655W        W33124  14.832  14.688   4.167 -0.1242 -0.0581 -0.0202
17656W        W33125  10.694  11.196  12.964 -0.0960  0.4692  0.0125
17657W        W33126   9.930  12.225  13.654 -0.0041 -0.2244  0.2889
17658W        W33127   0.914   7.698   0.447  0.0742 -0.1425 -0.1064
17659W        W33128   8.336   1.161   2.423 -0.1583  0.0453 -0.0679
17660W        W33129   2.908   9.231  16.064 -0.0082 -0.1637  0.0161
17661W        W33130  17.237   0.353   0.362 -0.1046 -0.0350  0.3090
17662W        W33131   7.644  13.568   5.494 -0.1667  0.0357  0.0251
17663W        W33132   6.705  10.645  13.807  0.0792 -0.0931  0.3102
17664W        W33133  10.557   9.514   4.652  0.0074 -0.0659  0.2437
17665W        W33134  12.703  15.692   1.766 -0.0044 -0.0028 -0.0767
17666W        W33135   7.008   7.309  15.642  0.1489 -0.3831  0.4812
17667W        W33136  17.337  14.867  11.931 -0.3299 -0.0923 -0.0190
17668W        W33137   2.959  14.943   4.651  0.2120 -0.2840 -0.1528
17669W        W33138   6.069   2.028   5.355  0.1917  0.3519  0.1609
17670W        W33139  11.716   2.350   1.302  0.0053  0.2000  0.2108
17671W        W33140   0.452   3.276   3.579  0.1660  0.1077  0.0326
17672W        W33141   7.716   3.965  11.907  0.0378  0.2238  0.0418
17673W        W33142   5.107   7.022   1.558 -0.0141  0.1505 -0.2493
17674W        W33143   6.069   1.968   0.853 -0.1618 -0.0140 -0.0774
17675W        W33144  12.326  17.872   0.426  0.0461  0.1551 -0.1859
17676W        W33145  16.209   8.266   2.658  0.1593  0.2013  0.0769
17677W        W33146   2.508   7.654  13.209 -0.1810 -0.3329  0.1423
17678W        W33147  13.447  17.570   3.230  0.0925  0.0817 -0.0772
17679W        W33148  17.268  16.421   2.951  0.3333  0.0543 -0.1506
17680W        W33149  13.450  14.139  15.520 -0.0571 -0.0106 -0.3119
17681W        W33150   8.927   1.692  12.308  0.0494  0.0933  0.2134
17682W        W33151  12.510   2.319  13.685 -0.2597  0.0487 -0.0635
17683W        W33152   4.390   2.188  14.685  0.1202 -0.0199 -0.1434
17684W        W33153   8.692   3.716   0.629 -0.0205  0.1571  0.1848
17685W        W33154   6.318   7.952  13.483 -0.2435 -0.1058 -0.0618
17686W        W33155  16.838   5.152  13.075  0.1481 -0.0317  0.0810
17687W        W33156  11.672   5.739   3.657  0.0654 -0.2772 -0.0362
17688W        W33157   0.280   6.191  14.568 -0.5514  0.2413 -0.0497
17689W        W33158  12.131   4.671   2.143 -0.0919 -0.0173 -0.0091
17690W        W33159  11.050  12.388  14.965  0.1276 -0.1842 -0.2961
17691W        W33160   7.048  14.441   1.495 -0.1544  0.1105 -0.0569
17692W        W33161  13.035  13.775  15.521 -0.1650  0.1908 -0.0930
17693W        W33162   1.278   4.065  12.958  0.2597 -0.2206 -0.0333
17694W        W33163   5.748  12.502  14.725 -0.1195 -0.1747 -0.3345
17695W        W33164  16.373  13.185  11.298 -0.1228 -0.1817 -0.0504
17696W        W33165  15.306   5.005  12.997 -0.1648  0.2940  0.3206
17697W        W33166  11.690  12.054   0.391  0.3083 -0.2640 -0.1258
17698W        W33167   4.260  15.730   1.962  0.1174  0.2496 -0.0012
17699W        W33168  15.711   6.114   4.153  0.0912 -0.2168 -0.1653
17700W        W33169  17.340   7.787   1.617  0.0032 -0.2048 -0.1947
17701W        W33170   3.062   4.248   2.964 -0.1599  0.2865  0.0863
17702W        W33171  15.456   2.062  15.786  0.3786  0.3440 -0.1041
17703W        W33172   5.711  12.247   3.581  0.0329 -0.0280  0.0062
17704W        W33173   6.156   5.561   2.258  0.0162  0.2831  0.0465
17705W        W33174  17.352   6.868  14.436 -0.3645  0.0504 -0.1166
17706W        W33175  16.205  13.827  16.005  0.0221 -0.1768  0.0678
17707W        W33176   5.310   8.914  12.828 -0.2262 -0.2940 -0.1222
17708W        W33177  11.826  11.887  13.021  0.2037 -0.2163 -0.1032
17709W        W33178  10.484  16.751   5.480  0.2376  0.1329 -0.3625
17710W        W33179  11.383   5.057  14.169 -0.2165 -0.0367  0.2201
17711W        W33180  13.422   4.506  10.838  0.0023 -0.1995  0.2964
17712W        W33181  13.732  14.264   4.280  0.1843 -0.1874  0.0807
17713W        W33182  13.645   5.390  11.301 -0.0108  0.1972  0.3081
17714W        W33183  13.074   7.741   1.305 -0.0964  0.3058  0.3509
17715W        W33184   2.876  14.630   0.736 -0.0995 -0.1792  0.0364
17716W        W33185   2.996  16.901  13.394 -0.2911  0.0913 -0.3389
17717W        W33186   3.836   9.462  15.582  0.0308  0.0517 -0.1571
17718W        W33187  17.100  14.785  12.874 -0.0273 -0.0661 -0.0445
17719W        W33188  17.813   3.841   0.521 -0.0775 -0.1939  0.0016
17720W        W33189   7.466  11.946   2.867  0.0370  0.0296 -0.0175
17721W        W33190   7.456  16.237  13.854  0.3954 -0.0313 -0.0476
17722W        W33191   6.516  12.668  14.917 -0.0904 -0.1865  0.2424
17723W        W33192   3.541  14.063   0.656  0.0520 -0.0498  0.5023
17724W        W33193   1.063  18.241   4.527 -0.1462 -0.0731  0.0874
17725W        W33194   0.256   1.893  12.608  0.3114  0.0375  0.1862
17726W        W33195   4.165   6.434  15.020  0.4359  0.0915  0.1436
17727W        W33196   8.372  15.363  14.673  0.0476  0.0049 -0.3657
17728W        W33197   5.455   1.267   1.732  0.0899 -0.0842  0.2239
17729W        W33198  13.883  12.368  10.598 -0.2232 -0.0768 -0.1074
17730W        W33199   7.027   1.726   1.080 -0.2435 -0.1897  0.2805
17731W        W33200   4.830  18.270  11.143 -0.0325  0.4989 -0.1206
17732W        W33201  11.999  17.765   4.873 -0.0288  0.0595  0.2974
17733W        W33202   6.806   1.509   0.675 -0.1376  0.0025  0.0818
17734W        W33203   3.862   6.878   5.570 -0.3739 -0.2306 -0.1537
17735W        W33204   6.180  14.976  11.132 -0.1237  0.1856  0.1991
17736W        W33205  18.153   3.869   2.241  0.0234 -0.2691  0.0806
17737W        W33206   9.442  12.207   1.283  0.1331 -0.0253  0.0184
17738W        W33207  17.658   8.263  14.236  0.1035 -0.3211 -0.1451
17739W        W33208   3.778   4.811   1.165  0.2839 -0.1465  0.0245
17740W        W33209  15.811  15.477  12.819 -0.1673  0.3272 -0.1249
17741W        W33210  11.140  10.606  12.151  0.0135  0.0946 -0.2405
17742W        W33211  16.673  11.682   1.378 -0.2312 -0.0813  0.0194
17743W        W33212  17.948  10.722   3.557  0.0099  0.2838 -0.2731
17744W        W33213  12.192   9.210   6.189  0.0490 -0.2564 -0.1764
17745W        W33214   2.658   9.747   2.642 -0.0977 -0.0680 -0.0295
17746W        W33215  14.994   2.027  12.284 -0.2979  0.3043  0.0067
17747W        W33216   8.391  16.449  11.631  0.0841  0.2181 -0.0864
17748W        W33217   9.922   3.439  10.169 -0.5102 -0.2378 -0.0191
17749W        W33218  11.735   4.032   4.863  0.5291 -0.2020  0.0513
17750W        W33219  13.793  11.423  14.834 -0.0871 -0.2357 -0.1734
17751W        W33220   8.712   8.607  11.312 -0.3954 -0.3072 -0.1662
17752W        W33221   0.566  11.641   5.398 -0.1225  0.2398 -0.1351
17753W        W33222  10.828   9.660  14.775 -0.0180 -0.1291 -0.4226
17754W        W33223   9.435   0.286  14.297 -0.0806  0.0953  0.1532
17755W        W33224   1.094   8.932  13.156 -0.1945  0.0525  0.0759
17756W        W33225  13.995  11.982   2.196  0.0965  0.1102  0.0366
17757W        W33226   5.452   6.850  13.074 -0.1201  0.2123  0.1814
17758W        W33227   1.518   5.137  12.162 -0.3913  0.4047  0.1891
17759W        W33228   0.937   7.060  13.412  0.4653  0.2466  0.0170
17760W        W33229   8.006   3.860   5.138  0.2786  0.0717  0.0035
17761W        W33230   2.174  15.362  13.740  0.1108 -0.6566 -0.4265
17762W        W33231  14.437   0.176  12.508 -0.1119  0.2661  0.3481
17763W        W33232   2.117   9.200   1.742  0.1611  0.2272  0.0492
17764W        W33233   1.990  17.511  12.892 -0.0806  0.2865 -0.1556
17765W        W33234   5.636  10.567   2.888  0.2565 -0.1625  0.5358
17766W        W33235   8.387   8.140  12.956 -0.1176 -0.0393 -0.0756
17767W        W33236   1.758   3.302  15.002 -0.2441 -0.0284  0.2963
17768W        W33237   5.164   5.873   3.232 -0.3638  0.0185 -0.0715
17769W        W33238  10.968   1.323   2.627  0.3220 -0.2761  0.1042
17770W        W33239   0.896   3.515  14.863 -0.0023 -0.0814  0.2005
17771W        W33240   7.578   5.970   3.294 -0.1196 -0.0701  0.0701
17772W        W33241   9.175   1.145  11.044  0.0909  0.1811 -0.0155
17773W        W33242   6.051  12.136   4.967  0.0692 -0.0920 -0.0481
17774W        W33243  15.301   8.357   4.154 -0.3718 -0.1074  0.0182
17775W        W33244  10.999  14.524  10.942 -0.0565 -0.0755  0.2592
17776W        W33245   8.883  13.209  11.793 -0.0237  0.1178 -0.2395
17777W        W33246   8.859   4.429  13.730 -0.1913  0.1793 -0.0021
17778W        W33247   2.228   7.701   5.596 -0.2527 -0.1037 -0.2111
17779W        W33248   8.407  17.608  11.384  0.1468 -0.0176  0.0608
17780W        W33249   3.863   5.295   1.349 -0.2865 -0.2143  0.1929
17781W        W33250   7.850   1.928  12.511 -0.1609  0.1010  0.0586
17782W        W33251   9.070  17.224  14.748 -0.0426 -0.2392 -0.0019
17783W        W33252  13.107   6.006   5.053 -0.0916 -0.0328 -0.0476
17784W        W33253  14.831   0.871   0.618 -0.1092  0.0124 -0.0635
17785W        W33254  16.580   7.250  12.803 -0.0042 -0.1682 -0.4550
17786W        W33255   4.409  10.851   3.570 -0.1419  0.0756 -0.2414
17787W        W33256  12.472   3.600   0.456  0.1788 -0.0550 -0.2645
17788W        W33257  10.168   9.004   4.116 -0.0725 -0.1250 -0.1391
17789W        W33258   2.655  12.990   2.722  0.0960  0.1145  0.1462
17790W        W33259   7.794   8.117  13.627  0.1594 -0.0706  0.0695
17791W        W33260  12.692   3.784   1.760 -0.2734 -0.2883 -0.3219
17792W        W33261   9.769  18.002   4.374 -0.2327  0.0420  0.0622
17793W        W33262   0.493   4.143  13.623  0.0717 -0.0944 -0.0605
17794W        W33263   1.642  13.714   5.800  0.2476 -0.2750  0.1650
17795W        W33264  11.069   6.432  13.847  0.1635  0.0978 -0.0135
17796W        W33265   4.775  15.180  15.535 -0.2502 -0.1455  0.2064
17797W        W33266   2.680  10.263  15.752 -0.1162 -0.0390  0.0977
17798W        W33267   8.535   3.553  10.878  0.1564  0.1969 -0.1896
17799W        W33268   5.445  10.325  11.955 -0.1886  0.3536 -0.0742
17800W        W33269  12.567   1.703   5.571  0.1443 -0.0675  0.0528
17801W        W33270  11.822   1.195   5.895 -0.0226  0.0502  0.1685
17802W        W33271   8.524   7.106   2.286 -0.3321 -0.0029  0.0090
17803W        W33272   9.966  10.776   2.403  0.0061  0.0804 -0.1447
17804W        W33273   1.412   3.297   1.938  0.1248  0.2389 -0.1671
17805W        W33274   2.437  10.752  15.600 -0.2549 -0.1653 -0.0359
17806W        W33275  10.449   9.516  11.046 -0.3130  0.1705 -0.1734
17807W        W33276  16.406   7.014   2.674 -0.1458 -0.0543 -0.1146
17808W        W33277  10.495   6.695   1.510  0.5002  0.0393 -0.1439
17809W        W33278   9.140   1.776   2.571  0.0939  0.0945  0.2797
17810W        W33279  12.172  10.943   0.147 -0.1322  0.2136  0.1731
17811W        W33280   1.954   0.736  14.147 -0.1498  0.1785  0.1734
17812W        W33281  11.917   4.867  13.223 -0.1846 -0.0260  0.1023
17813W        W33282   6.416   1.263  10.985 -0.2140  0.1063 -0.3523
17814W        W33283  15.019   7.954   5.789  0.0916  0.0247  0.1052
17815W        W33284   6.651   9.624  14.628  0.0236 -0.0086 -0.1264
17816W        W33285  10.461  14.383   4.558  0.2118 -0.0261 -0.0565
17817W        W33286  15.283  15.097  14.951  0.0262  0.3113 -0.2856
17818W        W33287   4.260  15.344   4.093  0.3883  0.2481 -0.2831
17819W        W33288  15.256  14.719   0.372 -0.0826  0.2128  0.0312
17820W        W33289  10.393  16.266  11.791 -0.0526 -0.0196  0.0423
17821W        W33290  11.684   0.997  13.774 -0.1651 -0.1802  0.0735
17822W        W33291   7.327   4.263  15.914  0.0522 -0.0808  0.1982
17823W        W33292   5.166  14.964   2.075 -0.1361  0.1138 -0.1339
17824W        W33293  17.015   3.609   4.795 -0.2752 -0.0984  0.0514
17825W        W33294   1.587   9.645   0.003 -0.0072  0.1451 -0.0065
17826W        W33295   0.644   0.763  12.055  0.2145 -0.1492  0.0515
17827W        W33296   8.975   8.892  13.833  0.2583 -0.2392  0.0301
17828W        W33297  17.941  15.870  11.128 -0.1556 -0.0130 -0.2672
17829W        W33298   0.528  11.486  13.070  0.3418 -0.1752 -0.1247
17830W        W33299   9.528  12.269   9.875 -0.2056  0.0778 -0.1365
17831W        W33300   3.381   8.987  10.274 -0.0092  0.1449 -0.1079
17832W        W33301   3.889   3.538   3.328  0.1810  0.0447  0.2753
17833W        W33302  10.349   8.517   4.076 -0.1221  0.2986  0.2094
17834W        W33303   5.175  10.449  12.309  0.1661  0.1381 -0.0450
17835W        W33304   9.332   6.216  13.062 -0.0254 -0.1919 -0.3292
17836W        W33305   8.094  14.377   0.602  0.3149  0.0245  0.0037
17837W        W33306   8.185   7.353  15.792  0.2845 -0.1372  0.1288
17838W        W33307   7.888   9.827   1.291 -0.0496 -0.0828 -0.0087
17839W        W33308   5.902  16.646  10.642  0.0688 -0.2819  0.1091
17840W        W33309   2.600  16.692  11.391  0.0908  0.5929 -0.0609
17841W        W33310   5.163   0.116   1.654 -0.0166  0.1292  0.0113
17842W        W33311  11.190   5.680   1.730 -0.1610 -0.2279  0.1029
17843W        W33312   5.549  17.043  10.715  0.4882 -0.1551  0.0822
17844W        W33313   4.804   8.031   3.981 -0.1232  0.2814  0.2354
17845W        W33314  14.167   6.788  13.104  0.0575  0.0020 -0.1714
17846W        W33315   8.244   2.365   3.425 -0.1364  0.2027  0.0284
17847W        W33316  15.382   2.681  14.262 -0.1741  0.0465 -0.1468
17848W        W33317   1.700   4.335  13.408  0.2097 -0.1850  0.0759
17849W        W33318  16.786   2.562  11.044  0.0241  0.0530  0.3126
17850W        W33319  11.506   7.473  15.711  0.1396 -0.2793  0.2227
17851W        W33320   4.370   6.666   0.359  0.0771  0.0818 -0.4562
17852W        W33321   9.182  11.754   1.829 -0.0743 -0.3598  0.2026
17853W        W33322   8.044   1.906   0.687 -0.1428  0.2151 -0.1819
17854W        W33323   8.317  18.131  13.009 -0.1391  0.0894  0.1076
17855W        W33324   2.239   0.104   5.171 -0.0134 -0.0217 -0.0201
17856W        W33325   0.335   5.669   4.265  0.2122  0.0722 -0.5250
17857W        W33326   4.490   0.505   2.276 -0.3333 -0.0254  0.0954
17858W        W33327   3.010   5.816   4.520  0.1338 -0.1300  0.1925
17859W        W33328  17.394  14.993   4.634 -0.1387  0.2482 -0.1600
17860W        W33329   0.491   2.368   6.191 -0.4253 -0.1456 -0.3656
17861W        W33330  17.272  17.127  11.781 -0.0769 -0.0255 -0.0511
17862W        W33331   6.728   1.408  11.529 -0.1758 -0.1857  0.1350
17863W        W33332   4.242  10.014   4.146 -0.1871  0.2299 -0.0034
17864W        W33333  10.965   0.583  13.165  0.0067  0.0913  0.2030
17865W        W33334  10.861   8.229  10.614 -0.1554 -0.3479  0.0905
17866W        W33335  15.832  12.856  10.357  0.0435  0.0056 -0.0100
17867W        W33336  11.048   9.877   2.733  0.1146 -0.1482  0.0607
17868W        W33337   5.160   0.934  11.343  0.0107 -0.0257 -0.2433
17869W        W33338  14.871  14.030   3.184  0.0762 -0.1075 -0.0674
17870W        W33339  15.181  15.324  11.745  0.1667 -0.1168 -0.1509
17871W        W33340  13.007  10.845  12.567 -0.2609 -0.2428  0.0645
17872W        W33341   9.332  16.139   5.172 -0.0038  0.0483 -0.0838
17873W        W33342   4.163   0.334  14.710 -0.1003 -0.2708  0.0123
17874W        W33343   3.696   3.594   2.365  0.1574  0.0778 -0.2206
17875W        W33344  15.399  13.477   0.491 -0.3461 -0.0951 -0.0475
17876W        W33345   9.136   5.041  11.956  0.1041 -0.2398 -0.0380
17877W        W33346   4.007  13.834   2.043  0.1073  0.1398  0.2473
17878W        W33347   6.517  12.988   3.987 -0.2504 -0.0053  0.0383
17879W        W33348  14.904   3.515  10.372 -0.1227 -0.1049 -0.0808
17880W        W33349   5.377  17.410   2.593 -0.0347 -0.1909  0.1627
17881W        W33350   1.183   7.126  13.956 -0.1619  0.4924  0.1096
17882W        W33351   0.826   0.682  12.603  0.1457 -0.1838  0.0676
17883W        W33352   0.616  15.011  11.998 -0.2388  0.0314  0.0250
17884W        W33353   6.687   9.206  14.956  0.0062 -0.0871  0.2197
17885W        W33354   1.594   4.853  14.901  0.4096 -0.1056  0.2450
17886W        W33355   9.012  10.001   0.935  0.3198 -0.1523 -0.4221
17887W        W33356   7.907   0.867   2.351 -0.3843 -0.1573 -0.0477
17888W        W33357  12.433  12.578   4.309  0.1082  0.0600  0.2472
17889W        W33358   5.676  16.153  11.255  0.0363  0.2247 -0.0496
17890W        W33359   8.256   6.828  13.045 -0.0425 -0.1063 -0.2196
17891W        W33360   4.294  16.862  12.847 -0.0818  0.0706  0.2050
17892W        W33361   3.925  10.825  12.578 -0.2705 -0.1592  0.0680
17893W        W33362   5.848   8.714   1.618  0.2362  0.0341 -0.1045
17894W        W33363   0.722  12.034  14.283 -0.1259  0.1551  0.1253
17895W        W33364  12.328   8.449   2.319 -0.0729 -0.3315  0.1942
17896W        W33365   2.609   6.338  11.315 -0.1119  0.0558 -0.1030
17897W        W33366   2.690  18.056  12.464  0.1837  0.1151  0.1510
17898W        W33367   1.385   5.827  15.053 -0.2412  0.2045  0.0589
17899W        W33368  15.985  17.406  16.055  0.1671 -0.0754  0.2509
17900W        W33369  16.396  11.869   2.385 -0.0156 -0.3458 -0.1879
17901W        W33370  17.354  15.517   0.939  0.0541 -0.1342  0.1243
17902W        W33371   1.509   2.762   2.662 -0.2948  0.0778  0.3389
17903W        W33372   0.641   7.250  13.768 -0.1249  0.2232  0.2209
17904W        W33373  17.987   4.905  12.280 -0.3288 -0.3840  0.2371
17905W        W33374   1.293  10.893  13.588  0.3102 -0.1382  0.1515
17906W        W33375   1.299  11.621   0.417 -0.3338  0.2105 -0.3756
17907W        W33376   1.212   1.035  14.734  0.2114  0.0794  0.2044
17908W        W33377   8.559  16.389   3.432 -0.3016 -0.2171 -0.1213
17909W        W33378   0.161   7.504   0.905 -0.0172  0.2083  0.2361
17910W        W33379  11.667  10.760   2.988 -0.2922  0.0824  0.0571
17911W        W33380   5.809  11.735  10.571  0.0146  0.3444  0.2696
17912W        W33381   8.392  12.614  14.610 -0.3511  0.0242 -0.1516
17913W        W33382   9.052   3.247   0.086 -0.0145  0.0828 -0.0314
17914W        W33383  11.056   3.413  11.365 -0.2965 -0.1439 -0.0270
17915W        W33384   9.850  13.062  14.563  0.0641  0.0749  0.0012
17916W        W33385  15.051  11.076   3.428 -0.3489  0.0413  0.1655
17917W        W33386  10.697   1.223  14.112  0.0124  0.2194 -0.1780
17918W        W33387  18.093  13.810  15.645 -0.2838  0.1151 -0.1101
17919W        W33388   8.333   7.880  12.043 -0.1546 -0.0303 -0.1830
17920W        W33389   0.423  17.242   1.042  0.0330  0.2756  0.2726
17921W        W33390   7.442   2.111  11.202 -0.1489 -0.0985 -0.0942
17922W        W33391   8.514  14.556  15.068  0.1659  0.1190  0.1727
17923W        W33392   2.836   8.023   3.428 -0.0673  0.0589  0.0822
17924W        W33393  15.301   0.270   4.171 -0.0629 -0.3377  0.1614
17925W        W33394  13.150   2.154  11.076 -0.0779  0.2706  0.1211
17926W        W33395   3.395   8.414   2.749  0.1347  0.1800  0.1560
17927W        W33396  11.845   6.596   3.874  0.1722 -0.1891  0.2078
17928W        W33397  17.879  14.301  14.115 -0.0338 -0.1353 -0.2193
17929W        W33398  10.869   3.799   3.643 -0.1176 -0.2015  0.2065
17930W        W33399   4.565  17.317  15.327 -0.2909 -0.1051 -0.3453
17931W        W33400   4.219   8.671  13.584  0.0516 -0.1381 -0.1004
17932W        W33401   6.331   7.868   3.161 -0.1503  0.0242  0.1055
17933W        W33402  15.846  11.961  13.364  0.2347  0.1332 -0.0115
17934W        W33403   3.049   3.779  15.039  0.2209  0.1550 -0.0251
17935W        W33404   7.537   1.945   0.991  0.0087 -0.1020  0.0609
17936W        W33405  14.277  17.833  15.852 -0.1397  0.1826 -0.2749
17937W        W33406  14.602   7.097   6.214 -0.0801 -0.2106  0.0354
17938W        W33407  11.914  15.889  13.886 -0.0653  0.0073 -0.0676
17939W        W33408   5.599   5.510  12.445 -0.2507  0.0742  0.0254
17940W        W33409   5.946  12.046   3.034 -0.2184 -0.3981  0.0326
17941W        W33410  13.357   2.162   5.299  0.0998  0.3843 -0.0101
17942W        W33411  17.564   9.737  11.182 -0.0322 -0.0780 -0.3999
17943W        W33412  16.950   3.325  11.352  0.2000 -0.1957 -0.1432
17944W        W33413  13.082   5.953   3.201 -0.2541  0.3204 -0.4652
17945W        W33414  10.054   4.663  12.176  0.1097  0.2798 -0.0148
17946W        W33415   0.370  15.833  12.874  0.1018 -0.1373 -0.0034
17947W        W33416   2.542   2.689  14.945  0.0636 -0.0009 -0.1604
17948W        W33417   8.296   6.396   2.502 -0.0499  0.0319  0.3525
17949W        W33418  10.285   0.485   4.260 -0.1475 -0.1460  0.3484
17950W        W33419   7.789  10.149  16.040  0.1812 -0.0118  0.1979
17951W        W33420  13.086  11.800  11.985  0.4684  0.1927  0.2974
17952W        W33421   0.950  18.023   0.459 -0.1011 -0.1112 -0.0504
17953W        W33422   6.559  14.996   4.150 -0.0273  0.1537  0.1886
17954W        W33423   7.913   2.158   1.794  0.0981 -0.0587 -0.3389
17955W        W33424   6.104   0.608  15.868 -0.1408 -0.0603  0.2849
17956W        W33425   1.213  12.789   3.623  0.0136 -0.2411  0.0511
17957W        W33426  18.002   4.832   2.097 -0.1899  0.0006 -0.0519
17958W        W33427   7.293   3.261  13.439 -0.1402  0.3535 -0.0206
17959W        W33428  13.648  15.322   3.686 -0.2075 -0.0417 -0.0360
17960W        W33429  17.530   2.082   0.133  0.3210  0.0908 -0.1823
17961W        W33430  13.424   0.755  14.564  0.0188  0.0799  0.3618
17962W        W33431   9.309  14.509  13.238 -0.2896 -0.1428  0.2074
17963W        W33432   0.712   7.816  13.479 -0.0833  0.1259  0.0984
17964W        W33433  11.981  12.331   4.260  0.2070  0.2264 -0.2174
17965W        W33434  11.541  10.304  15.845  0.0653  0.0782 -0.0317
17966W        W33435   1.991  10.944   0.805  0.2856 -0.1740  0.1711
17967W        W33436   8.504  14.046  11.337  0.0887 -0.2443 -0.2297
17968W        W33437   8.085  10.306   1.379  0.1212 -0.1625  0.2658
17969W        W33438  11.446   6.729  12.795 -0.2000 -0.1650  0.0688
17970W        W33439   7.568  17.876  12.104  0.2145 -0.2807  0.0536
17971W        W33440  13.055  17.501   1.748 -0.1086 -0.0686 -0.4394
17972W        W33441   4.478  15.251  12.071 -0.2324  0.0776  0.1045
17973W        W33442  17.525  13.828  14.846  0.2332  0.1123 -0.2108
17974W        W33443  15.319   8.885  15.152 -0.0462 -0.0687  0.0377
17975W        W33444   9.973  16.505  13.964  0.2390  0.2268 -0.0706
17976W        W33445   7.025  13.989  15.933  0.1869 -0.2383  0.1791
17977W        W33446  17.067   7.222  12.725  0.2028 -0.2444 -0.0496
17978W        W33447   8.792   4.670   2.144  0.1812 -0.0756 -0.1753
17979W        W33448  10.247  10.825   2.933  0.1830 -0.3283  0.1774
17980W        W33449   0.165  14.417  14.068  0.4093  0.4002 -0.0404
17981W        W33450   0.357   2.778   0.324  0.1413  0.1220 -0.0470
17982W        W33451   8.127   1.539   1.029  0.5450 -0.3303 -0.2542
17983W        W33452   2.479  13.358  11.605  0.1662 -0.3285  0.0044
17984W        W33453  13.222  10.093   4.324 -0.2604  0.3448 -0.1939
17985W        W33454   9.166   2.430  10.685  0.0681 -0.0495  0.2803
17986W        W33455   5.400  10.366   5.904  0.0482 -0.2620 -0.2595
17987W        W33456  10.521   3.385   1.163 -0.1944 -0.0972  0.2908
17988W        W33457   9.121  14.863  11.726 -0.0379 -0.0966  0.0830
17989W        W33458   1.594   7.458  13.038  0.0877  0.0542 -0.0922
17990W        W33459  15.652  17.152   4.008 -0.0881  0.0853 -0.0926
17991W        W33460   2.230  13.018  11.352  0.3749 -0.0237  0.0170
17992W        W33461   1.087  14.370  11.365 -0.0982 -0.2030 -0.0717
17993W        W33462   6.167  15.595  15.045 -0.4280 -0.4145 -0.1822
17994W        W33463  11.589   6.383  12.407  0.2522 -0.1855 -0.2568
17995W        W33464  11.205  11.557   3.599  0.0360  0.3827 -0.1346
17996W        W33465   1.229   2.432   1.260  0.0882 -0.0547 -0.0089
17997W        W33466   4.389   7.984  11.498  0.0078 -0.1169  0.1560
17998W        W33467  10.776  12.122   4.020 -0.3439  0.2027 -0.3142
17999W        W33468   1.274   9.003   4.975 -0.2272 -0.0555 -0.0082
18000W        W33469  17.504   8.241  10.125 -0.1940 -0.1343  0.0424
18001W        W33470  12.830  11.774   3.933 -0.0743 -0.0964  0.3544
18002W        W33471   7.117  14.056  15.362  0.2469  0.0019  0.1229
18003W        W33472  11.072   0.993  11.324  0.0036  0.1269 -0.0897
18004W        W33473   8.657  18.260  10.745 -0.1542  0.0679 -0.0844
18005W        W33474  10.829   2.436  15.967  0.3211  0.1574  0.1198
18006W        W33475   7.775  10.754   0.428  0.0174  0.0550  0.1678
18007W        W33476  11.579  17.741  12.206 -0.1747  0.0576  0.1023
18008W        W33477   8.259   6.297   0.437 -0.3099  0.3094  0.2570
18009W        W33478  17.430  10.941   0.711 -0.0663 -0.0750 -0.0166
18010W        W33479  13.612   4.840  14.468 -0.0628 -0.0682  0.0198
18011W        W33480  15.179   9.423  15.260  0.2114 -0.0994  0.3889
18012W        W33481   7.526   5.757  14.263 -0.3495 -0.2361  0.1516
18013W        W33482  16.529   9.964   2.005  0.0953  0.1895 -0.0717
18014W        W33483  12.318   1.105   3.365  0.3451 -0.0930  0.1585
18015W        W33484   1.825   5.667  15.278  0.0306 -0.0846  0.2516
18016W        W33485  16.129   7.318   5.059  0.2156 -0.3918  0.2688
18017W        W33486   6.592   2.619  13.029  0.0207 -0.1055  0.1601
18018W        W33487   1.959   1.302  13.014 -0.1580  0.2103  0.3467
18019W        W33488  17.234   8.517   4.923  0.0213 -0.1249 -0.2938
18020W        W33489  13.144  16.801   2.543  0.1148 -0.1688 -0.0152
18021W        W33490   4.502   6.448  13.803 -0.0677 -0.0204 -0.0985
18022W        W33491   2.714  18.122   1.342 -0.1588  0.3255  0.0854
18023W        W33492   4.925  12.856   5.338 -0.1543 -0.2908  0.1215
18024W        W33493   9.191  17.958   3.768 -0.0551 -0.2512  0.3217
18025W        W33494   0.089   7.087   0.549 -0.2440  0.1574 -0.0777
18026W        W33495  11.421   2.647  12.519  0.1901 -0.0458 -0.0470
18027W        W33496   6.345   7.417  14.886 -0.2252 -0.0338 -0.2011
18028W        W33497  12.288  17.259   2.645 -0.1410 -0.1156 -0.1619
18029W        W33498  10.150   3.714   2.660  0.0120  0.1101  0.1409
18030W        W33499   3.746   3.444  14.735 -0.0635 -0.1382  0.0997
18031W        W33500  16.595   2.840   2.518  0.2586 -0.2364  0.1575
18032W        W33501  12.903   8.863   0.961  0.2303 -0.0789 -0.2494
18033W        W33502  10.619   2.537   1.304  0.0478 -0.0913  0.1504
18034W        W33503  10.837  13.383   0.098 -0.1911  0.2296 -0.1043
18035W        W33504   0.632  12.934  11.143  0.0599 -0.0519  0.0299
18036W        W33505   9.405   2.370  13.898 -0.1851  0.4070  0.3423
18037W        W33506   0.313  16.837  13.517 -0.2151  0.0226  0.1141
18038W        W33507  16.595   0.824  13.095  0.0192  0.1419  0.0213
18039W        W33508  17.245  11.199  13.762  0.1114 -0.0094  0.1962
18040W        W33509  11.940  14.934   4.543  0.0038  0.0121 -0.0207
18041W        W33510   5.841  17.477  11.373  0.0221  0.0981  0.2878
18042W        W33511  14.976  10.763  14.144 -0.3869 -0.1758  0.0002
18043W        W33512   2.291  14.056   1.388 -0.0772 -0.1145  0.1415
18044W        W33513   8.120   4.394  11.035 -0.0952  0.2499  0.3135
18045W        W33514   7.520   5.594  14.962  0.2008 -0.2189  0.0726
18046W        W33515   4.272   7.256   5.666 -0.2006 -0.0286 -0.0332
18047W        W33516  15.530   3.333   0.643  0.3730 -0.0572 -0.3185
18048W        W33517  11.702  10.199  12.008 -0.1423  0.0786  0.0225
18049W        W33518  12.888  13.254  14.117 -0.1480 -0.3658 -0.0750
18050W        W33519  16.939  12.629   2.913  0.3210 -0.0708  0.2052
18051W        W33520  12.468  12.078  14.790 -0.2887 -0.0035  0.0493
18052W        W33521  11.643   6.950  13.809 -0.1991  0.1619  0.0767
18053W        W33522   8.681  16.840   4.912 -0.0895  0.2203 -0.1979
18054W        W33523  13.478  11.435   2.693  0.1321  0.1486 -0.2209
18055W        W33524  17.481  17.429  15.044 -0.3454 -0.0254 -0.2809
18056W        W33525   3.210  16.168  12.606 -0.1596 -0.2274  0.0956
18057W        W33526   1.244   2.977   0.204 -0.1584  0.0243 -0.1018
18058W        W33527  15.404  12.933   3.766 -0.0699 -0.4665  0.0760
18059W        W33528  16.697   8.596  14.196 -0.3012  0.2491  0.0717
18060W        W33529  17.555  11.109  11.222  0.0616 -0.1862 -0.0010
18061W        W33530   7.183   4.427   5.639 -0.0172  0.1295 -0.1911
18062W        W33531  14.955   3.961  11.048  0.1666  0.4498 -0.0395
18063W        W33532  17.856   7.442   3.323 -0.2344  0.3101 -0.0767
18064W        W33533   7.561  11.859  15.042 -0.0933  0.1049 -0.1345
18065W        W33534   5.754   2.301   1.105 -0.0860 -0.0494  0.0837
18066W        W33535   3.973   2.502  14.588  0.1660 -0.1932  0.1263
18067W        W33536  15.570  11.093   3.332 -0.1845 -0.0835 -0.0081
18068W        W33537  18.034   7.138   0.870  0.0393 -0.2049 -0.0363
18069W        W33538   8.989   9.672   2.562  0.3255 -0.0977 -0.2690
18070W        W33539  14.635  18.227  11.682  0.0707  0.0371 -0.0163
18071W        W33540  13.536  15.230   1.981 -0.0114  0.0876  0.0606
18072W        W33541   7.600  12.582   4.190  0.0376 -0.1119  0.0071
18073W        W33542  15.659   6.342   1.892  0.1294 -0.0053 -0.3530
18074W        W33543   7.442  16.743   4.033  0.1678 -0.2011 -0.0213
18075W        W33544   9.815   5.842   4.230 -0.0079  0.1677  0.0650
18076W        W33545   7.459   1.513  15.379  0.0009  0.3256 -0.0620
18077W        W33546   7.020   4.977   0.878 -0.1394  0.0578  0.3043
18078W        W33547  17.564  16.941   1.057 -0.1287 -0.3113  0.3190
18079W        W33548  11.977   5.103   1.617  0.1513  0.0575 -0.0173
18080W        W33549   7.024   0.279   4.903  0.4820  0.0413  0.0998
18081W        W33550   3.145   4.715   2.187 -0.0340 -0.2372  0.3106
18082W        W33551  15.380   3.146   3.649  0.1149 -0.0254 -0.1588
18083W        W33552  15.220   4.250   3.057 -0.0564 -0.2379  0.2107
18084W        W33553   1.685  10.687   1.569  0.0301 -0.1806 -0.0049
18085W        W33554  11.902   2.542   4.550 -0.0902 -0.1863 -0.0559
18086W        W33555   5.381  15.007   1.429 -0.2915  0.0629 -0.1022
18087W        W33556   0.620  16.915  13.042 -0.2751 -0.1963 -0.0495
18088W        W33557   8.341   2.677  12.549 -0.0762  0.0625  0.2033
18089W        W33558   2.636   0.973   2.041 -0.3007 -0.0748  0.3433
18090W        W33559  11.762   4.755  10.747  0.0780 -0.0510  0.2338
18091W        W33560   2.870   1.253   2.937 -0.0587 -0.1517 -0.1272
18092W        W33561  10.823  13.708   2.339 -0.0557 -0.0814 -0.0488
18093W        W33562   7.078   2.829  10.864 -0.0055 -0.3833  0.4116
18094W        W33563  16.572  18.090   4.458  0.0551 -0.0709  0.0082
18095W        W33564  14.442  12.319   5.132 -0.0151  0.3881  0.1324
18096W        W33565   0.043   3.531   5.666 -0.1729 -0.1622  0.0552
18097W        W33566   8.849  18.092   2.943 -0.1430 -0.0195 -0.0063
18098W        W33567  11.337   3.932  15.900  0.0837 -0.3107  0.1220
18099W        W33568   5.941   4.790   0.080  0.0675  0.0265 -0.0737
18100W        W33569  17.329  14.087   3.737  0.2674  0.0348 -0.1923
18101W        W33570   1.152  16.968  13.048  0.0910 -0.2139 -0.0758
18102W        W33571   4.282  12.548  14.286  0.2364 -0.0260 -0.0109
18103W        W33572   7.621  11.452  11.398 -0.0761 -0.1803  0.0984
18104W        W33573  13.151   2.493   1.765 -0.0217 -0.0639  0.0448
18105W        W33574  15.910   4.773   3.497  0.2758 -0.0277 -0.2792
18106W        W33575  12.878   9.100  15.628 -0.0011  0.2807  0.2070
18107W        W33576  12.912   2.419   2.808 -0.0382 -0.1499  0.0439
18108W        W33577  11.712  13.344  15.147 -0.2711 -0.1507  0.1272
18109W        W33578  17.648  15.771   1.765 -0.1203  0.0723 -0.0378
18110W        W33579   3.054  17.624   2.114 -0.1759  0.2245  0.0026
18111W        W33580   6.447   4.721  14.077  0.2547  0.0705  0.0879
18112W        W33581  11.191   9.206  13.503  0.1170 -0.1220 -0.2802
18113W        W33582  11.328   3.430   5.533  0.0864 -0.1763  0.0217
18114W        W33583   0.661   3.364  13.068 -0.1237 -0.4142  0.0312
18115W        W33584   8.002   1.486  12.349  0.2589  0.0697  0.2560
18116W        W33585   6.723   8.175  14.355  0.3570 -0.1811 -0.1448
18117W        W33586  16.834  13.184   4.131  0.0443  0.0179 -0.0429
18118W        W33587  10.803  16.189  14.126 -0.1272  0.2006 -0.1637
18119W        W33588   3.558   0.993  13.178  0.2289  0.2671 -0.0530
18120W        W33589   5.982   4.434   4.948 -0.0408 -0.1590 -0.0362
18121W        W33590   7.841  11.884   1.502  0.0876 -0.1427 -0.2295
18122W        W33591   1.519   6.106  15.479  0.1524 -0.0270  0.1427
18123W        W33592   0.948   6.790   0.494 -0.0435  0.0417 -0.0917
18124W        W33593   6.573  17.519   1.167  0.2066  0.0752 -0.0865
18125W        W33594   0.086   3.476   2.397 -0.4066  0.0822 -0.0058
18126W        W33595   2.753  12.364   0.346 -0.1908  0.1847 -0.0124
18127W        W33596   8.825  14.516   4.090 -0.0531  0.2013  0.0877
18128W        W33597  17.778   7.434   0.472 -0.0951  0.1536  0.0195
18129W        W33598  12.272   0.230  11.675 -0.0301 -0.2121  0.5691
18130W        W33599   0.843  16.211   0.275  0.0575 -0.0420 -0.0759
18131W        W33600   7.051   9.947  15.376 -0.1371  0.3837 -0.1859
18132W        W33601   5.564  10.557   4.266  0.1742  0.2882 -0.0598
18133W        W33602   1.627  14.722   5.124  0.3173 -0.3021 -0.2064
18134W        W33603   2.717  15.346   4.886  0.1259  0.0568  0.2486
18135W        W33604   0.872   9.531  12.385  0.2833  0.3456 -0.0453
18136W        W33605  16.324  12.715  11.463  0.2766  0.3681 -0.2118
18137W        W33606   2.080   3.893   0.879  0.0970  0.0550  0.0769
18138W        W33607   9.245  13.876  14.511 -0.1338  0.3796 -0.0238
18139W        W33608   9.829  10.639   3.198 -0.1490 -0.0947 -0.3322
18140W        W33609  16.436   6.049  16.056 -0.0635 -0.2289 -0.0910
18141W        W33610  17.122  16.154  12.085 -0.0252  0.0853 -0.0784
18142W        W33611  17.706   9.427  13.927 -0.1993 -0.1749  0.2140
18143W        W33612  17.157   0.364  15.824 -0.4411 -0.1975 -0.0091
18144W        W33613   9.205   9.052   3.953 -0.1983 -0.0205 -0.2023
18145W        W33614   8.439   8.883  16.003  0.2195 -0.0286  0.1831
18146W        W33615   8.691   1.353  12.559 -0.0610 -0.2306 -0.1466
18147W        W33616  14.350   3.683   1.985  0.0218 -0.2972  0.1886
18148W        W33617  13.505  10.317  11.471 -0.1362  0.0392  0.0901
18149W        W33618  12.213   3.198   5.110 -0.1777 -0.0677 -0.0372
18150W        W33619  13.998   2.355  11.311  0.0096  0.2807  0.0201
18151W        W33620  16.194   0.828   5.573 -0.1067  0.0662 -0.0601
18152W        W33621   5.332  12.852   3.309 -0.1331 -0.0474 -0.2550
18153W        W33622   8.019   7.286   2.281  0.0208 -0.0857  0.1636
18154W        W33623  10.864   3.235   2.447  0.4115  0.0988  0.0205
18155W        W33624  15.392   1.458  15.462 -0.2325  0.1394  0.0118
18156W        W33625   8.569   7.881   3.938 -0.1370  0.1276 -0.2217
18157W        W33626  11.011   0.274  12.583  0.1327  0.0521  0.2204
18158W        W33627   2.699  12.723  15.779 -0.0667 -0.1188  0.0857
18159W        W33628  17.460  16.179  11.771 -0.0814  0.1998  0.0030
18160W        W33629   7.600   7.593   0.312  0.1110  0.3735 -0.1895
18161W        W33630   4.708  11.386   0.105 -0.0034 -0.0065  0.2297
18162W        W33631   2.331  10.956  15.158 -0.2252  0.0022 -0.0535
18163W        W33632   7.701   3.557  13.560 -0.3514 -0.5093 -0.0795
18164W        W33633   1.708  15.797  15.857 -0.0326 -0.0270  0.2416
18165W        W33634   5.166  16.744   0.785 -0.0391 -0.0709 -0.2477
18166W        W33635   9.921   0.899   0.172 -0.0300 -0.1552 -0.3034
18167W        W33636   2.017  13.301  11.814 -0.0543  0.3583 -0.1301
18168W        W33637   1.946   4.842  12.188  0.0424 -0.4237 -0.2046
18169W        W33638   3.343   3.193   3.667  0.0045  0.3561  0.4837
18170W        W33639  14.660   9.685  10.149  0.1702  0.1017  0.0277
18171W        W33640  16.658   8.880   0.310  0.1818  0.0906 -0.1560
18172W        W33641   6.579  17.968  11.609 -0.2866 -0.0886  0.4282
18173W        W33642  17.911  10.881  12.741  0.2081 -0.3166  0.0380
18174W        W33643   1.235  17.464  12.813 -0.1872  0.1373  0.0459
18175W        W33644  12.520  12.397  15.180 -0.0079  0.0212  0.0733
18176W        W33645  17.092  17.705   3.620  0.2122  0.1636  0.1229
18177W        W33646   9.636   3.278  14.086  0.0317  0.0465  0.1291
18178W        W33647   7.962  10.249  15.470  0.2131  0.0826  0.0019
18179W        W33648  18.185   7.541   4.533  0.0797  0.2115 -0.1090
18180W        W33649  13.950   3.380   4.007 -0.0963 -0.1447 -0.3370
18181W        W33650   7.271  15.692  12.460  0.0446 -0.0873 -0.1706
18182W        W33651  14.458  13.557   2.664 -0.3591 -0.2894  0.0962
18183W        W33652   9.376  13.869  11.551 -0.0943  0.0094 -0.4128
18184W        W33653  15.129   7.679  14.013 -0.3273  0.0579  0.1241
18185W        W33654   8.780  13.675   1.478 -0.1205  0.3004 -0.2769
18186W        W33655  13.582   9.202   2.641 -0.0465 -0.1178 -0.5057
18187W        W33656   4.390   8.413   5.083 -0.1009  0.1717 -0.0872
18188W        W33657   1.922   2.742   5.120 -0.4985 -0.2034  0.0386
18189W        W33658   9.453   8.064   0.455  0.1276  0.2875 -0.3783
18190W        W33659   4.304  12.462  14.801 -0.0825 -0.1454 -0.1242
18191W        W33660  15.036  11.202  13.374 -0.0184 -0.0668 -0.0519
18192W        W33661   8.632   8.667  13.503 -0.0600 -0.1307 -0.0786
18193W        W33662   5.093   7.136  13.977 -0.2686 -0.1010 -0.0980
18194W        W33663   7.876  12.472  15.893 -0.2604  0.0867  0.0967
18195W        W33664  15.757  10.084  13.942 -0.1563 -0.3238 -0.0950
18196W        W33665   0.853  11.239   4.883 -0.1932 -0.0570  0.0732
18197W        W33666   4.585  16.038  12.309  0.0229 -0.0535 -0.0223
18198W        W33667   2.410   7.464  14.687 -0.0338 -0.2026 -0.1960
18199W        W33668  17.596   6.108   2.779  0.2551  0.2834 -0.1212
18200W        W33669  16.088   6.891   0.101 -0.1039 -0.0345 -0.0970
18201W        W33670   7.169   1.728  12.534  0.0947  0.1497 -0.0488
18202W        W33671   6.991  12.262  13.059 -0.0513 -0.1628 -0.0453
18203W        W33672   7.579   9.716   2.867  0.1512  0.4215  0.1136
18204W        W33673  13.431   2.183  13.396 -0.1836  0.6148  0.0975
18205W        W33674   9.256   9.065  12.251 -0.1721  0.1416  0.2128
18206W        W33675  16.948   9.095  11.758  0.2300  0.2950 -0.1574
18207W        W33676   6.323   3.437  13.439 -0.4234 -0.2749  0.4351
18208W        W33677  15.098   0.525   5.454 -0.1124 -0.5782 -0.1168
18209W        W33678   2.689   3.982  13.630 -0.0400  0.1647  0.0642
18210W        W33679  13.533  16.040  15.880 -0.2718 -0.0766  0.2396
18211W        W33680   8.901   4.361   1.737  0.0505  0.1212  0.0735
18212W        W33681   8.991  13.289   4.432  0.1194 -0.3749 -0.1293
18213W        W33682   6.109   9.311   3.316  0.1840 -0.1391  0.1306
18214W        W33683   8.029  17.527  12.400 -0.0483  0.2883  0.1649
18215W        W33684  10.473   6.858   3.639  0.1521  0.1815 -0.0857
18216W        W33685   3.214   5.798   3.546  0.1482  0.2289 -0.1543
18217W        W33686   4.066  10.496   2.475  0.0214 -0.2069 -0.1207
18218W        W33687  15.377   1.564  15.949  0.0953 -0.0748 -0.0708
18219W        W33688   3.988  13.859  11.133 -0.2182  0.1910  0.2777
18220W        W33689  12.991  16.500   3.063 -0.0828 -0.0974 -0.0307
18221W        W33690  12.885   5.831   4.134  0.1555 -0.0971  0.0023
18222W        W33691  15.768  11.031   2.335 -0.2842 -0.0505  0.0278
18223W        W33692  17.628   4.668  14.379 -0.2870  0.0699 -0.0017
18224W        W33693  15.761   0.470  12.047  0.0058  0.1162  0.0923
18225W        W33694   1.552   7.510   0.552  0.0955  0.2264  0.2103
18226W        W33695   9.895  17.295  15.184 -0.1338 -0.0564 -0.1428
18227W        W33696   9.429  13.583  15.246  0.1423 -0.1423  0.1157
18228W        W33697   4.739  10.044   2.298 -0.1232 -0.5008 -0.0983
18229W        W33698  11.433   4.312   1.967 -0.4595 -0.0893 -0.2890
18230W        W33699   9.508   1.671  11.982  0.5124  0.2627  0.0284
18231W        W33700   3.724  14.455  15.425 -0.2716  0.1173  0.1373
18232W        W33701  10.213   7.485   3.859 -0.2946 -0.1150 -0.0610
18233W        W33702   0.961   5.188   4.954  0.0436  0.2371 -0.1291
18234W        W33703   7.161   1.681   1.876 -0.1718 -0.1344 -0.1811
18235W        W33704   6.162  15.882   6.149 -0.0865  0.3872  0.0274
18236W        W33705  16.929  17.487   2.642 -0.1729  0.0471  0.2621
18237W        W33706  11.434   3.883   1.696  0.0543 -0.1197 -0.2333
18238W        W33707   9.870  17.326   4.926  0.2107 -0.1932 -0.3448
18239W        W33708   4.068   2.663   3.258  0.1531 -0.0591 -0.0495
18240W        W33709   0.902   9.940  14.932  0.0398 -0.1618 -0.1433
18241W        W33710  17.463   3.903   1.360 -0.2999 -0.0425  0.1873
18242W        W33711  17.511  15.753   5.267 -0.3438  0.0245 -0.1348
18243W        W33712  10.006  13.646   5.329 -0.2898  0.1202 -0.1515
18244W        W33713  10.821   2.716   2.548 -0.1994  0.0356  0.0386
18245W        W33714   1.501  15.420  13.690  0.3050  0.1773 -0.2375
18246W        W33715   3.599   2.648   3.578 -0.0688  0.1005  0.1973
18247W        W33716   6.558  10.280  11.936  0.0515 -0.1007  0.0011
18248W        W33717  10.548   3.020   1.533 -0.0440 -0.2105  0.1018
18249W        W33718   6.688  18.139  13.811  0.0346 -0.2243  0.2922
18250W        W33719  13.837   6.290   1.643  0.1550 -0.0433 -0.0603
18251W        W33720   7.759   2.267  11.594 -0.0481 -0.1767 -0.2206
18252W        W33721  15.488  11.590  13.311 -0.1370 -0.2658 -0.5161
18253W        W33722  17.852   9.313  12.545  0.2302  0.1330 -0.0622
18254W        W33723  13.786   2.128   1.479  0.0118  0.4110 -0.0686
18255W        W33724  14.304   2.926   3.944  0.2859  0.0550  0.3783
18256W        W33725   1.679  10.316  15.190  0.0213  0.0556  0.2081
18257W        W33726   0.176   2.014   1.630  0.0190 -0.2091  0.2221
18258W        W33727   1.731   7.258  11.948  0.0100 -0.0858 -0.1831
18259W        W33728  13.164  10.830  13.019  0.1631  0.1633 -0.0885
18260W        W33729   9.362  11.045   2.353  0.0354  0.0294 -0.1015
18261W        W33730  10.710  12.783  11.951  0.0729  0.0493 -0.1779
18262W        W33731  10.188   1.426   0.815 -0.4610  0.1403  0.0380
18263W        W33732   6.606  18.219   0.763  0.0477  0.0472 -0.0434
18264W        W33733  17.547  16.923  15.456  0.0225  0.2479 -0.3080
18265W        W33734  13.690   2.671   1.500  0.1531 -0.0380 -0.0304
18266W        W33735   3.768   2.204   4.451 -0.0134  0.0206  0.2034
18267W        W33736   2.294  13.040   2.263 -0.0509 -0.3332 -0.2792
18268W        W33737  11.025  14.089  11.710  0.1880 -0.0137 -0.3715
18269W        W33738  10.394  10.080   2.691 -0.0548  0.1727 -0.1314
18270W        W33739  10.439   3.491   1.661 -0.2197 -0.0174 -0.0572
18271W        W33740   2.985   8.681  11.561 -0.0704 -0.4447  0.1986
18272W        W33741   9.411   9.493   3.792  0.3024  0.0024  0.1740
18273W        W33742   5.267   7.950   4.027 -0.1410  0.0278  0.0447
18274W        W33743   9.801  16.572  14.528  0.1699 -0.2701 -0.0898
18275W        W33744  16.342  18.096   0.733 -0.0610  0.0357  0.0282
18276W        W33745   8.580   1.083   2.978  0.0849 -0.1204 -0.1199
18277W        W33746   4.313   7.585   0.078 -0.2051 -0.3009 -0.2166
18278W        W33747   6.781  17.470  11.136  0.2782 -0.0101 -0.0543
18279W        W33748   0.029  12.241   3.827 -0.0505 -0.0296  0.2723
18280W        W33749  10.739  13.765  12.887 -0.0954  0.1665 -0.1488
18281W        W33750   2.232  15.768  11.411 -0.2169 -0.1137 -0.0553
18282W        W33751  12.645   1.816  11.777 -0.1467 -0.0257 -0.0622
18283W        W33752   2.586   2.233   1.148  0.0618  0.0242 -0.1116
18284W        W33753   0.305   1.337  14.426  0.1543  0.0283  0.1109
18285W        W33754   9.463  11.572   2.259 -0.1458  0.1100  0.1417
18286W        W33755   7.576  18.243  13.330 -0.1181  0.0851  0.0809
18287W        W33756   4.856  12.227   2.361 -0.1898  0.1324  0.0258
18288W        W33757  12.484   5.186   5.682 -0.2182 -0.0681 -0.2823
18289W        W33758  17.857  10.724   0.600 -0.0529  0.1983 -0.0097
18290W        W33759  10.746  15.644   0.529 -0.4131  0.3841  0.1764
18291W        W33760   1.420   9.312   2.603 -0.0791 -0.1534  0.1595
18292W        W33761  12.642   3.021   5.288  0.1044  0.0735 -0.0637
18293W        W33762   3.319   0.944   1.118  0.2022  0.0286 -0.0130
18294W        W33763   9.610   8.227  10.929  0.2742 -0.0975 -0.1557
18295W        W33764  14.790  15.510  12.008  0.0574 -0.1158 -0.0274
18296W        W33765  10.325  15.604   3.249  0.1231 -0.1744 -0.0496
18297W        W33766   7.088  10.830  11.135  0.0398  0.1036  0.1968
18298W        W33767   6.515  12.637  13.155  0.0887  0.0650  0.0799
18299W        W33768  13.499   4.671  15.257  0.1495 -0.0677 -0.0194
18300W        W33769  10.203  18.115   4.642 -0.0004 -0.1701 -0.2194
18301W        W33770   1.640   6.727  12.631 -0.0132  0.1229 -0.0682
18302W        W33771  18.186   7.171   3.610 -0.0303 -0.2941 -0.2028
18303W        W33772   9.189  15.151  14.789  0.1889  0.0776 -0.1810
18304W        W33773  10.205  14.801  13.618 -0.3574 -0.1443 -0.1562
18305W        W33774  16.752  16.500  13.507  0.0826  0.2427 -0.0453
18306W        W33775   3.096  16.283   3.677 -0.3209  0.4104  0.1138
18307W        W33776   7.277   0.557  12.627  0.0828  0.0925 -0.0276
18308W        W33777   5.057   7.749   2.432  0.0997 -0.1235 -0.0525
18309W        W33778  14.427   0.708   2.313  0.1168  0.0741 -0.1136
18310W        W33779  16.527  12.314   2.083  0.0649  0.2390 -0.0929
18311W        W33780   4.689   3.095   5.107 -0.0380 -0.3278 -0.1646
18312W        W33781  16.699  15.144   3.795 -0.0181 -0.2252 -0.2936
18313W        W33782   9.945  15.057  11.972  0.0917  0.1401 -0.0465
18314W        W33783  15.653   1.808   4.868 -0.2424 -0.1754  0.2329
18315W        W33784  13.356   0.455  11.784 -0.0973  0.2052  0.3240
18316W        W33785   8.631  17.112  13.238 -0.0410 -0.2543 -0.1018
18317W        W33786  12.265  18.099  14.608 -0.0081 -0.2517  0.0599
18318W        W33787   7.589  15.924   4.810 -0.3952 -0.2030  0.3740
18319W        W33788   4.351  14.546   2.200  0.2677 -0.0435 -0.4174
18320W        W33789  14.101  13.708   0.660  0.1061 -0.0301 -0.1091
18321W        W33790  13.460   7.709   0.924 -0.1907 -0.1504 -0.1291
18322W        W33791   9.451  12.771   2.601 -0.0834 -0.2882  0.0921
18323W        W33792   8.341   4.589  13.694 -0.0801 -0.1296  0.4126
18324W        W33793   5.729  15.969  12.029  0.2804 -0.0065  0.0932
18325W        W33794   0.903   8.357   5.157 -0.2580 -0.1174  0.3613
18326W        W33795   6.134   6.578   1.287 -0.0415 -0.0382  0.1913
18327W        W33796  16.966   5.227   2.228 -0.1516 -0.1984 -0.1333
18328W        W33797  18.125   1.413  15.185  0.0775 -0.0042 -0.1490
18329W        W33798   5.873   4.413  13.188 -0.2620  0.1365  0.0006
18330W        W33799   2.920  18.204  10.301  0.3942 -0.2014  0.0359
18331W        W33800  11.793   9.192  11.381 -0.1299  0.1194 -0.3016
18332W        W33801   6.219  10.718  14.464 -0.2694 -0.0088 -0.1252
18333W        W33802   2.375  10.079   5.124 -0.0038  0.4083 -0.0380
18334W        W33803   3.361   3.494  10.928 -0.1641  0.1272 -0.3204
18335W        W33804  15.047   0.719  14.954  0.0597  0.0803 -0.0563
18336W        W33805   2.720   2.390  13.322 -0.0114  0.0365  0.1030
18337W        W33806  10.935  10.252  10.563  0.1105  0.1371 -0.2721
18338W        W33807   8.317  17.929  10.063 -0.0634 -0.3453  0.2666
18339W        W33808  17.435   6.289   1.863 -0.0542  0.3367  0.0478
18340W        W33809   0.292  16.698  14.194  0.0933  0.2246 -0.1764
18341W        W33810  15.973   0.647   2.792  0.0558 -0.1996 -0.0039
18342W        W33811   9.638   6.477  13.990 -0.1277 -0.0504 -0.4650
18343W        W33812  16.455   1.415   4.359 -0.3652 -0.1250  0.4869
18344W        W33813   2.384  13.373   3.091 -0.1169  0.0915  0.1352
18345W        W33814   9.537   3.943   3.268  0.1095 -0.0166  0.2140
18346W        W33815  16.208  16.927   2.299 -0.1088  0.2928 -0.0184
18347W        W33816   4.105  12.152  12.780  0.0570 -0.1321  0.1142
18348W        W33817   4.943  12.651  11.210  0.0168 -0.1603  0.4567
18349W        W33818  17.417   6.660   0.094  0.3458  0.0941  0.1198
18350W        W33819   2.195   2.724  13.713 -0.2714  0.1665  0.1582
18351W        W33820  12.277  11.382   0.728 -0.0981  0.0505 -0.0188
18352W        W33821   0.291  17.976  15.536  0.0018 -0.0176 -0.0868
18353W        W33822   5.001  16.889  16.075  0.2347 -0.3809  0.0323
18354W        W33823  14.189  17.585   5.995 -0.0382 -0.3152  0.0487
18355W        W33824   8.921  18.031  14.570  0.0076 -0.3361  0.1822
18356W        W33825  11.958  11.775  14.100 -0.0964  0.0035 -0.0422
18357W        W33826   4.099  10.310  12.466  0.0447  0.0239 -0.2882
18358W        W33827  13.129  13.550   0.213  0.0901  0.1782 -0.2336
18359W        W33828  17.241  15.891  15.479 -0.2648  0.0963  0.0776
18360W        W33829  16.966   6.999   2.706 -0.2554  0.1911 -0.2076
18361W        W33830   2.396  15.599  11.819  0.2364 -0.0889 -0.1087
18362W        W33831   9.039  14.021   3.142 -0.0843  0.4513 -0.0435
18363W        W33832  15.809   5.439   0.144 -0.0770  0.2969  0.3564
18364W        W33833  11.088  14.910   0.161  0.3087  0.0182 -0.0332
18365W        W33834   6.658   5.201   1.479 -0.1424 -0.0933 -0.0606
18366W        W33835   1.933   5.431  13.932 -0.1804  0.1834  0.1170
18367W        W33836  11.851   3.726   4.525 -0.1585  0.1662 -0.3015
18368W        W33837   8.729   1.156  13.476  0.1648  0.2015 -0.1899
18369W        W33838  10.984   7.379   4.505  0.1727  0.0931  0.0839
18370W        W33839   4.206  10.756  14.272 -0.3346 -0.0968 -0.1733
18371W        W33840   5.535   4.482  15.044  0.0036 -0.1903 -0.2008
18372W        W33841   6.070   1.122   0.563 -0.1509 -0.0302 -0.0970
18373W        W33842  12.004   3.595  13.182 -0.1850  0.0434  0.0791
18374W        W33843   1.063   7.820  16.107  0.2918  0.0575 -0.0991
18375W        W33844  17.236  10.436  11.042  0.1437  0.0762  0.0042
18376W        W33845   9.214   3.803  12.835 -0.0036  0.0497 -0.0835
18377W        W33846  14.232  16.153  12.328  0.3378 -0.2185 -0.3293
18378W        W33847   6.681  18.264  14.913  0.0371  0.3945  0.2081
18379W        W33848  13.467  17.045  14.350  0.0793  0.1237 -0.1560
18380W        W33849  17.232  15.515   4.931 -0.0257  0.3861  0.1886
18381W        W33850  15.719   2.145  12.502 -0.0210 -0.1610  0.0606
18382W        W33851   8.447   5.839   0.460  0.0798  0.1608 -0.0203
18383W        W33852   4.089   7.611  12.459  0.0223  0.2003 -0.0043
18384W        W33853   8.179   7.445  11.098 -0.0904  0.2785 -0.0340
18385W        W33854   0.843   7.610  12.399 -0.2108 -0.0726 -0.0390
18386W        W33855   2.248   4.796   0.175  0.4399 -0.0522 -0.1757
18387W        W33856   7.860   0.999  12.955 -0.2958 -0.2342 -0.0424
18388W        W33857   3.856   9.790  14.372  0.0180 -0.1637  0.0722
18389W        W33858  11.941  10.932  14.131  0.0020 -0.1800 -0.0251
18390W        W33859   1.296   5.110  14.588 -0.1878 -0.3137 -0.1293
18391W        W33860  11.301  13.309  15.935 -0.2628 -0.0679  0.1383
18392W        W33861   7.949  12.024   4.908 -0.1509 -0.1363 -0.0289
18393W        W33862   6.023   3.268   1.943 -0.2428 -0.2841  0.2037
18394W        W33863   9.583   9.730  11.369 -0.0232  0.2937  0.5238
18395W        W33864  14.187   6.797   5.328  0.1532  0.0498 -0.0040
18396W        W33865   5.436   0.050   2.129  0.1020 -0.1235  0.0197
18397W        W33866   6.034   6.034  11.331 -0.0596 -0.1820  0.0039
18398W        W33867   3.570  17.104   2.541 -0.0451 -0.0500  0.4733
18399W        W33868   0.535   4.651   3.845  0.1586 -0.0911 -0.0118
18400W        W33869  14.618   3.936   4.779  0.1962  0.1316 -0.0287
18401W        W33870  17.008  17.543   0.075 -0.1117 -0.1410 -0.0498
18402W        W33871  17.222  13.222   5.090 -0.2447  0.5142  0.1809
18403W        W33872   6.391   3.643  11.527  0.1452 -0.2363  0.1211
18404W        W33873   1.964  12.835   0.818 -0.0733 -0.1847  0.1213
18405W        W33874  16.516   0.951  15.183 -0.3117 -0.4218 -0.1030
18406W        W33875   3.286  10.214   2.157 -0.3222  0.0004 -0.3344
18407W        W33876  11.760  16.982  14.011 -0.1669 -0.0743 -0.3253
18408W        W33877   1.987   2.241   0.134 -0.2418  0.0028 -0.2168
18409W        W33878  18.089   3.416  13.997 -0.0868  0.0614  0.3021
18410W        W33879  16.525  13.363   0.839  0.0229 -0.3793 -0.2573
18411W        W33880  16.994   1.029   4.183 -0.2802 -0.3192 -0.0316
18412W        W33881   7.492  13.594  12.874  0.1696 -0.1382 -0.1343
18413W        W33882  13.561   3.000  13.397 -0.3934  0.1034  0.2388
18414W        W33883  14.388   0.722  11.262 -0.0522  0.0090  0.1347
18415W        W33884   9.312  14.746  16.042 -0.0973  0.1485  0.0579
18416W        W33885  10.496  16.455  13.870 -0.1042 -0.1622 -0.2371
18417W        W33886   0.476  11.451   1.971  0.0635 -0.3130 -0.1041
18418W        W33887   5.967   4.850  12.148  0.0984 -0.1789 -0.3450
18419W        W33888   3.549   6.847   4.156 -0.0002  0.0232  0.1456
18420W        W33889   0.112   4.882   4.797 -0.1113 -0.3600  0.1630
18421W        W33890  14.061  11.011  11.112  0.3801  0.3863  0.0183
18422W        W33891   5.226   7.591   1.474 -0.0879  0.0735  0.0216
18423W        W33892   4.885   1.880   0.658 -0.2415  0.0139 -0.1187
18424W        W33893   3.463   3.629  12.688  0.2634  0.1929  0.0670
18425W        W33894   7.336  10.457   4.730 -0.0034  0.0281 -0.0476
18426W        W33895   7.178   0.233   3.176  0.0493  0.0748  0.2077
18427W        W33896   3.672   7.846  12.564  0.1907 -0.0514 -0.2067
18428W        W33897   4.713   5.456   4.501  0.2414  0.0306  0.0305
18429W        W33898  14.924   2.167   2.864  0.0096  0.1826  0.0967
18430W        W33899   9.483   0.055   4.700  0.0938 -0.2478  0.0107
18431W        W33900  12.997  15.841  12.074  0.1849  0.1448 -0.2137
18432W        W33901   4.660   6.915  15.082  0.2607  0.0499 -0.1372
18433W        W33902  14.785  10.104   2.599  0.1224  0.2544 -0.0169
18434W        W33903  11.381  11.914   1.066 -0.0332  0.0240  0.4583
18435W        W33904  14.461   2.640   4.318 -0.0293 -0.0034  0.2499
18436W        W33905   5.287  15.814   0.682  0.1113 -0.3158 -0.1202
18437W        W33906  17.184   3.483  15.531  0.0534  0.0269  0.0064
18438W        W33907  11.470   8.895   2.204  0.0345  0.0957  0.0474
18439W        W33908  12.427   1.785  11.293 -0.0937  0.0011  0.1116
18440W        W33909   8.812   0.007  11.789  0.0630 -0.2122  0.0527
18441W        W33910  10.484   8.214   4.525 -0.2094  0.1954  0.1068
18442W        W33911  14.576   4.888  14.905  0.2572  0.0252 -0.0618
18443W        W33912  12.974  18.145   1.414 -0.0224 -0.2441 -0.0325
18444W        W33913   1.805   7.383  11.488  0.1177  0.0706  0.2423
18445W        W33914  14.600   9.485  10.684  0.1110  0.2589 -0.0936
18446W        W33915  18.015  13.874   4.193 -0.1149  0.1371  0.0196
18447W        W33916  12.154   2.025  13.386 -0.1237 -0.1466  0.1290
18448W        W33917  11.018   7.016   1.229  0.0935 -0.2690 -0.3426
18449W        W33918   7.117   8.441   3.922  0.0838  0.2043  0.0383
18450W        W33919   4.905  11.845   5.508 -0.0395  0.2720 -0.0731
18451W        W33920   1.477   6.254  14.565  0.0001  0.0649 -0.1460
18452W        W33921  15.144   5.467   5.483  0.0229 -0.0097  0.1640
18453W        W33922  16.301   0.192   4.131  0.4227  0.1863  0.1672
18454W        W33923   9.946  15.394  12.553 -0.3166 -0.0507  0.1726
18455W        W33924   4.038   8.994  14.360  0.0744  0.0751  0.1080
18456W        W33925   9.124  17.311  11.568 -0.0241  0.2281 -0.1104
18457W        W33926  17.089   5.320  11.056  0.0189 -0.0061 -0.1596
18458W        W33927   4.482  13.353  16.089  0.2196  0.0088  0.0858
18459W        W33928  15.120   7.628  15.624 -0.0463 -0.2000  0.0563
18460W        W33929   9.815  11.787  15.437  0.0402  0.1747 -0.2516
18461W        W33930  10.746  15.120   4.315  0.0416  0.3064 -0.2440
18462W        W33931  13.339   1.819  15.492 -0.0988  0.1105  0.1487
18463W        W33932   4.106  11.294   5.887 -0.0542  0.3524 -0.2445
18464W        W33933  10.501  16.649   4.845 -0.0842 -0.0246 -0.2272
18465W        W33934  16.237   4.700  13.618 -0.1095  0.0828  0.1709
18466W        W33935   8.709   5.829  15.570  0.1449  0.0006 -0.2951
18467W        W33936  11.877   1.045   2.670  0.2820 -0.0995 -0.1969
18468W        W33937   1.229  15.393  11.225  0.0692 -0.1608  0.2092
18469W        W33938   4.904  17.746   3.631 -0.2695 -0.3168 -0.0791
18470W        W33939   4.684  13.860  11.960  0.1458  0.0957  0.0681
18471W        W33940  14.299   0.935  14.774 -0.0967  0.0451  0.0069
18472W        W33941  10.592   1.325   5.422 -0.0567 -0.0423  0.1796
18473W        W33942   9.623   5.959  13.798 -0.0141 -0.1265  0.2046
18474W        W33943  12.328  10.422   4.029 -0.0096  0.1658 -0.2015
18475W        W33944  17.808  12.115  11.020  0.1465  0.1509 -0.3388
18476W        W33945  12.054  12.731  15.875  0.1182  0.0711  0.0148
18477W        W33946  10.321  18.250   3.536  0.1795  0.1327  0.0922
18478W        W33947   3.638  11.277   5.625  0.3252 -0.1421  0.2434
18479W        W33948   3.085   9.423   1.375 -0.0165  0.1373 -0.0129
18480W        W33949  17.479  18.188   2.940 -0.0710 -0.1784 -0.2807
18481W        W33950   6.788   3.979  10.528  0.0850  0.1981  0.0307
18482W        W33951   9.492   2.724  13.406 -0.2023  0.2164 -0.0264
18483W        W33952   5.354   1.877   4.751  0.0068 -0.1199 -0.3281
18484W        W33953  12.889  11.287  14.330 -0.1582 -0.2377  0.3649
18485W        W33954   8.935   5.038   0.479  0.0999  0.1928  0.3383
18486W        W33955  11.436   1.447  13.512 -0.1105 -0.1972  0.2397
18487W        W33956  15.268   1.331   3.045 -0.5687  0.0030 -0.0835
18488W        W33957  14.435  17.214  15.848 -0.1910 -0.0354  0.0849
18489W        W33958  11.249  18.018  12.849 -0.2885 -0.0285  0.2462
18490W        W33959  15.747   3.762  15.877 -0.1946  0.0513 -0.0536
18491W        W33960  12.538   3.312  14.389 -0.0626  0.1646 -0.0706
18492W        W33961  12.639  16.637   4.641 -0.2921 -0.0419  0.1998
18493W        W33962   3.981  16.707   2.703  0.0044  0.0614 -0.0848
18494W        W33963   6.795   1.425  15.941  0.0001 -0.0685 -0.2696
18495W        W33964  11.678  13.607  14.710 -0.1003  0.0706 -0.0516
18496W        W33965   8.550  14.845   2.793 -0.1267  0.0976  0.2273
18497W        W33966   2.071   3.802  10.071  0.1207 -0.1543 -0.1412
18498W        W33967  17.901  15.648  14.774 -0.3622  0.1723  0.0752
18499W        W33968  12.108   4.961  12.490  0.0306 -0.2984  0.1694
18500W        W33969  13.856   5.420  13.759 -0.6292 -0.2554 -0.1174
18501W        W33970  14.888  10.560   1.352  0.1739 -0.0771 -0.0680
18502W        W33971   4.005   0.423   2.521  0.0940  0.0607  0.1167
18503W        W33972   4.201   5.265  12.156 -0.1606 -0.0319 -0.0407
18504W        W33973  15.593   1.736   2.400 -0.2059  0.0977  0.1642
18505W        W33974   8.097   7.173  12.696  0.0981 -0.3398  0.0134
18506W        W33975  14.064   0.665   3.763  0.0830 -0.0666 -0.2156
18507W        W33976  10.762   2.817  12.228  0.2218 -0.2966  0.0066
18508W        W33977   2.242  15.770   6.210 -0.0721 -0.0205  0.2812
18509W        W33978   6.651   0.003  14.348  0.0473 -0.0513 -0.2350
18510W        W33979   1.372  12.445   6.173  0.1485  0.1972  0.0708
18511W        W33980   6.817   0.474   2.889 -0.0673 -0.1662 -0.1470
18512W        W33981   6.025  14.971   4.000  0.3129 -0.1141 -0.3432
18513W        W33982   2.904   3.008   2.616 -0.0174 -0.5189 -0.2457
18514W        W33983  16.370  14.916   5.252  0.0898 -0.3539 -0.0713
18515W        W33984   9.086   7.613   2.622  0.0779  0.1312 -0.3093
18516W        W33985   2.245   4.348   5.351 -0.1108  0.1704  0.0505
18517W        W33986  13.107   3.586  13.833 -0.1738  0.2160  0.1573
18518W        W33987   3.047   6.575  13.676  0.1563  0.1564  0.0428
18519W        W33988   9.137   3.720   0.226 -0.2998 -0.2268  0.1024
18520W        W33989   0.292   5.664  16.036  0.2449  0.1937  0.2580
18521W        W33990  17.246  12.087  12.260 -0.0349  0.1684 -0.0136
18522W        W33991   3.987   6.842   4.670  0.1098 -0.1182 -0.0988
18523W        W33992   6.732  14.297   0.545  0.0314 -0.0543  0.0942
18524W        W33993  17.268   8.941   5.238  0.0327  0.0521  0.1715
18525W        W33994  10.707  10.033  15.331  0.1767 -0.0141  0.0006
18526W        W33995   5.313  16.370  15.634  0.3137  0.1335  0.0362
18527W        W33996   2.040  13.540  10.230  0.1603  0.0666 -0.2985
18528W        W33997   5.723   7.001   3.410 -0.1207 -0.0443 -0.0524
18529W        W33998   0.008   2.122  13.075  0.2292 -0.1146  0.1637
18530W        W33999  10.060   1.779  13.174  0.0696  0.0905 -0.0160
18531W        W34000  17.993  16.898   0.801 -0.0298  0.2951 -0.1885
18532W        W34001   2.298   0.244   1.224 -0.0425  0.1058  0.0330
18533W        W34002  13.006   2.163   4.296  0.0557 -0.2097  0.0015
18534W        W34003  11.363  11.725   1.493 -0.3971  0.1511  0.1199
18535W        W34004  17.620   4.149  15.035 -0.0467  0.0376  0.0894
18536W        W34005  12.681   1.287  11.418 -0.1520 -0.0741  0.0246
18537W        W34006   8.470   2.890  13.501 -0.3799 -0.0810 -0.3960
18538W        W34007  17.471   6.119   4.075 -0.0142  0.2956 -0.1167
18539W        W34008   0.078  11.762  15.835  0.3321  0.1125 -0.0798
18540W        W34009   9.850   4.219  12.491  0.0662  0.3012  0.4721
18541W        W34010   8.846  10.208   4.324 -0.1837  0.2269  0.1814
18542W        W34011   3.556  13.387   0.147 -0.0584  0.0977 -0.1633
18543W        W34012   4.273   6.025  14.030  0.3036 -0.1182 -0.0931
18544W        W34013  14.290  16.024  14.662 -0.3859 -0.1015  0.0076
18545W        W34014   0.556   5.100   1.639  0.2902  0.3275 -0.0015
18546W        W34015   7.317   3.382  15.240 -0.1158  0.2371 -0.0286
18547W        W34016  14.204   1.680   3.454  0.1566  0.1110 -0.2138
18548W        W34017  16.283   5.993  12.144  0.0154  0.1909 -0.1184
18549W        W34018   4.614   1.423   3.468 -0.0197 -0.2857  0.1929
18550W        W34019   3.522  17.923   5.009  0.3157 -0.0110  0.2567
18551W        W34020  16.738   4.825   4.355  0.3705 -0.0295 -0.2220
18552W        W34021  17.711   6.395   5.748  0.0340 -0.0168 -0.0501
18553W        W34022  15.746   3.418   2.567 -0.0077  0.0811  0.0839
18554W        W34023   0.098  12.364  15.722 -0.1614  0.0416 -0.0313
18555W        W34024  10.557   9.261  14.574  0.0992  0.1628 -0.1775
18556W        W34025  13.044   9.387  11.343 -0.1790  0.3047 -0.0222
18557W        W34026   9.343  17.456  12.793  0.2210  0.1875 -0.2825
18558W        W34027  17.549   1.999  14.540 -0.0072  0.0304  0.1388
18559W        W34028  14.874   4.208  13.729 -0.0944 -0.1423 -0.1360
18560W        W34029  17.267  11.262   2.115 -0.2007 -0.0457 -0.4381
18561W        W34030   0.869   1.440   0.237 -0.1702  0.2653  0.0768
18562W        W34031  14.734   0.016  13.405 -0.0464 -0.1229 -0.0266
18563W        W34032  16.908   0.669   3.815  0.1587 -0.2120  0.1274
18564W        W34033   2.321   0.606   5.341 -0.3564 -0.4237 -0.1146
18565W        W34034   6.907   3.112   0.713  0.3198  0.0957  0.0652
18566W        W34035  14.399   5.005   5.668  0.1701  0.0254 -0.1558
18567W        W34036   4.989  12.990  15.365  0.2339 -0.0453 -0.2266
18568W        W34037   9.286   2.818  11.030  0.1094 -0.2013  0.2302
18569W        W34038  15.281   9.287   2.996  0.1106 -0.1573 -0.3351
18570W        W34039   7.627  13.463   6.123  0.2350 -0.1625 -0.0025
18571W        W34040   5.721   2.132  12.074  0.1683  0.1417 -0.3879
18572W        W34041   1.066  17.482  15.761 -0.2164 -0.1248 -0.4475
18573W        W34042   5.137   3.216  13.278 -0.0068  0.0524 -0.2579
18574W        W34043  14.708  13.088  13.326 -0.0460 -0.1172  0.0524
18575W        W34044  11.635   6.352  14.094  0.3647 -0.3408  0.0270
18576W        W34045  10.490  10.611   2.565  0.0825  0.0374  0.0540
18577W        W34046   8.141   9.015   3.129 -0.1766  0.0809  0.2550
18578W        W34047  10.141   7.786   0.865 -0.1303  0.0460 -0.0321
18579W        W34048  15.244   1.195  14.964  0.3498  0.1271 -0.2473
18580W        W34049  17.807   6.489   3.955 -0.4037 -0.0294 -0.1209
18581W        W34050  10.490  14.400  10.894  0.1549  0.1583  0.0596
18582W        W34051   1.774  10.216   3.088  0.3204 -0.2316  0.0110
18583W        W34052  17.780  10.622   4.918  0.0222  0.1353 -0.0971
18584W        W34053   0.507  16.931   3.147  0.1585  0.2305 -0.0442
18585W        W34054   9.243   4.017  13.983 -0.2117 -0.2158  0.0509
18586W        W34055  14.061   6.057   2.023 -0.3569 -0.2898  0.0244
18587W        W34056   6.891  13.200   2.623 -0.1128  0.1029 -0.1315
18588W        W34057   0.402  13.651  12.169 -0.1924  0.0083  0.0382
18589W        W34058   5.624  16.837  13.349 -0.2061  0.0982 -0.1268
18590W        W34059  18.025   9.132  10.832  0.1400 -0.1469  0.0033
18591W        W34060  10.591   7.673  12.567  0.2108 -0.2038  0.2402
18592W        W34061   0.549   9.271   4.203 -0.0818 -0.2106  0.1922
18593W        W34062  15.499   6.077   2.354  0.0610  0.0017  0.1079
18594W        W34063  12.064  17.008   2.256  0.1038  0.1123  0.0663
18595W        W34064  14.380   4.203   0.855  0.1116 -0.2036 -0.3515
18596W        W34065  18.095   9.059  15.164 -0.1041  0.1263 -0.2394
18597W        W34066   3.201  11.820  12.732  0.0044 -0.0507  0.2880
18598W        W34067  16.143  10.095  10.988 -0.2661 -0.1015 -0.2091
18599W        W34068  12.056   2.966  10.367  0.0053 -0.0135 -0.0059
18600W        W34069   6.266  14.861  15.591  0.1819 -0.4106  0.0058
18601W        W34070   6.051  13.206  14.496 -0.0180  0.0924  0.0286
18602W        W34071  14.950  15.095  12.194 -0.3059 -0.2512  0.2393
18603W        W34072  14.518   7.500   3.464  0.1996  0.1285 -0.0229
18604W        W34073   3.217   0.541  13.210 -0.2183  0.3760 -0.0811
18605W        W34074  15.004  13.299  14.682 -0.0773 -0.0338  0.1855
18606W        W34075  12.089  13.899  15.883 -0.0204  0.1421  0.0782
18607W        W34076   7.611  10.810   2.273 -0.1610  0.0406  0.0243
18608W        W34077  13.072  17.018  13.380  0.1502  0.0034 -0.0068
18609W        W34078   3.279   1.565  15.837 -0.0992 -0.1588  0.0324
18610W        W34079   4.104   2.086   3.543 -0.2261  0.3242 -0.0965
18611W        W34080   7.319  15.681   5.872 -0.0488  0.2469  0.1360
18612W        W34081   8.992   8.476  15.126  0.0201 -0.1139  0.0293
18613W        W34082   3.163   8.852   4.978 -0.0411 -0.2568 -0.0002
18614W        W34083  13.069  17.937   1.987  0.0386  0.1749 -0.2074
18615W        W34084   4.286   2.094  15.425  0.0802 -0.1291 -0.1251
18616W        W34085   5.769   7.790   2.014  0.0308  0.2622 -0.0747
18617W        W34086   7.440   3.217  13.925  0.1335  0.2209 -0.0892
18618W        W34087   8.059  17.569   1.072 -0.3810 -0.0486 -0.1621
18619W        W34088  16.812   9.910   3.911 -0.2086 -0.2910 -0.0182
18620W        W34089   4.655  14.216  14.220 -0.3861  0.2782 -0.0151
18621W        W34090   5.421   2.551  14.419  0.0480  0.0111 -0.0711
18622W        W34091  12.116  16.683   1.105  0.0826 -0.0203  0.0818
18623W        W34092   5.137  12.658   0.427  0.0195  0.0415  0.0729
18624W        W34093   0.877   5.685   2.253  0.0511  0.1842 -0.1589
18625W        W34094  14.574  16.025  15.420  0.1784  0.0447 -0.0421
18626W        W34095   9.348   6.343  15.944 -0.0503 -0.2220  0.2204
18627W        W34096   3.215   8.062   2.385  0.2413  0.0752  0.0660
18628W        W34097   8.845  12.796   2.968  0.1078 -0.2659  0.1410
18629W        W34098   5.460  16.292   5.273  0.1953  0.0050 -0.1360
18630W        W34099   9.015  16.579  13.422 -0.1103  0.3262 -0.0305
18631W        W34100   8.229  10.872  14.668  0.2543  0.2016  0.2280
18632W        W34101   1.349  17.088  15.735 -0.3731  0.0584 -0.0171
18633W        W34102   4.801   4.972  12.776 -0.1870 -0.2598 -0.0524
18634W        W34103  15.357  11.702  11.525  0.1101 -0.0025 -0.0695
18635W        W34104   3.907   0.301   4.458 -0.0158 -0.0372  0.0474
18636W        W34105   1.611   0.939  15.974  0.1236 -0.5022 -0.2441
18637W        W34106  11.220  15.505   1.943  0.0237 -0.0859  0.3127
18638W        W34107   7.797  10.770  12.327  0.0491  0.1168  0.0960
18639W        W34108  14.950  15.597   4.460  0.0106 -0.0857 -0.0741
18640W        W34109   0.755   7.620   2.766  0.2668  0.1627 -0.0832
18641W        W34110   7.985   6.709   2.820 -0.0678  0.0211  0.2116
18642W        W34111   9.833   9.690  13.279  0.2827  0.2844 -0.3470
18643W        W34112  15.772   6.019   5.625 -0.3926  0.0113  0.0556
18644W        W34113   3.485   8.755   4.629  0.2037  0.0763  0.0018
18645W        W34114   1.479   7.828   4.561  0.0727 -0.1375 -0.0815
18646W        W34115   8.525   1.373  15.894  0.0340 -0.2252 -0.1906
18647W        W34116  11.599   6.389   3.425  0.0678  0.1525  0.2460
18648W        W34117   9.131  17.377   3.735  0.1165  0.0373 -0.2074
18649W        W34118   4.496  16.151   4.606  0.1918 -0.0983 -0.0201
18650W        W34119  15.311  11.035   4.571  0.1547 -0.2560  0.1982
18651W        W34120  15.753  16.140  15.837  0.1160 -0.2507  0.0335
18652W        W34121  13.084  14.642  13.275  0.2992  0.0148 -0.0552
18653W        W34122  13.395  17.949   3.611  0.3775 -0.1313 -0.1357
18654W        W34123  12.290   7.483   3.001  0.0621  0.2017 -0.6291
18655W        W34124   6.662   1.248  13.630 -0.0448 -0.3548 -0.0360
18656W        W34125   0.761   3.984   3.369  0.1859  0.1837  0.1551
18657W        W34126  15.765   5.901  15.785  0.1225 -0.2743  0.3279
18658W        W34127  12.951   0.494  15.892  0.2132 -0.2387 -0.4303
18659W        W34128   0.836   0.842   3.590 -0.1559  0.3537  0.2102
18660W        W34129   0.087  14.967  14.299 -0.0902  0.1214  0.1470
18661W        W34130   1.817   4.724   4.413 -0.0383 -0.0715 -0.1326
18662W        W34131  13.581   6.408   3.697  0.0882  0.2569 -0.3540
18663W        W34132   1.588   0.939  15.032 -0.0830 -0.1212 -0.0880
18664W        W34133  12.667  12.382   2.658 -0.1543  0.1808  0.2481
18665W        W34134  14.478  10.141   5.367 -0.2270 -0.1543 -0.0173
18666W        W34135   4.993   7.262   5.084 -0.4237  0.1689  0.1853
18667W        W34136   5.696   9.624   3.148 -0.2592  0.0294 -0.0403
18668W        W34137  10.315   6.757  13.869  0.3242 -0.1342  0.1477
18669W        W34138   9.579   8.915  16.097  0.0309  0.1018  0.0674
18670W        W34139   7.964   4.434  15.000  0.3045 -0.0211 -0.0516
18671W        W34140  15.071   8.174   0.035  0.3835 -0.3022 -0.1739
18672W        W34141  14.544   4.997   1.011  0.2759  0.0709  0.1719
18673W        W34142   5.747   3.973   4.969 -0.0696 -0.2601 -0.1919
18674W        W34143  13.568   9.653   5.191  0.1547  0.3089 -0.0133
18675W        W34144   0.191   7.453   4.137 -0.1235 -0.0044 -0.3799
18676W        W34145  10.570   8.709  11.413 -0.1115 -0.0763 -0.0603
18677W        W34146   4.374  10.307   0.348 -0.2334 -0.1433 -0.1187
18678W        W34147   6.818  17.215  12.263 -0.2485  0.2472 -0.1413
18679W        W34148   0.662   5.650  15.665  0.0161 -0.2527 -0.0621
18680W        W34149   4.311   0.179  11.832  0.0234  0.3208  0.2442
18681W        W34150   8.044  11.898  15.310 -0.0644  0.2882 -0.0248
18682W        W34151   7.045   7.351   4.982  0.3172 -0.2947 -0.2111
18683W        W34152   0.412   1.418  15.427 -0.1206  0.2041  0.4300
18684W        W34153   2.953   1.575  12.226  0.0051 -0.2050 -0.0545
18685W        W34154  17.132  10.901   4.326 -0.1216 -0.0238  0.1394
18686W        W34155   3.320   7.566   2.419 -0.0903 -0.1013 -0.0679
18687W        W34156  12.393  11.635   0.280  0.1897  0.0373 -0.2290
18688W        W34157  11.524  12.538  14.670  0.0548  0.3110 -0.1514
18689W        W34158   0.447   6.077   5.193 -0.2330  0.1791 -0.1755
18690W        W34159  12.470  18.099   4.522  0.0399  0.0972  0.0182
18691W        W34160  13.256   9.279   6.434  0.1527  0.0793  0.0098
18692W        W34161   5.191   4.873  10.219  0.0733  0.2067 -0.0742
18693W        W34162  17.266  17.965   1.167 -0.0646 -0.1415  0.2370
18694W        W34163   2.272   5.388   1.831 -0.2008  0.3542 -0.1853
18695W        W34164  12.215  15.327  12.259  0.1779  0.0555  0.0197
18696W        W34165   0.664   0.325  13.291  0.0804  0.1125 -0.0734
18697W        W34166   4.390   2.106  16.094 -0.1715 -0.0023  0.3354
18698W        W34167   9.585   0.243   2.846 -0.2067  0.1267 -0.1456
18699W        W34168   4.479  12.610   2.138  0.1274 -0.1628  0.0713
18700W        W34169   1.699   7.890   4.159 -0.6250 -0.1692  0.1377
18701W        W34170   2.008  16.329  13.971 -0.1654  0.1711 -0.4406
18702W        W34171   5.735  14.698   5.153  0.0437 -0.1800  0.2236
18703W        W34172   3.094   7.129  11.287  0.0203 -0.1654  0.0698
18704W        W34173   9.262   4.212   5.020 -0.2956  0.0825 -0.0314
18705W        W34174  10.695  14.777   3.179  0.3510  0.0464 -0.1404
18706W        W34175  14.024   4.211   2.607  0.2333 -0.2217 -0.2023
18707W        W34176  10.205   1.066  14.117  0.0866 -0.1601 -0.0577
18708W        W34177  11.312  14.420   0.184  0.2555  0.1998 -0.1246
18709W        W34178  13.563   8.956   6.590 -0.3031  0.0451  0.0221
18710W        W34179   0.377  14.307   1.650 -0.0919 -0.0726 -0.0331
18711W        W34180  10.382  15.809   1.974 -0.0162 -0.1207 -0.0120
18712W        W34181  15.332   1.561   0.990 -0.1125 -0.0120  0.0095
18713W        W34182  17.186   9.992  14.588  0.3180  0.3354 -0.1447
18714W        W34183  14.261  15.073   4.306 -0.1644  0.0087 -0.0218
18715W        W34184   9.097   8.786  12.649  0.0793 -0.0952  0.0268
18716W        W34185   7.293   5.138  11.812 -0.1394 -0.2459 -0.0518
18717W        W34186   5.170  14.205   2.616 -0.1602  0.1585  0.0109
18718W        W34187  12.908  12.068  15.000 -0.0349  0.1509 -0.0418
18719W        W34188   4.433  13.921  14.542 -0.1366  0.1780  0.0071
18720W        W34189  10.397   2.813  14.486 -0.0944  0.3209  0.0323
18721W        W34190   6.532  14.120  11.335  0.0657 -0.0163 -0.1764
18722W        W34191   3.213   8.649   1.807 -0.0458 -0.0907 -0.2762
18723W        W34192  17.120   9.831  15.894 -0.0712 -0.1226  0.0395
18724W        W34193  12.500  11.114   4.495  0.0892 -0.0939  0.1543
18725W        W34194   1.114   2.169  11.639 -0.1617  0.0308 -0.1526
18726W        W34195   2.383   4.390  12.158 -0.1012 -0.0347  0.1512
18727W        W34196   7.983   6.792   0.051  0.0693 -0.0734 -0.2091
18728W        W34197  18.236  12.809  12.473  0.0146 -0.1180  0.0906
18729W        W34198  14.460  17.347  13.663  0.1830 -0.0709 -0.1886
18730W        W34199  13.279  12.858  13.800  0.3351 -0.1392  0.0398
18731W        W34200   6.694   8.867   0.167 -0.0166  0.1420  0.0635
18732W        W34201  14.766  12.848   3.183 -0.1459 -0.2505 -0.0842
18733W        W34202  15.510  14.712  10.759 -0.2922 -0.0973  0.0296
18734W        W34203  14.723  15.091  11.720  0.2711  0.2702 -0.1993
18735W        W34204   5.002   3.846  14.176 -0.3382 -0.1755 -0.2231
18736W        W34205  12.697   7.382   1.971 -0.0614  0.1478 -0.1317
18737W        W34206  14.526  12.362   0.471  0.1155  0.1863  0.4177
18738W        W34207   3.958  12.985   1.286 -0.0624 -0.0046  0.0597
18739W        W34208  13.616  14.649  13.227 -0.2249 -0.1434 -0.0846
18740W        W34209   7.231   6.865   5.461  0.2912  0.3817 -0.1602
18741W        W34210   0.867  14.172   4.346 -0.1973  0.0997 -0.0175
18742W        W34211   2.056   0.166  12.674 -0.0948  0.0112 -0.2493
18743W        W34212   9.977  11.314   5.118 -0.3773 -0.1063  0.0051
18744W        W34213  13.551  16.511   1.565  0.1699 -0.0361  0.0895
18745W        W34214   4.598   7.283   4.064 -0.1108 -0.1590  0.1477
18746W        W34215   4.156   8.765  12.715  0.2663  0.3220 -0.4471
18747W        W34216  10.855  10.496  13.038 -0.1822 -0.0380 -0.0338
18748W        W34217  16.569  15.093   4.838  0.1630 -0.2109  0.3149
18749W        W34218  14.104  12.932   2.568 -0.1531 -0.2719  0.2063
18750W        W34219   6.361   6.144  11.679  0.0245  0.3158 -0.2685
18751W        W34220  14.937   3.837   2.009 -0.1287  0.0218  0.1836
18752W        W34221   8.213   1.136   4.127 -0.1731 -0.2248  0.0777
18753W        W34222  12.408   5.473   0.839 -0.1230 -0.2179 -0.1853
18754W        W34223  18.268   4.766  15.635 -0.0461  0.2023  0.0898
18755W        W34224   0.502   6.835  13.344 -0.0119  0.0580 -0.1284
18756W        W34225   9.348   3.362   1.034  0.0894  0.0291  0.1647
18757W        W34226  14.573   2.690   0.996 -0.1644  0.1437  0.1300
18758W        W34227   7.803   2.142   3.231 -0.0839 -0.0817  0.1215
18759W        W34228  16.352   4.077   2.359  0.0690 -0.2326 -0.3069
18760W        W34229  13.706  11.923   2.572  0.0333  0.1262 -0.0738
18761W        W34230   1.946  10.238   1.275 -0.1634 -0.1871  0.4543
18762W        W34231   6.636  13.944  15.489  0.0245 -0.2252 -0.0384
18763W        W34232   2.650  17.321  10.682 -0.2070 -0.1270 -0.1739
18764W        W34233  12.703  15.461  16.043  0.2698  0.1735  0.0459
18765W        W34234   5.151   2.150  14.314  0.0619  0.1227 -0.3521
18766W        W34235  11.863   3.528   1.599 -0.1047 -0.1388  0.2061
18767W        W34236   9.541  17.271   2.581 -0.2282 -0.0217 -0.1149
18768W        W34237   3.218  12.651  14.720 -0.1504  0.0310 -0.1414
18769W        W34238  14.200  11.713   2.614 -0.0447  0.0717 -0.1123
18770W        W34239  16.148   0.010   4.664 -0.0892  0.1490 -0.2109
18771W        W34240   4.963  14.987   3.041  0.0499  0.0929  0.1388
18772W        W34241   2.951  16.740   1.851  0.2901 -0.0212 -0.0534
18773W        W34242   4.068   5.449   1.847  0.3713  0.4089 -0.1151
18774W        W34243  10.547  14.476   2.828 -0.2005  0.0234  0.2363
18775W        W34244  12.953  16.045   3.884  0.1017  0.2163 -0.1543
18776W        W34245   9.384   9.715   1.663 -0.2278 -0.1764  0.1321
18777W        W34246  16.694  12.769  12.768  0.1428  0.2185 -0.1603
18778W        W34247  15.676   7.852   1.341 -0.0066  0.0732  0.2552
18779W        W34248  14.755   9.264   4.953  0.0417 -0.1266 -0.1575
18780W        W34249   2.648   9.415  15.599  0.1045 -0.2688  0.1039
18781W        W34250   5.917  13.391  13.406 -0.0755 -0.1848  0.0203
18782W        W34251   5.499   2.775   5.622 -0.2071  0.0498 -0.0431
18783W        W34252   7.240   0.008   0.056  0.0021 -0.1141  0.0316
18784W        W34253   3.610   0.802   4.396  0.0880  0.0545  0.1911
18785W        W34254   0.663   6.954  11.067  0.1413 -0.0272  0.1694
18786W        W34255   5.391  10.725   4.661  0.3064  0.1365  0.1206
18787W        W34256   3.497   3.169   2.188  0.2586 -0.1783  0.2694
18788W        W34257  13.911   9.344  15.879 -0.0233 -0.1330 -0.0281
18789W        W34258  13.724   3.936  11.665  0.2898  0.0149 -0.2800
18790W        W34259   0.840   2.379  12.430 -0.2375  0.2118  0.0377
18791W        W34260  12.298  14.429  13.928  0.1421  0.1137 -0.2648
18792W        W34261  15.100   0.954   1.647 -0.1147 -0.0040  0.1790
18793W        W34262   0.900  16.401  15.916  0.0222  0.0238 -0.0149
18794W        W34263  15.055  15.551   3.012  0.3127 -0.2276  0.1804
18795W        W34264  11.291   5.221  11.922  0.2762  0.3860  0.1922
18796W        W34265   4.204   5.239  11.629 -0.0456  0.3287  0.1583
18797W        W34266   4.312  10.434  12.966  0.2284  0.1395  0.0097
18798W        W34267  17.296   0.021   0.737 -0.0332  0.1715 -0.1929
18799W        W34268   8.188   1.960  15.939  0.1441 -0.0391  0.0561
18800W        W34269   3.734  14.854   5.265  0.2585 -0.0008 -0.0470
18801W        W34270  15.553  10.020   4.691  0.2617  0.1440 -0.0626
18802W        W34271  15.489  12.523  14.906 -0.1675  0.1809  0.0866
18803W        W34272  14.911   6.757   6.704 -0.1762  0.0788  0.2633
18804W        W34273   5.882   6.572   1.679  0.2077  0.2423 -0.2937
18805W        W34274   8.784   6.315   1.412  0.0392 -0.0448  0.2000
18806W        W34275  17.746  11.965  12.814  0.3190 -0.2805 -0.0662
18807W        W34276  15.414   2.476  14.831  0.3887  0.1239 -0.0114
18808W        W34277   8.239  13.227  12.990 -0.2072  0.3878 -0.1681
18809W        W34278  16.710   5.335   3.494  0.1260 -0.0433 -0.1021
18810W        W34279  11.348   9.858   1.090  0.0308 -0.2689 -0.0780
18811W        W34280   8.744   4.173   2.923  0.1855  0.2330  0.0256
18812W        W34281   1.965   5.633  14.382  0.3833 -0.1817  0.0146
18813W        W34282   5.030   3.619  12.871  0.1291 -0.2369  0.2873
18814W        W34283  14.205   4.624   4.527  0.1090 -0.2801  0.0602
18815W        W34284  15.796   4.276  12.118  0.1127 -0.1429 -0.0270
18816W        W34285   9.406  16.849  15.011 -0.1542 -0.0174 -0.1108
18817W        W34286   6.384   1.779  12.988 -0.0722  0.0806  0.0818
18818W        W34287   8.410   1.996   1.055 -0.0529 -0.0687  0.1511
18819W        W34288  12.382   5.098  13.319 -0.3113 -0.0112  0.1043
18820W        W34289   2.508   7.681  10.979  0.1584 -0.1135 -0.0275
18821W        W34290  14.994   9.433  11.865  0.0337 -0.1859  0.0437
18822W        W34291   9.368   7.331  14.229  0.2245  0.2444  0.0889
18823W        W34292  15.720   2.617   4.372  0.1652  0.0166 -0.4681
18824W        W34293   0.554   7.861  15.301  0.2056 -0.2026  0.0057
18825W        W34294   3.690  10.773  11.741  0.1554 -0.1793 -0.2842
18826W        W34295  17.340  10.858  10.764  0.1054  0.0742  0.0963
18827W        W34296   0.847   7.297   1.666  0.2019  0.0080  0.3439
18828W        W34297   1.471  13.777   1.920  0.0529 -0.1583  0.0227
18829W        W34298   0.899   3.171  15.295 -0.1177 -0.3651  0.0542
18830W        W34299   7.471  17.222   3.943 -0.0345  0.1214  0.1653
18831W        W34300   1.813  15.826   3.975 -0.0640 -0.1787  0.1073
18832W        W34301   6.647   8.697  14.436  0.1415 -0.2477  0.3228
18833W        W34302   4.625   1.043  13.118 -0.0405 -0.0828  0.4557
18834W        W34303   6.316   8.359   3.403  0.1037 -0.1283  0.1875
18835W        W34304   4.604  15.235  11.262  0.1579  0.0951 -0.1515
18836W        W34305   9.553  17.049  13.485  0.0838 -0.0823 -0.2442
18837W        W34306   3.698   0.868  13.717 -0.2864 -0.2136 -0.0508
18838W        W34307  13.277   7.011  11.981  0.0430 -0.2097  0.1758
18839W        W34308   2.845  14.239  10.797 -0.1032  0.2535  0.0241
18840W        W34309   6.174   4.046  12.756 -0.1630 -0.0179 -0.2194
18841W        W34310   2.629   1.813   3.279 -0.4138 -0.1506 -0.1845
18842W        W34311  17.650  18.189  13.032 -0.2287  0.0710 -0.2155
18843W        W34312  10.076   4.465  16.016 -0.2323 -0.1926  0.1600
18844W        W34313   3.150   9.633   0.157  0.1427 -0.0815 -0.0396
18845W        W34314  13.122  14.798   0.209 -0.0784  0.1374  0.0693
18846W        W34315  13.388  10.929  12.237 -0.0272  0.0054  0.1347
18847W        W34316  14.578  18.026   2.641  0.2005  0.1572 -0.1939
18848W        W34317   2.352  15.182  15.981  0.3068 -0.2302 -0.0095
18849W        W34318   9.297   2.551   5.054 -0.1332  0.1059  0.2366
18850W        W34319   0.944  13.421   5.070 -0.1506 -0.0872  0.0423
18851W        W34320  10.070  13.124  12.579 -0.0351  0.0769  0.3586
18852W        W34321  13.572   8.623   1.598  0.2149  0.0876 -0.0486
18853W        W34322  12.474  10.414   3.490  0.0264  0.3136  0.3222
18854W        W34323   9.567  14.207   2.178  0.0733 -0.1038  0.2667
18855W        W34324  10.158  16.914  15.597  0.0798  0.1674 -0.0561
18856W        W34325   6.839   2.297   3.554 -0.1140  0.2913  0.2038
18857W        W34326  17.090  14.714  15.552  0.0524  0.1273 -0.0698
18858W        W34327   9.790  14.596   1.316  0.1627  0.2193 -0.0518
18859W        W34328   1.622   4.866  13.419 -0.0660 -0.0430 -0.0155
18860W        W34329   5.516  10.181   3.211 -0.2619  0.1082  0.2157
18861W        W34330   2.518  17.127  13.376 -0.1578  0.2507 -0.1740
18862W        W34331  15.623  11.226   4.250 -0.0482 -0.0772 -0.1270
18863W        W34332  12.933   8.590  14.362  0.5542  0.2134  0.1507
18864W        W34333  16.620  16.685   2.078 -0.2787 -0.1048 -0.0061
18865W        W34334  14.427   1.240   4.449 -0.0006 -0.1603 -0.0481
18866W        W34335   5.336  12.264  14.808 -0.0152  0.0252 -0.1688
18867W        W34336  12.964  12.507  12.743  0.1821 -0.1681  0.0313
18868W        W34337   6.088  12.755   5.504 -0.2330 -0.0311  0.1787
18869W        W34338   3.564  12.722  11.570 -0.0448  0.2314 -0.0499
18870W        W34339   7.968  13.031  11.327  0.1270  0.0879  0.2277
18871W        W34340  12.331   4.919   3.356 -0.0702 -0.1238  0.1593
18872W        W34341   8.024  16.467   0.056  0.2635  0.2974 -0.2902
18873W        W34342  13.108  16.397  16.067 -0.0530 -0.0805 -0.1798
18874W        W34343  10.832   7.023  14.547 -0.0180  0.3255  0.0283
18875W        W34344   9.762   8.656  12.916  0.2233 -0.0389 -0.2336
18876W        W34345  12.331   3.200   0.110 -0.0171  0.2652  0.1645
18877W        W34346   4.924   6.809  11.750 -0.1407  0.3201 -0.2788
18878W        W34347   8.170  16.530  14.601 -0.1324 -0.1338  0.1546
18879W        W34348   0.420  10.868  14.706  0.2385 -0.0415  0.0445
18880W        W34349   4.552  17.573  13.398  0.0232  0.1365  0.0540
18881W        W34350   5.030   7.178   1.093  0.1787 -0.0839  0.0537
18882W        W34351  14.723   2.806  15.821 -0.2327  0.2088  0.0907
18883W        W34352  11.728   7.465  12.475 -0.0937 -0.1450 -0.0687
18884W        W34353  16.942   0.067  11.353 -0.0796 -0.0512 -0.2138
18885W        W34354   0.446  12.361   5.136 -0.1278 -0.1119  0.1430
18886W        W34355   6.375   1.331   1.404 -0.1473 -0.2704  0.0499
18887W        W34356  14.712   7.764  11.887  0.0605  0.4284 -0.2077
18888W        W34357  15.790  12.974   4.827 -0.0578 -0.1957  0.2394
18889W        W34358  11.882   1.627   0.494 -0.2892  0.1576  0.1774
18890W        W34359   4.979   2.834  16.111 -0.0332 -0.2797  0.1416
18891W        W34360  12.622   7.029   0.059  0.0506 -0.2011  0.5512
18892W        W34361  18.227  11.961   0.525  0.3656  0.3517 -0.3928
18893W        W34362  13.959  15.251  15.899  0.1286  0.0269 -0.1813
18894W        W34363   2.157  17.268  15.121  0.0316  0.3902 -0.0787
18895W        W34364  14.444  12.442   3.045 -0.1915 -0.1241 -0.2455
18896W        W34365  10.332  14.784   5.715 -0.1716  0.0241  0.2259
18897W        W34366   8.145   9.595   1.658 -0.1554 -0.2028 -0.0949
18898W        W34367   2.404   4.564   1.641 -0.2167  0.3126  0.0855
18899W        W34368  11.446  10.806  16.011  0.2136 -0.1855  0.1049
18900W        W34369   5.112  12.361  15.269  0.0803 -0.1002  0.3267
18901W        W34370   3.846  11.816   3.437  0.1514  0.0249  0.0003
18902W        W34371  15.357  13.552   0.993 -0.2956  0.0303  0.2275
18903W        W34372   0.937   4.211  15.341 -0.0124 -0.0924  0.1144
18904W        W34373  12.816  12.064  12.849  0.1082  0.0968 -0.0899
18905W        W34374   7.163  14.220   2.365 -0.0404  0.0453 -0.2018
18906W        W34375   9.355   0.478  11.537 -0.2670 -0.2550  0.1220
18907W        W34376  10.367   0.649   0.156  0.0719 -0.3026  0.0256
18908W        W34377   1.349   5.860  13.738  0.1668 -0.0677 -0.2549
18909W        W34378  13.557   9.595   2.335 -0.3274 -0.3694 -0.5467
18910W        W34379   6.689  15.178   6.044 -0.2241 -0.0732  0.1676
18911W        W34380  15.953   8.240   1.618  0.1495  0.2451 -0.0347
18912W        W34381  12.722   8.412   0.377 -0.2252  0.0300 -0.1109
18913W        W34382   6.322  15.613  11.681  0.1295  0.1285  0.0989
18914W        W34383  12.226   0.843   0.299 -0.0874  0.1302 -0.0217
18915W        W34384   0.033  15.682  11.359  0.1494  0.1467  0.2747
18916W        W34385  12.150   3.999   0.829 -0.1290  0.1341 -0.0788
18917W        W34386   4.622  17.062  13.146 -0.0379 -0.1434 -0.0327
18918W        W34387  11.114  10.985  14.427 -0.0914  0.1112  0.2287
18919W        W34388   9.742  14.261  11.801 -0.0336  0.1711 -0.1880
18920W        W34389  16.977   4.278   2.690 -0.0897  0.0996  0.2718
18921W        W34390   7.531   5.334   5.102  0.0487  0.0004  0.0148
18922W        W34391   6.350  14.088  12.923 -0.4263 -0.0540 -0.2865
18923W        W34392  14.548   3.542   2.747 -0.1526 -0.2176  0.1285
18924W        W34393  16.608   5.432  11.408 -0.1589 -0.1013  0.3604
18925W        W34394  12.797  14.405  12.870  0.2226 -0.0802  0.1225
18926W        W34395  14.903   2.679  11.451  0.2317 -0.0867 -0.2354
18927W        W34396   2.005   5.891   4.254 -0.2860  0.0929 -0.1917
18928W        W34397  14.928  12.271   3.214  0.0420  0.4121  0.1467
18929W        W34398  12.545   6.534   4.522 -0.1650 -0.1808  0.0020
18930W        W34399   9.685   4.496  13.294 -0.0658  0.3480 -0.3552
18931W        W34400   7.764  12.626  15.027  0.2634  0.1741 -0.0114
18932W        W34401   0.007  15.141  11.313  0.0041 -0.3275 -0.2187
18933W        W34402  13.897   3.102   3.153  0.0416  0.2414 -0.0339
18934W        W34403  13.114   0.931   0.040  0.0275 -0.0279  0.1138
18935W        W34404  16.578   7.449   4.910 -0.0256  0.0642  0.1930
18936W        W34405  17.305  10.976   2.728  0.1585 -0.2385  0.1202
18937W        W34406   1.880   8.680   2.980  0.1004  0.1149 -0.1503
18938W        W34407  10.608   0.114  11.830  0.0040 -0.2708  0.2189
18939W        W34408  11.084  17.713  11.402 -0.0883  0.0593 -0.1837
18940W        W34409   9.139  11.277  15.806  0.6624  0.1949 -0.1793
18941W        W34410  14.049  18.181   0.999 -0.1115  0.2833  0.2691
18942W        W34411   7.083   2.666   2.879 -0.0093  0.0770  0.1133
18943W        W34412  14.130  10.585   5.331  0.0015  0.0526 -0.0624
18944W        W34413  17.682   7.134   3.896  0.0870 -0.1473  0.0054
18945W        W34414   9.120   2.338   0.030  0.0384 -0.3183 -0.2884
18946W        W34415  15.514   0.427   6.194  0.1253  0.1787 -0.2110
18947W        W34416   4.705   5.376   0.867 -0.1221  0.0903 -0.3824
18948W        W34417  11.292  10.796   1.338 -0.1988  0.1418 -0.1685
18949W        W34418   8.113   8.920   5.318  0.1241 -0.2866  0.0636
18950W        W34419   4.500  12.899  15.194 -0.0743 -0.0130  0.3108
18951W        W34420  18.226   1.944   3.372 -0.0687 -0.1389  0.0848
18952W        W34421  15.464  16.562   1.929 -0.0646  0.2440 -0.0101
18953W        W34422   3.165  15.894  12.998  0.1412 -0.1291 -0.2053
18954W        W34423   8.543   0.267   0.231  0.2401 -0.0491 -0.3023
18955W        W34424   7.667  11.975  15.604  0.0776  0.0191 -0.1581
18956W        W34425   7.909   9.215  11.883 -0.0022 -0.4641 -0.1865
18957W        W34426   4.686   3.634   2.148  0.0670 -0.0162  0.0121
18958W        W34427   3.424   7.303   0.545  0.3761 -0.0350 -0.1297
18959W        W34428   8.492   1.171  10.827  0.1631 -0.0138  0.1951
18960W        W34429  13.597   3.667  16.112  0.3178 -0.2594 -0.1563
18961W        W34430  11.490  12.469  11.643 -0.0545 -0.0208  0.0025
18962W        W34431   3.529   5.058   4.363 -0.1663 -0.0962  0.0758
18963W        W34432  12.042   4.834   1.196  0.4421 -0.3443  0.0873
18964W        W34433   3.227  13.657   0.448 -0.4991 -0.2582  0.0574
18965W        W34434  15.048  13.006  13.703  0.3408 -0.4091  0.1015
18966W        W34435  13.477   7.770  10.883  0.4123 -0.0272  0.0193
18967W        W34436   0.758   1.177  14.471  0.0528 -0.2209  0.0286
18968W        W34437  17.642   2.509  15.976 -0.0615  0.3290  0.3111
18969W        W34438   0.466  14.457   2.369  0.1311  0.2411 -0.2165
18970W        W34439  15.432   2.362   0.074 -0.1785 -0.0411  0.0053
18971W        W34440   1.866   4.736  15.282 -0.1504 -0.1966 -0.1084
18972W        W34441   9.495   8.894  13.925  0.1192  0.1323 -0.1614
18973W        W34442  16.829   7.264   0.438 -0.2033 -0.6026  0.1964
18974W        W34443   0.010   0.063  14.708  0.1450 -0.4028  0.1270
18975W        W34444   4.886   3.183   2.399 -0.0435 -0.1569 -0.0747
18976W        W34445   2.246  11.277   0.326  0.1369 -0.0340  0.0177
18977W        W34446   3.241  15.394   1.777 -0.0042  0.0428  0.2145
18978W        W34447  15.660   1.092   3.965  0.0020  0.0386  0.0135
18979W        W34448   6.243   6.243  12.229  0.0286  0.2067 -0.1540
18980W        W34449   6.756  12.143   1.796  0.0254 -0.2049 -0.1033
18981W        W34450   8.067   4.823   5.476 -0.2245 -0.0988  0.0550
18982W        W34451   4.816   3.909  12.246 -0.0571 -0.1898  0.0042
18983W        W34452   9.461  13.920   1.685 -0.0021  0.0998  0.1413
18984W        W34453  15.407   6.595  11.828  0.1740  0.2540 -0.1062
18985W        W34454  17.457   3.879   4.080  0.1234  0.0180  0.3662
18986W        W34455   5.665   0.058  11.666 -0.0221  0.0684 -0.1530
18987W        W34456   0.302   2.057   3.673  0.1699 -0.0841 -0.1827
18988W        W34457  10.984  14.605   5.164  0.1252  0.2817 -0.0744
18989W        W34458   6.830  12.282   0.187  0.1231 -0.0992  0.2283
18990W        W34459   3.787  15.616   0.673 -0.1026  0.2294  0.2938
18991W        W34460   7.907  13.903   1.320 -0.1155  0.0631 -0.1539
18992W        W34461   3.621  10.888  14.292 -0.2011  0.1893 -0.1258
18993W        W34462  16.566   4.361   4.587 -0.0011 -0.2426 -0.0798
18994W        W34463   0.963  15.590  14.430  0.0211  0.3365 -0.0553
18995W        W34464  17.029  10.000  12.170 -0.1820  0.1490  0.1023
18996W        W34465   5.470  17.131   3.993  0.2033  0.1901  0.0906
18997W        W34466  12.636   4.661  11.191  0.2560  0.0368  0.2661
18998W        W34467   8.706   2.227   3.383 -0.0284 -0.0453  0.0811
18999W        W34468  15.701   8.949   0.831 -0.2725  0.1701 -0.0063
19000W        W34469   0.747   0.951  13.032 -0.0602  0.1051 -0.2342
19001W        W34470   1.682  12.192   0.404 -0.1070 -0.0164 -0.1010
19002W        W34471   8.398   3.637   1.941  0.1697 -0.0528 -0.2015
19003W        W34472  15.578   2.160  11.446 -0.1305 -0.3302 -0.0902
19004W        W34473   7.216   6.662  13.338 -0.0041 -0.0005  0.2812
19005W        W34474   0.904   7.797   1.934 -0.3463 -0.2554  0.2290
19006W        W34475   7.384   3.435   4.207 -0.0259  0.0839 -0.1260
19007W        W34476  12.440  13.631   4.439  0.1240 -0.0426  0.2499
19008W        W34477  11.465   8.771   5.675  0.0830 -0.1876 -0.0105
19009W        W34478  12.054  12.239   3.536  0.0192  0.0104 -0.1231
19010W        W34479   9.428   2.392  11.392  0.0913  0.0913  0.0278
19011W        W34480  14.604   3.216  12.252 -0.0867 -0.3711 -0.2959
19012W        W34481   2.836  13.805  14.012  0.1582 -0.1344  0.2688
19013W        W34482   3.632  10.060  12.226  0.2773 -0.1161  0.4271
19014W        W34483   3.491   3.233   4.559  0.2345 -0.0412 -0.0583
19015W        W34484   7.647  16.140  15.343 -0.1197  0.1975 -0.0063
19016W        W34485  17.568  10.542   3.920  0.2141  0.2603  0.0656
19017W        W34486  15.715   8.148  15.787 -0.0973 -0.2582 -0.4062
19018W        W34487   9.272  16.376   2.244 -0.1049  0.0036  0.1577
19019W        W34488   1.063   3.598  13.218  0.0200 -0.0648 -0.1103
19020W        W34489   1.473   4.474  15.530 -0.0012  0.1860 -0.0817
19021W        W34490  12.820   5.842   2.780 -0.1491 -0.0849  0.1113
19022W        W34491  16.997  14.101  11.397 -0.0306 -0.0205 -0.2925
19023W        W34492   6.842  12.125  10.975 -0.2525  0.2767 -0.2587
19024W        W34493  11.836   1.191   4.313  0.0738  0.1017 -0.1826
19025W        W34494  13.600   8.137   2.970  0.4062 -0.0368 -0.0149
19026W        W34495  15.857  16.850   4.925 -0.0238  0.0541  0.0792
19027W        W34496   0.415  13.058  13.096  0.1280 -0.2161 -0.1484
19028W        W34497   6.082  17.303  12.521  0.2308 -0.3808 -0.0401
19029W        W34498   4.997   5.474  11.364  0.2749  0.0972 -0.0694
19030W        W34499   3.855  12.038   3.008  0.2441  0.2284  0.2022
19031W        W34500   2.039   9.595   5.717 -0.2049  0.0034 -0.0462
19032W        W34501   2.144   6.079   2.072  0.0652 -0.1931 -0.0913
19033W        W34502   2.737   8.337   5.189  0.0899  0.0932  0.1912
19034W        W34503   6.026  14.124  14.636  0.2174 -0.0343 -0.1316
19035W        W34504  14.975   6.346  15.729  0.1131 -0.0122  0.0872
19036W        W34505   3.245   4.862   3.317  0.1135 -0.1191 -0.0760
19037W        W34506  10.722  18.164  11.460  0.1119 -0.0897 -0.2359
19038W        W34507   4.293  17.050   3.376 -0.3289 -0.2744  0.2019
19039W        W34508  14.157   5.434   4.090  0.0667  0.0735 -0.0877
19040W        W34509  10.541   1.398  12.955 -0.1597 -0.0286  0.0313
19041W        W34510   2.562   5.847   1.825  0.0468  0.1391 -0.1362
19042W        W34511  10.322  17.126   4.999 -0.3805 -0.0060 -0.0338
19043W        W34512  12.879   1.011  13.123  0.1890 -0.1076  0.2496
19044W        W34513  13.783  14.291   0.499 -0.2177 -0.3677 -0.0045
19045W        W34514   9.215   3.644  13.458  0.3686 -0.0684 -0.1014
19046W        W34515   7.245   4.676  12.959  0.0960  0.1199 -0.1348
19047W        W34516   6.734   6.174  12.086  0.1932 -0.1926  0.1846
19048W        W34517  17.451  11.518  12.840 -0.1719  0.0121 -0.1975
19049W        W34518  11.791   6.712   0.244  0.1371 -0.0529 -0.2462
19050W        W34519   3.382  10.368   1.256 -0.0636  0.0454 -0.1062
19051W        W34520  11.381  16.786   3.710  0.0410 -0.0220  0.1736
19052W        W34521   7.004   5.728  12.039 -0.0024 -0.0326  0.0599
19053W        W34522  15.493   9.926  12.402 -0.0582  0.0744  0.1236
19054W        W34523  12.398  16.044   3.219 -0.1795  0.1999  0.0845
19055W        W34524   5.603   3.501   1.700  0.0204  0.1184  0.1560
19056W        W34525  13.068   0.064  15.450  0.2277  0.0357 -0.0907
19057W        W34526   6.511  14.363  13.896 -0.0317 -0.2298  0.0442
19058W        W34527   8.604   6.241   0.850  0.0787 -0.2903  0.3036
19059W        W34528   6.527  13.733   2.666  0.3712  0.1387 -0.2958
19060W        W34529   8.608   5.503   4.792  0.1493  0.2380  0.3325
19061W        W34530   9.711   0.440   3.523  0.2448 -0.0661 -0.1659
19062W        W34531   3.270   8.085   3.682 -0.0695 -0.1778 -0.4518
19063W        W34532  18.059   5.814   0.007  0.1466  0.0826 -0.0384
19064W        W34533  13.583  12.497   4.544  0.1822  0.0356  0.2078
19065W        W34534  13.797  14.388  12.247 -0.3065  0.0797  0.1315
19066W        W34535   7.717   9.677  14.712 -0.0137 -0.1336  0.3434
19067W        W34536   1.403  10.090   2.516 -0.0375 -0.1019  0.0680
19068W        W34537  15.509   9.886  15.101  0.0010 -0.2697  0.0381
19069W        W34538   8.677  13.776   3.547 -0.0546 -0.0477 -0.0075
19070W        W34539  14.632   2.288  12.582 -0.3337 -0.1480  0.0376
19071W        W34540  13.185  11.791  15.916  0.3547  0.0670 -0.0774
19072W        W34541   4.328   5.429  14.672 -0.2562 -0.1813  0.0349
19073W        W34542  15.877   2.007   0.928  0.2074  0.0282  0.3337
19074W        W34543  10.625   7.559   0.956  0.1126 -0.1086 -0.0518
19075W        W34544  11.371   1.712  15.725 -0.0364  0.1685  0.1726
19076W        W34545  16.773  10.217  14.319  0.0003  0.2954  0.1000
19077W        W34546  13.970  14.420   2.780 -0.2403 -0.2662  0.2352
19078W        W34547   2.456  14.378   0.537  0.0538 -0.0560  0.2754
19079W        W34548   6.358   4.835   4.860  0.1103  0.0217  0.0159
19080W        W34549   6.204  17.265  13.872 -0.3477 -0.0255 -0.1699
19081W        W34550  15.294   5.260   1.436 -0.2447  0.0175  0.3315
19082W        W34551   5.821   0.525  12.395 -0.1659  0.0921  0.0754
19083W        W34552   5.506   0.567   5.205  0.1360  0.3959  0.1374
19084W        W34553  16.933   5.112  14.634  0.1927 -0.0433  0.1993
19085W        W34554   3.004   1.843   1.064 -0.2927 -0.0725  0.1067
19086W        W34555  14.911   0.769  12.138 -0.1431 -0.0866  0.1671
19087W        W34556  11.607  12.581   2.411 -0.0766 -0.0619 -0.0167
19088W        W34557   1.066   2.978   4.790  0.3431  0.0296 -0.4057
19089W        W34558  13.128   9.215  13.878  0.3314 -0.1703  0.0509
19090W        W34559  15.211  15.367   4.018  0.2143 -0.0492  0.3477
19091W        W34560   1.987   0.436  15.559 -0.1035  0.1643  0.4434
19092W        W34561   4.499   4.968   2.754 -0.2911  0.0835  0.2028
19093W        W34562  14.000   7.318   4.070 -0.2460  0.3363 -0.0278
19094W        W34563   5.705   4.018  10.110  0.0227  0.0213 -0.0863
19095W        W34564   3.154   7.834  16.076  0.1119  0.0123  0.1867
19096W        W34565  12.992  14.036  10.952  0.0998  0.0678  0.2020
19097W        W34566   3.984   5.949  15.225  0.1611 -0.1710 -0.0039
19098W        W34567  16.415  15.472   0.600 -0.1357  0.1813 -0.1982
19099W        W34568  15.581   9.712   2.843  0.0070  0.2913 -0.0424
19100W        W34569   9.126   9.912  12.205 -0.0460  0.1208  0.1817
19101W        W34570  17.598  15.579   3.878 -0.0905  0.3786  0.1373
19102W        W34571  10.295  11.068  11.998  0.0133  0.0678 -0.2096
19103W        W34572  15.912   7.780  10.554  0.2499 -0.1757  0.0941
19104W        W34573   9.625  12.232  12.619 -0.0009  0.0704 -0.2664
19105W        W34574   3.353  16.780  10.996 -0.2573 -0.0216  0.2314
19106W        W34575  17.963  15.946  14.405 -0.0449 -0.0440  0.0751
19107W        W34576  14.752   0.897   5.560 -0.0695 -0.1088  0.2066
19108W        W34577   2.664   9.145   1.012 -0.1547 -0.2897 -0.0116
19109W        W34578   4.629  13.906   4.502  0.0830  0.1161 -0.0393
19110W        W34579   8.418  16.811   3.257 -0.0533 -0.1597 -0.0257
19111W        W34580  11.744   0.680  12.495 -0.2832 -0.4552 -0.2141
19112W        W34581  11.327  10.958  11.723 -0.1953  0.0880  0.0969
19113W        W34582  15.896  17.181   4.521 -0.0172 -0.1695 -0.0061
19114W        W34583   4.707  16.579  13.518  0.0031  0.2723 -0.1005
19115W        W34584  13.142   9.314   4.606 -0.2925  0.0463 -0.3147
19116W        W34585  12.837   1.627   4.291 -0.0599 -0.1710  0.0247
19117W        W34586  14.578  10.289   0.388  0.0809 -0.2073  0.0063
19118W        W34587  18.157   6.466   4.315 -0.1789 -0.1531  0.2514
19119W        W34588  11.534   7.892   2.587 -0.0995  0.4190  0.1481
19120W        W34589  10.749   0.647   0.540 -0.2106  0.3187 -0.0831
19121W        W34590  16.225  10.729   1.640 -0.0090 -0.0196 -0.3568
19122W        W34591   4.907  16.680  15.662  0.0081 -0.1429 -0.3423
19123W        W34592   8.046  11.144   2.318  0.1536  0.2402  0.0640
19124W        W34593   7.934   5.902  14.593 -0.2882  0.0539  0.2936
19125W        W34594   1.121  10.846   3.395  0.1782 -0.1049 -0.0045
19126W        W34595  17.946  10.266   1.595  0.2374 -0.0179  0.0442
19127W        W34596  17.199  12.185  14.527  0.1040 -0.2356 -0.3739
19128W        W34597  15.494  14.986  14.072 -0.4154 -0.0538  0.0864
19129W        W34598  16.093  10.450  11.390  0.2303  0.2210  0.0568
19130W        W34599   4.847  10.227   0.572 -0.1187 -0.0821 -0.0680
19131W        W34600  14.342   0.467   3.377  0.1796  0.0339 -0.2359
19132W        W34601  17.661  16.280   3.771 -0.0435  0.2204 -0.0378
19133W        W34602  12.136  15.809   0.625 -0.1202 -0.2716 -0.1122
19134W        W34603  16.088  11.446  11.053  0.0008  0.2779  0.3416
19135W        W34604   9.372   7.396   4.462  0.3333 -0.4054  0.1092
19136W        W34605  14.796   6.494  13.736  0.1091 -0.1235 -0.0187
19137W        W34606   5.307   0.749   9.906  0.4269  0.4226  0.0003
19138W        W34607   4.047   3.768  14.416  0.2422 -0.1749 -0.0365
19139W        W34608   2.904  13.722  15.089 -0.2114  0.0234 -0.1874
19140W        W34609  11.214   7.132   0.411 -0.0437  0.0180 -0.1796
19141W        W34610   5.719   1.062   2.200  0.2419 -0.0436 -0.0441
19142W        W34611  15.962  12.359  12.247 -0.1360 -0.0208 -0.4183
19143W        W34612  12.835  14.787  15.307 -0.1135 -0.1156 -0.1500
19144W        W34613   7.428  17.372  15.798  0.1134  0.0722  0.0445
19145W        W34614   3.445   3.461   1.734  0.0623 -0.0402 -0.1093
19146W        W34615  13.310   3.930  14.174 -0.1065  0.0201  0.1603
19147W        W34616  11.869  17.128   0.051 -0.2126  0.1407  0.1581
19148W        W34617  17.840   5.250  13.686  0.1657 -0.2021 -0.0926
19149W        W34618  17.537   9.193  14.888  0.2725  0.0149 -0.3255
19150W        W34619   6.457   7.949  15.008 -0.2007 -0.1403  0.0139
19151W        W34620   6.599   6.996  12.568  0.0250  0.0433  0.0811
19152W        W34621  14.773   9.726   4.585  0.0659  0.0057 -0.0272
19153W        W34622   4.255   9.809   5.982  0.1501 -0.0582  0.1728
19154W        W34623   2.504  13.409  13.880  0.0166 -0.1257 -0.2191
19155W        W34624   7.472  12.280   5.320  0.2026  0.1979  0.0266
19156W        W34625   8.373   9.584  13.165 -0.0932  0.2547  0.1048
19157W        W34626  16.750  12.619  16.078  0.1661  0.1381 -0.1537
19158W        W34627  16.523   3.687  11.132  0.1484 -0.1681 -0.2158
19159W        W34628  12.789   2.513   4.068 -0.3328  0.1547  0.0429
19160W        W34629  14.461  14.390  13.342  0.2932 -0.2051  0.3468
19161W        W34630   5.556   3.352  11.167  0.1161  0.0189 -0.1226
19162W        W34631  14.259   2.910  13.909  0.3307  0.3995 -0.0212
19163W        W34632   7.599   8.034   0.742  0.1546  0.2849 -0.0003
19164W        W34633   2.521  14.638  10.834  0.0487 -0.0853 -0.1744
19165W        W34634   9.600  13.658   2.051  0.0371  0.1374  0.0312
19166W        W34635  12.997  11.320  12.695 -0.0980  0.2033  0.1117
19167W        W34636  14.021   4.273   0.534 -0.1610  0.1653  0.1112
19168W        W34637   1.435   9.249   0.364 -0.0703  0.0338 -0.2536
19169W        W34638  11.694   9.218   3.940  0.1868  0.2268  0.0419
19170W        W34639   3.238  15.071  11.078  0.0129 -0.2161 -0.1388
19171W        W34640  10.143  15.234  14.905 -0.0055 -0.1254 -0.1533
19172W        W34641   1.824   1.605  14.335 -0.4106 -0.2453 -0.2253
19173W        W34642   6.922   5.611  14.995  0.0639 -0.0114 -0.0232
19174W        W34643   3.048   5.368  10.159 -0.2003  0.3392 -0.0820
19175W        W34644   2.154  11.968   0.308 -0.1956 -0.0102 -0.2723
19176W        W34645   4.574  10.785   4.023 -0.1951  0.0732 -0.1354
19177W        W34646   0.128  13.206  11.124 -0.1008  0.0394 -0.1733
19178W        W34647   1.821   4.468   3.708  0.0908  0.1405  0.3012
19179W        W34648  14.495   3.629   0.880  0.2225 -0.0426 -0.0918
19180W        W34649  11.019  15.692  14.145  0.0893  0.0690  0.1245
19181W        W34650   9.453   3.295  11.892  0.0665 -0.0691  0.0624
19182W        W34651   6.131   9.236   2.459 -0.3209  0.2879 -0.0133
19183W        W34652  16.172  16.336   4.629 -0.0143 -0.1048  0.0571
19184W        W34653   1.534  12.495  13.437 -0.2363  0.0678  0.0899
19185W        W34654   4.914  15.151   2.571  0.0814 -0.2221  0.0846
19186W        W34655   7.224  14.031   0.676  0.3048  0.0748  0.2161
19187W        W34656   2.260   3.960   0.413  0.0935  0.2017  0.3790
19188W        W34657  12.172  13.385   4.084  0.1552  0.1204  0.1724
19189W        W34658   7.297  12.397  12.682 -0.1022  0.0732 -0.0368
19190W        W34659   7.740  18.262  13.804 -0.1165  0.2435 -0.0890
19191W        W34660  10.735  14.200  13.119  0.1247  0.2695  0.0119
19192W        W34661  14.039   5.525   4.948 -0.0406 -0.1950  0.1450
19193W        W34662  14.610   9.969  14.427  0.4620 -0.0493 -0.0974
19194W        W34663   4.902   4.504  11.005 -0.3159  0.2048  0.2800
19195W        W34664  15.312  13.776   4.500  0.1423  0.0348  0.2481
19196W        W34665   2.720   7.976   1.680  0.2583  0.2691 -0.1082
19197W        W34666  16.113   4.823  14.101  0.1143 -0.1074 -0.2180
19198W        W34667   3.360   9.146  14.785  0.2070 -0.0628 -0.2285
19199W        W34668  17.232  17.911  15.572 -0.2228 -0.2757 -0.0997
19200W        W34669   6.247  15.045   4.817 -0.2380 -0.1120  0.3336
19201W        W34670   3.881  11.393   0.820 -0.0095  0.0286 -0.1737
19202W        W34671  12.132  12.543  12.338  0.0359 -0.0737 -0.0331
19203W        W34672  13.711  10.652   6.084  0.0504 -0.2644 -0.1887
19204W        W34673   1.725  17.865   5.380  0.2718 -0.1501 -0.4090
19205W        W34674  16.625   4.874   5.898  0.1086  0.0320 -0.1004
19206W        W34675   4.349   2.774  14.835  0.0458 -0.2191  0.0411
19207W        W34676   1.137  17.833  13.272  0.2008  0.0976 -0.1053
19208W        W34677   4.817  16.581   3.918  0.2578 -0.0177  0.4177
19209W        W34678   2.276   3.145  13.005 -0.1661 -0.2215  0.0656
19210W        W34679   2.060   5.191   3.466  0.2712 -0.0468  0.4620
19211W        W34680   3.191  12.365  15.141  0.2676 -0.1609 -0.0228
19212W        W34681  15.587  15.293   5.172 -0.2618  0.0045 -0.1028
19213W        W34682  17.340  14.723  15.980 -0.1594  0.0762  0.0210
19214W        W34683   6.618   5.303  12.417 -0.3930 -0.0238 -0.1052
19215W        W34684  17.129   8.803   4.525  0.0336 -0.1765  0.0054
19216W        W34685   6.473   8.362  13.147  0.0095 -0.0563 -0.1357
19217W        W34686  13.579   6.412   2.637  0.1396  0.1472  0.1810
19218W        W34687   3.937  13.651  13.076 -0.1764 -0.2162  0.2175
19219W        W34688  10.792  17.978   0.064  0.0577 -0.0926 -0.4925
19220W        W34689   6.891   7.384   3.226  0.4677 -0.0206 -0.1455
19221W        W34690   3.948  13.532   4.304 -0.1266  0.1442 -0.3060
19222W        W34691  18.156  18.279   5.071 -0.0410  0.1364  0.3215
19223W        W34692  10.525   1.298   6.005 -0.3617 -0.1669  0.0820
19224W        W34693   1.741   5.281   3.099 -0.0831 -0.2752  0.0025
19225W        W34694   3.521   1.124  10.914 -0.0865  0.0521  0.2953
19226W        W34695   3.848  11.015   1.799 -0.0965 -0.1167  0.0748
19227W        W34696  14.852   0.138   3.702 -0.0032 -0.2119 -0.0044
19228W        W34697  14.638  15.508  15.518  0.0756 -0.0947  0.1732
19229W        W34698   2.500  16.279  13.855  0.1670  0.0036  0.1033
19230W        W34699   1.653   2.702  15.044 -0.0579 -0.1895 -0.0127
19231W        W34700  11.321  14.105  12.635 -0.2180 -0.0041 -0.2475
19232W        W34701  15.593  15.014  12.748  0.3122 -0.3813 -0.2690
19233W        W34702  16.994  10.677   0.575 -0.0899 -0.0830 -0.1051
19234W        W34703  16.041   4.178  15.908 -0.0240  0.0995 -0.6533
19235W        W34704   7.195   7.837   3.358  0.4916 -0.0777 -0.0583
19236W        W34705   0.875   3.947  10.189  0.0127  0.0448 -0.0833
19237W        W34706   1.779   0.433  11.392 -0.0950 -0.2146  0.0265
19238W        W34707   9.169  13.846   2.162 -0.1397  0.2648  0.0419
19239W        W34708   3.523  10.297  15.218  0.2179  0.0461 -0.0416
19240W        W34709  14.401  17.714  11.760  0.2350 -0.1866  0.2193
19241W        W34710   8.588   3.956  12.985  0.0767  0.0549 -0.1528
19242W        W34711   3.049   0.672  11.694 -0.1334 -0.0753  0.1495
19243W        W34712   0.055   3.124  13.692  0.1026  0.1465 -0.1923
19244W        W34713   0.700   2.426  11.623 -0.0135 -0.1359 -0.1435
19245W        W34714   7.419  13.664  12.309 -0.0389  0.3181 -0.2238
19246W        W34715   2.885   6.666  14.977 -0.1973 -0.1999  0.0746
19247W        W34716  16.615  10.461   0.178  0.0994  0.1744 -0.3084
19248W        W34717  11.596   0.966  13.132 -0.0849  0.0824 -0.0100
19249W        W34718   9.157   4.442   3.899  0.3704 -0.2683  0.1429
19250W        W34719   1.493   7.501  13.929 -0.1257  0.0132  0.0958
19251W        W34720  13.797  10.009   4.491 -0.1999  0.1254  0.1601
19252W        W34721  16.651  12.384  11.137 -0.0668  0.2128  0.2652
19253W        W34722  17.610  17.908  15.237 -0.1593  0.0042  0.0986
19254W        W34723  14.393  11.711  11.933 -0.2917 -0.1592 -0.0136
19255W        W34724  10.321   8.200   0.052 -0.0556  0.1311  0.4510
19256W        W34725  14.449  10.517   5.741  0.1374 -0.2499 -0.0745
19257W        W34726  13.789  10.759  11.457  0.0389 -0.2737  0.2122
19258W        W34727   7.015   4.116   5.139 -0.1540  0.0525  0.0374
19259W        W34728   5.347   3.962   2.832 -0.0349  0.0809  0.2525
19260W        W34729   9.893  16.076   1.429 -0.2230 -0.1032  0.1019
19261W        W34730  17.561  13.981   5.246 -0.2881  0.0362  0.0294
19262W        W34731   9.513   1.408   0.975 -0.3584 -0.0302  0.0610
19263W        W34732   2.954  13.700   3.893 -0.1222  0.0228 -0.0594
19264W        W34733   1.898  10.599   3.827  0.2745 -0.2532  0.2387
19265W        W34734   7.874   8.462   0.535  0.1271  0.0972 -0.2694
19266W        W34735   5.411  11.813  15.786  0.0201  0.2203  0.2907
19267W        W34736   9.605   6.198   2.751 -0.0007 -0.2481  0.0620
19268W        W34737   7.606  13.914  14.996  0.2741 -0.2538  0.0752
19269W        W34738   5.730   1.357  12.569  0.0823 -0.0274  0.0380
19270W        W34739  12.298   3.940   1.398 -0.0421  0.0154  0.2690
19271W        W34740   1.878  14.525   2.826  0.1570  0.0180 -0.1021
19272W        W34741   9.988  11.256   3.281  0.0865 -0.0257  0.1828
19273W        W34742   6.240  17.938   5.381  0.1652 -0.0059 -0.1666
19274W        W34743   8.348  10.790  13.821 -0.1589 -0.1127  0.0177
19275W        W34744   5.645   0.869  13.979  0.1968  0.2150  0.1935
19276W        W34745  12.508   5.314   3.548  0.0745 -0.2975  0.2545
19277W        W34746   4.968   1.940   3.921 -0.2957 -0.0897  0.0125
19278W        W34747  14.847  15.688  11.536 -0.4172 -0.0280 -0.3934
19279W        W34748  14.757   8.752  12.777  0.1642 -0.1376  0.0422
19280W        W34749  16.507  14.262   4.716  0.2348  0.0427 -0.1257
19281W        W34750   7.045   7.419   2.056 -0.1567 -0.1483 -0.0632
19282W        W34751   6.365  17.457   3.016  0.0118 -0.0002  0.0203
19283W        W34752  14.044  14.665   4.145 -0.0630 -0.2800 -0.2316
19284W        W34753  11.456   4.274   1.393  0.0496 -0.1040 -0.0988
19285W        W34754   0.381   0.452  16.033 -0.1599  0.1695  0.0789
19286W        W34755  13.052  15.119  15.803  0.0140  0.0409  0.1837
19287W        W34756   3.199  10.127  15.570  0.0388 -0.3668  0.2499
19288W        W34757  10.051   8.212   3.790 -0.1096 -0.1473 -0.1410
19289W        W34758   9.344  17.767  14.848 -0.3079  0.1822 -0.1167
19290W        W34759  16.978   7.414   9.858 -0.2731 -0.2560 -0.0244
19291W        W34760   2.313   6.962  14.934  0.1499  0.1056  0.0971
19292W        W34761   2.076   4.369  10.880 -0.2527 -0.0942 -0.0948
19293W        W34762   6.443  10.091   4.763 -0.0271 -0.0630  0.0490
19294W        W34763   1.744  18.055  14.217 -0.1394  0.1159  0.2088
19295W        W34764  18.101   4.505   1.690  0.3045  0.0145 -0.0494
19296W        W34765   4.708  12.849  16.063  0.1493 -0.2142  0.0598
19297W        W34766   8.744   0.907  11.163  0.0264  0.1602 -0.0184
19298W        W34767   8.399   6.957   4.786  0.1554  0.0882 -0.1666
19299W        W34768   3.185  18.202   2.193  0.0922  0.1053  0.0175
19300W        W34769   6.914  11.776   2.248  0.3445  0.0945  0.1595
19301W        W34770   2.056   9.971   2.649  0.0289 -0.0519  0.0095
19302W        W34771  17.991   8.852   3.959 -0.1178 -0.0968  0.0627
19303W        W34772   1.666   1.674   5.667  0.3368 -0.3792  0.1159
19304W        W34773   3.571  17.567   2.043  0.0407  0.2125  0.2441
19305W        W34774   4.057  10.961   2.802  0.0266 -0.1008 -0.0417
19306W        W34775  17.202   0.123  11.832 -0.0508 -0.6713 -0.1022
19307W        W34776  11.125  18.188   3.086 -0.5299  0.1652 -0.0358
19308W        W34777   2.386   6.557  14.290  0.0695  0.2801  0.0345
19309W        W34778   9.882   1.973  15.483  0.0950 -0.0485 -0.1564
19310W        W34779   7.086  14.285  11.842  0.1517  0.1784  0.0951
19311W        W34780  13.193   8.758   5.701 -0.0966 -0.0249 -0.1001
19312W        W34781   0.272   2.441   0.906  0.2108  0.0787 -0.1921
19313W        W34782   7.031   3.375  14.349  0.2464 -0.0502 -0.1486
19314W        W34783  13.563   4.822   4.610 -0.1024  0.0008  0.2349
19315W        W34784  10.855   9.120  11.217  0.2244 -0.2386  0.2068
19316W        W34785   1.326  12.110  13.249 -0.2576  0.0665 -0.1502
19317W        W34786  17.802  12.855   5.752 -0.1920  0.1373 -0.0193
19318W        W34787   2.583  12.925  14.210  0.2078 -0.1143 -0.0116
19319W        W34788   2.472  17.686   2.906  0.1331  0.0832  0.4609
19320W        W34789  17.531   9.858   0.125 -0.0466 -0.2033  0.0630
19321W        W34790   9.967   2.667   2.288 -0.4092  0.4780 -0.1748
19322W        W34791  10.502  11.360  14.413  0.2258  0.1653  0.1820
19323W        W34792   6.028  15.723   0.660 -0.0559 -0.0790 -0.3418
19324W        W34793  16.173  10.587   3.894 -0.3180  0.1670 -0.2580
19325W        W34794   1.934   0.022   3.559  0.0600  0.1302  0.0342
19326W        W34795   4.987   4.781   0.543  0.2076  0.0550 -0.1611
19327W        W34796   6.644  10.027   3.166 -0.2457  0.0378  0.1466
19328W        W34797  15.583   6.982   5.165 -0.1199 -0.2653 -0.2335
19329W        W34798   5.962   2.484  13.254 -0.0049  0.1582 -0.1231
19330W        W34799  16.545   9.652  16.089  0.1204  0.0422  0.0498
19331W        W34800   4.536   8.102   3.096 -0.0072  0.0470 -0.1449
19332W        W34801   2.751   5.497   2.705  0.4930 -0.3460 -0.1052
19333W        W34802   4.961  11.103   4.939  0.1623  0.1948 -0.0341
19334W        W34803   1.613  14.710   5.882 -0.1380  0.0627 -0.0823
19335W        W34804   4.665  13.955  15.098  0.0603 -0.0818 -0.0004
19336W        W34805   7.982  16.611   5.243 -0.1366 -0.1065  0.1642
19337W        W34806   7.417  17.575   5.298 -0.0761 -0.0923 -0.4232
19338W        W34807  12.257  17.974  14.043 -0.0901  0.0533  0.1549
19339W        W34808   8.548   1.282  12.088 -0.0197 -0.3104 -0.2425
19340W        W34809   3.293  11.710  13.190  0.2496 -0.1293 -0.3753
19341W        W34810  13.710   0.246   2.010 -0.0342  0.3760  0.2933
19342W        W34811   5.314   2.010  15.692  0.3283 -0.1338  0.0365
19343W        W34812   5.425   9.650  12.157  0.0588  0.1472  0.3396
19344W        W34813  18.230  14.752  15.307 -0.2816 -0.0435 -0.0574
19345W        W34814  10.333  15.737  13.441  0.3090 -0.2838 -0.1043
19346W        W34815   6.499  17.507   5.254  0.0851  0.1014  0.2659
19347W        W34816   6.448   9.168  14.428  0.0301 -0.0818 -0.0155
19348W        W34817  17.412  11.654  11.225  0.2013 -0.0319  0.1254
19349W        W34818   0.805   3.476   5.340  0.1394 -0.2100  0.0109
19350W        W34819   4.604   7.215  10.997 -0.1048 -0.0410  0.0412
19351W        W34820  11.577  12.508  13.587 -0.1951 -0.4426 -0.2221
19352W        W34821  15.101   7.702  14.568  0.1277 -0.1133  0.1327
19353W        W34822   3.968  17.698   3.696  0.2631  0.0840  0.0041
19354W        W34823  10.530   4.726   3.615  0.2356 -0.0756  0.1078
19355W        W34824   0.672  16.197  12.509  0.1351  0.0188 -0.0365
19356W        W34825  12.137  11.052  12.801 -0.0385 -0.0543 -0.0807
19357W        W34826   4.529  12.366   4.228  0.0917  0.1241  0.1073
19358W        W34827   6.689  13.596  12.054 -0.1641 -0.3396  0.1249
19359W        W34828  10.643  11.306  11.164  0.0407  0.3049 -0.0018
19360W        W34829   1.172  16.371   2.577 -0.0537  0.1482 -0.0865
19361W        W34830  17.555   8.545   3.888 -0.0312  0.0196  0.1319
19362W        W34831   1.165  12.626  13.000 -0.4100  0.0846  0.2409
19363W        W34832  12.134  17.140   1.439 -0.2100  0.0222  0.2031
19364W        W34833  13.350   0.267  15.836  0.0122  0.0688 -0.0478
19365W        W34834  13.828  13.245  15.915 -0.2649  0.1230  0.0750
19366W        W34835  12.420  15.593   2.991 -0.3302 -0.1196 -0.1861
19367W        W34836  14.031   3.369   2.630  0.0713 -0.2322 -0.0657
19368W        W34837   1.300   6.495   4.990 -0.2679 -0.0737  0.0151
19369W        W34838   5.083  11.475   1.486  0.0075  0.0427  0.0587
19370W        W34839   6.250   2.704  15.963  0.0232 -0.0108 -0.2200
19371W        W34840  13.375  15.990   0.616  0.0531 -0.1662 -0.2286
19372W        W34841   9.362   5.550  13.098 -0.3719 -0.1254 -0.1015
19373W        W34842   5.088   4.959  12.404  0.0343  0.2500 -0.1877
19374W        W34843  14.007   5.890  13.653  0.0687 -0.1486  0.2585
19375W        W34844  17.098   3.524  10.851 -0.1245 -0.3744 -0.0878
19376W        W34845  12.072  16.767   1.795  0.2769  0.0141  0.1413
19377W        W34846  12.828   4.426  11.694  0.0114 -0.1725  0.1121
19378W        W34847   2.873   7.680   2.699 -0.2189  0.0338  0.0769
19379W        W34848  16.096  14.815   1.878  0.1210  0.1121  0.2033
19380W        W34849  11.941  15.742   5.276  0.0858 -0.2586 -0.1725
19381W        W34850  10.505   7.905   2.787  0.0176  0.0590 -0.3409
19382W        W34851   5.755  15.757  14.031 -0.1094 -0.1301 -0.0241
19383W        W34852  16.540  13.180  14.638 -0.3456  0.2092 -0.0591
19384W        W34853   4.058  12.153  15.775  0.1999 -0.0207  0.1910
19385W        W34854  11.101  16.839   0.747  0.1603  0.0426  0.2786
19386W        W34855   0.773  17.565   0.069 -0.0745  0.0007  0.1523
19387W        W34856   9.952   6.256   3.959  0.3480 -0.3834  0.0196
19388W        W34857   7.631  13.699  13.590 -0.3239 -0.1918 -0.0949
19389W        W34858   2.845  17.248   5.073  0.1802 -0.1084  0.5202
19390W        W34859   3.266  16.980   4.951 -0.2415  0.3029  0.0230
19391W        W34860   8.642  13.907  13.612 -0.1070  0.0946  0.0670
19392W        W34861   8.190  17.555  14.527  0.0469  0.2957  0.3443
19393W        W34862   2.513   9.367   3.054 -0.0631 -0.3235  0.1330
19394W        W34863   9.699   5.585   4.972  0.0382 -0.0003  0.3166
19395W        W34864   0.472   6.698   2.062  0.2517 -0.0395  0.1622
19396W        W34865  15.532  12.352  15.593  0.0674 -0.1266  0.0222
19397W        W34866   4.411   9.346  12.236 -0.4721 -0.1402 -0.1914
19398W        W34867  17.781  14.442   2.367  0.0841  0.1898  0.1282
19399W        W34868  13.320   1.732  11.425  0.4755 -0.0690 -0.0046
19400W        W34869  15.463   5.822   0.301 -0.1008  0.3092 -0.1412
19401W        W34870   9.788   9.539   5.307 -0.3994  0.1482 -0.0018
19402W        W34871  12.571  11.477  12.959 -0.0607  0.2108  0.1253
19403W        W34872  10.494  14.604  12.815 -0.1420 -0.2951  0.3150
19404W        W34873  16.212  16.078   3.525  0.2288  0.0950  0.1010
19405W        W34874   1.780   5.900  11.581 -0.1468 -0.1525  0.2882
19406W        W34875  13.510   2.695  16.053 -0.1297 -0.0620 -0.3305
19407W        W34876   6.283  11.647   1.660 -0.0650  0.0642  0.1481
19408W        W34877   3.222   4.342   4.561 -0.1161  0.0333 -0.1582
19409W        W34878  10.923   1.581  13.260  0.1959  0.0158 -0.0486
19410W        W34879   2.212   0.021  14.425 -0.3534 -0.3342  0.0365
19411W        W34880   9.509   3.420  12.906  0.2477 -0.3689 -0.4164
19412W        W34881  14.285   2.339  14.976  0.1313  0.0137 -0.1044
19413W        W34882  15.988  16.239   0.591 -0.2162 -0.1231  0.2436
19414W        W34883   2.640   3.373   5.183  0.0216  0.0657 -0.2076
19415W        W34884   0.897  13.183  12.849 -0.3755 -0.2722  0.1626
19416W        W34885  14.229   7.740   1.471 -0.2232  0.1043 -0.2950
19417W        W34886  13.295   9.097  13.445 -0.2391  0.0499 -0.1923
19418W        W34887   8.277  13.333   4.232  0.0538 -0.2904 -0.0661
19419W        W34888   0.440  13.781   1.729  0.1540 -0.0561  0.2919
19420W        W34889  13.530   7.072   0.762  0.1362 -0.2418 -0.0181
19421W        W34890   7.512   3.455  16.012  0.1282 -0.0008 -0.2283
19422W        W34891   3.316   5.927  12.184  0.2083  0.1416  0.0706
19423W        W34892  10.737   7.298  10.646  0.0082 -0.1729 -0.2493
19424W        W34893  15.701  11.178  15.580 -0.1571 -0.2414  0.0318
19425W        W34894  17.258   3.199  11.781  0.0711 -0.0939  0.1401
19426W        W34895  14.236   2.840  14.439  0.0886  0.2866 -0.0107
19427W        W34896  11.045   0.191  14.068 -0.1463 -0.0106  0.0698
19428W        W34897  16.217   8.874   4.525  0.0051 -0.0954 -0.3350
19429W        W34898   5.701   5.176  13.672  0.1857 -0.1017  0.1835
19430W        W34899  16.118   1.028  14.892  0.1508 -0.1024 -0.0132
19431W        W34900   0.615  14.158  12.151  0.1180  0.1011  0.1727
19432W        W34901  13.820  13.921  11.505 -0.1142  0.2261  0.0636
19433W        W34902   0.295  17.390   5.407  0.2504 -0.1803 -0.1999
19434W        W34903   5.848  13.392  14.060  0.0012  0.0159  0.1141
19435W        W34904  15.314   9.984   5.645 -0.0926  0.1200  0.0224
19436W        W34905  12.503  16.578  13.676 -0.3513 -0.1914  0.1089
19437W        W34906  17.373   1.398   4.181 -0.1333 -0.0252  0.2037
19438W        W34907  14.680  14.789  13.095 -0.1446 -0.0778  0.1462
19439W        W34908   0.307  14.337  13.557  0.2066 -0.2375 -0.4169
19440W        W34909  12.882   1.262   5.649  0.1749 -0.1907 -0.2522
19441W        W34910   7.643   1.872  13.403  0.2106 -0.0289 -0.1960
19442W        W34911  12.934   0.173  13.026  0.2025  0.1526 -0.1048
19443W        W34912   9.754   4.766  15.147 -0.1092  0.0048 -0.3569
19444W        W34913   3.664  12.353  11.124  0.1359 -0.2227 -0.3494
19445W        W34914  14.152  12.177   5.631  0.0443  0.0804 -0.1559
19446W        W34915   2.056   6.463   2.996  0.3621 -0.0453  0.1110
19447W        W34916   2.067  17.068  11.924  0.0099  0.0060  0.1765
19448W        W34917  17.852   6.506   2.557  0.0804 -0.1139 -0.0110
19449W        W34918   9.748  14.436  13.810  0.4082  0.1437 -0.1506
19450W        W34919  15.827   3.001   3.923  0.1300 -0.0769  0.4429
19451W        W34920  17.984  17.510   2.687 -0.0601 -0.1036  0.1920
19452W        W34921   9.655   3.235  15.202  0.2669 -0.1428  0.2757
19453W        W34922   0.733   7.334   5.079 -0.2403  0.2142  0.0298
19454W        W34923   0.168  12.318  15.175  0.1989  0.1778 -0.0243
19455W        W34924   9.074   2.355   1.900  0.0378  0.2103  0.0187
19456W        W34925  12.736   9.758   2.717 -0.1954  0.0091  0.1755
19457W        W34926   3.964   3.824   4.665  0.2688 -0.1843  0.0538
19458W        W34927   5.776  14.628   1.381 -0.0564  0.1391 -0.1975
19459W        W34928   8.759  16.469   0.746  0.3545  0.2377 -0.2013
19460W        W34929   8.995  11.998   1.459 -0.0005 -0.2081 -0.1226
19461W        W34930  16.626  16.874  11.818  0.0091 -0.0889  0.0229
19462W        W34931   0.558   7.458   4.534 -0.0961  0.2118 -0.2547
19463W        W34932  17.587  13.749   4.616  0.1787  0.2194 -0.1134
19464W        W34933  17.528   7.127  16.090  0.0650  0.1209  0.3240
19465W        W34934   6.348   9.654   1.076  0.2157  0.0974 -0.0335
19466W        W34935  12.199  11.478   4.648 -0.0455  0.2174 -0.0795
19467W        W34936   9.824  16.541   2.145 -0.2019 -0.3445  0.1990
19468W        W34937   2.337  15.325   5.244  0.0683  0.0018 -0.3679
19469W        W34938  13.303   6.603  14.225 -0.0743 -0.0616 -0.3328
19470W        W34939  13.426   3.793   6.070 -0.1732  0.0518  0.2310
19471W        W34940   8.435   7.251   3.511 -0.1522  0.2407 -0.0545
19472W        W34941  13.770  16.360  10.778 -0.2831 -0.0593  0.0968
19473W        W34942   3.912  12.227  14.421 -0.1445  0.0048  0.0004
19474W        W34943   9.736   5.474   1.685 -0.2609  0.0932 -0.2611
19475W        W34944   7.187  17.503  12.049 -0.0679  0.4619 -0.3796
19476W        W34945  14.543   7.834  12.370  0.0442 -0.0441  0.2277
19477W        W34946   7.581   3.136   3.360  0.0112  0.1241  0.1807
19478W        W34947  10.881   4.242  13.687  0.0088  0.0770 -0.0371
19479W        W34948  16.302  10.407  13.096 -0.1062 -0.0133 -0.1350
19480W        W34949  10.845  13.662   1.851 -0.0221 -0.1481  0.1309
19481W        W34950   6.011  16.594  14.699  0.2222 -0.1898  0.0990
19482W        W34951   2.294   7.027   1.578  0.0793  0.0821 -0.3254
19483W        W34952   6.070  13.694   1.661 -0.3385 -0.0382 -0.1341
19484W        W34953   3.002   1.172  10.974 -0.1338 -0.1021  0.0186
19485W        W34954   0.297  16.476  10.692  0.1516  0.1177  0.0257
19486W        W34955  16.737  16.240  12.596  0.1236 -0.1569 -0.3057
19487W        W34956   6.729  18.012   5.254  0.1408 -0.0736 -0.0855
19488W        W34957  11.714  16.789  12.101  0.2002 -0.1408 -0.0765
19489W        W34958   4.513   6.598  13.333 -0.0243 -0.0184  0.0177
19490W        W34959   6.235  15.083  11.763 -0.1777  0.2761 -0.3762
19491W        W34960  13.123   1.503  15.161 -0.0678  0.1888  0.0437
19492W        W34961   1.920   9.599  10.420  0.1681  0.0854  0.0740
19493W        W34962   9.913  10.251   1.109  0.1372  0.1308 -0.0804
19494W        W34963   6.426  13.974  12.425  0.0030  0.0799 -0.0688
19495W        W34964  13.645   7.664   2.996  0.0595  0.1218  0.2826
19496W        W34965  14.055   4.333   3.974 -0.1460  0.1443  0.0486
19497W        W34966   9.298   9.349  11.441 -0.0902 -0.1484  0.3660
19498W        W34967   0.059  13.634   6.120 -0.1137  0.2364  0.0582
19499W        W34968  14.753  18.131   0.037 -0.0813 -0.0881  0.1893
19500W        W34969  16.355   0.088  16.032  0.0185 -0.1939 -0.0170
19501W        W34970   8.676  11.370   2.581 -0.1095 -0.0909  0.2056
19502W        W34971   1.902  17.988   1.987 -0.4176 -0.0763  0.2376
19503W        W34972   4.187  14.984   4.458  0.2740 -0.0899  0.0261
19504W        W34973   0.974   2.276  13.923 -0.0278  0.1422  0.1142
19505W        W34974  14.394   7.389   4.591 -0.0912 -0.2515 -0.2075
19506W        W34975   4.558  16.613  11.921  0.0263  0.3636  0.0405
19507W        W34976   0.969  15.545  13.427 -0.3853  0.1667  0.1850
19508W        W34977  17.092  15.481   4.029 -0.1895 -0.0606 -0.0851
19509W        W34978  10.560   0.511  15.834 -0.1905 -0.1639 -0.2178
19510W        W34979   5.874   2.680   3.522 -0.1487 -0.0295 -0.1325
19511W        W34980  14.327   9.239  12.275  0.1558  0.2612 -0.1653
19512W        W34981   8.386   1.638   4.730  0.4463 -0.1621  0.0794
19513W        W34982   9.563  12.558  13.544 -0.0152 -0.0578 -0.3657
19514W        W34983  12.201  17.015  12.197 -0.0929 -0.0277  0.1628
19515W        W34984   8.484  10.738  11.539  0.1048  0.1744  0.1034
19516W        W34985  16.938   3.989  10.416  0.2461  0.0345  0.0470
19517W        W34986   5.099  17.001   3.092 -0.2163  0.0380 -0.2569
19518W        W34987  14.104   2.191   5.042  0.0646  0.0450 -0.0882
19519W        W34988  13.475  14.065   0.936  0.2979  0.1605 -0.5510
19520W        W34989   0.272  10.299   2.568 -0.1481 -0.2422 -0.0478
19521W        W34990  17.668   8.972   3.602 -0.2413 -0.2002 -0.3231
19522W        W34991   2.168   6.683   1.936  0.2608 -0.1666 -0.0721
19523W        W34992   0.491  10.468   2.972  0.0056 -0.0736  0.0887
19524W        W34993  13.605  15.708  10.981  0.0174 -0.1761  0.0862
19525W        W34994  10.672   9.399  16.038  0.1576  0.0957 -0.0163
19526W        W34995  16.302  11.547  13.824 -0.0385 -0.2558 -0.0983
19527W        W34996   7.673   5.788   2.795 -0.3248 -0.1455 -0.3070
19528W        W34997   6.251  10.451  13.998 -0.0717 -0.1659 -0.0290
19529W        W34998  10.715  14.704  13.379  0.1586 -0.0870 -0.0027
19530W        W34999  17.791   9.049  13.366 -0.2019 -0.2464  0.0179
19531W        W35000   3.963  15.105  15.957 -0.2848 -0.2284 -0.0191
19532W        W35001  16.644  13.378   3.714 -0.1621 -0.0574  0.0448
19533W        W35002   8.396  16.838  10.764 -0.2807  0.2538 -0.1838
19534W        W35003  17.567   9.238  10.934  0.0321 -0.2110 -0.0827
19535W        W35004   2.465   3.785  12.280 -0.3109  0.4640  0.2293
19536W        W35005   6.315  11.089   2.308 -0.0444 -0.3114  0.1391
19537W        W35006   9.113   8.637  11.632 -0.1954  0.1238  0.0806
19538W        W35007   9.863   6.066  12.820  0.0742 -0.1877 -0.1924
19539W        W35008   7.796   6.871   1.813  0.2156  0.0539 -0.2523
19540W        W35009  17.538  16.470  12.230 -0.1279 -0.3841  0.2038
19541W        W35010   8.950   9.731   1.432  0.0315 -0.0556 -0.2150
19542W        W35011   3.440  16.499  14.841  0.1117 -0.0963 -0.2790
19543W        W35012   9.017   5.357  14.065 -0.0564 -0.2958 -0.0024
19544W        W35013   6.643   0.910  14.292 -0.0582  0.1976 -0.0188
19545W        W35014  11.493   8.852  12.335 -0.1836  0.1253  0.1161
19546W        W35015  14.726   7.897   4.828  0.2054  0.0057 -0.1819
19547W        W35016   0.139  16.865   6.095  0.0496  0.1928  0.0007
19548W        W35017   1.090  17.191  15.332  0.0921 -0.1158 -0.0801
19549W        W35018   8.560  14.453   5.034 -0.0990  0.1421  0.4463
19550W        W35019   2.081  14.818  11.704  0.1418  0.3064 -0.1731
19551W        W35020   9.303   7.297  12.447 -0.1016  0.2470 -0.1906
19552W        W35021  12.754   7.232   3.708 -0.0767  0.0310  0.0420
19553W        W35022   5.312  13.435  10.915 -0.3500  0.2932  0.2364
19554W        W35023   5.387   1.245  14.210 -0.0930  0.3252 -0.1183
19555W        W35024   9.429  13.992  14.028 -0.2478 -0.1957  0.1809
19556W        W35025  10.214  12.635  11.869  0.1819  0.1233 -0.1007
19557W        W35026   3.961  10.593   4.743  0.2297  0.0388 -0.1205
19558W        W35027   6.675  13.458   4.382 -0.0249 -0.1772 -0.0723
19559W        W35028   5.707  10.039   3.657  0.1517 -0.1546 -0.1330
19560W        W35029   9.660   4.185   4.702 -0.0365  0.2738 -0.1933
19561W        W35030   5.192   2.881  13.597 -0.0399  0.0071  0.3237
19562W        W35031  11.737  13.475   0.014  0.1423  0.4035  0.0211
19563W        W35032   8.057   0.149  13.465 -0.2724  0.2581  0.4305
19564W        W35033  18.224  10.902   4.975  0.0993  0.1773 -0.0194
19565W        W35034   6.297  16.605  15.807 -0.3048 -0.0064  0.0275
19566W        W35035  17.880  12.584  13.740 -0.3102  0.0733 -0.2638
19567W        W35036   5.410   1.293  14.743  0.1359 -0.2428 -0.1006
19568W        W35037   2.083  10.452  14.610 -0.1665 -0.1200 -0.1237
19569W        W35038  13.986  15.409   0.868  0.1528  0.3059 -0.0110
19570W        W35039   1.054   2.509   3.803  0.1754  0.0035 -0.2004
19571W        W35040   3.803   2.380  15.526 -0.1166  0.5195  0.1233
19572W        W35041   9.879   1.849   3.040 -0.0363 -0.0453  0.0399
19573W        W35042   5.282  11.107   2.317 -0.0838  0.1001 -0.1440
19574W        W35043  15.779  10.585  13.027 -0.3065 -0.0198 -0.1175
19575W        W35044  12.193   5.300   4.774  0.3246 -0.0113  0.1312
19576W        W35045  15.428   2.232  13.505  0.0407 -0.0500 -0.1639
19577W        W35046  11.600   3.269   0.943 -0.0513  0.3243  0.1069
19578W        W35047   5.433  14.155  13.471  0.1332  0.0918  0.0802
19579W        W35048   3.787  13.528  15.617  0.1560 -0.0238 -0.1135
19580W        W35049   7.713   1.822   3.560 -0.3074 -0.0652 -0.0646
19581W        W35050   4.236   5.178   0.314 -0.2715  0.1081 -0.3187
19582W        W35051  13.062  17.459   0.327 -0.0015 -0.0271 -0.0579
19583W        W35052  12.753  10.757   4.245 -0.0826 -0.0309  0.0209
19584W        W35053  17.914  15.145  14.583  0.0346  0.3575  0.0750
19585W        W35054   8.040   0.488  13.785 -0.0179  0.1893 -0.0201
19586W        W35055   4.725  13.928  13.791 -0.0889 -0.0710 -0.0241
19587W        W35056   2.191   3.354   5.048 -0.0400 -0.0387 -0.1838
19588W        W35057  12.166   8.508  11.577 -0.0157  0.0039  0.0045
19589W        W35058   3.315  12.270  12.862  0.1812  0.0193 -0.1409
19590W        W35059  16.285  10.327  14.549  0.2085 -0.5248 -0.0888
19591W        W35060   2.449   4.285  13.975  0.1648 -0.4468 -0.0233
19592W        W35061   7.062  11.865  14.392 -0.1348  0.0117  0.1065
19593W        W35062   1.998   0.699   3.554 -0.1552 -0.1794 -0.0849
19594W        W35063  11.709  17.784  10.800  0.0982 -0.1137  0.2023
19595W        W35064   0.788   0.462   3.136  0.0733 -0.0295  0.2006
19596W        W35065   1.874   1.170   3.323 -0.2063 -0.1508 -0.0379
19597W        W35066  16.469  14.014  12.983 -0.0278 -0.0657 -0.0390
19598W        W35067   9.918  12.715   2.991 -0.0922 -0.0877 -0.0945
19599W        W35068  18.026   3.195   2.931 -0.1456  0.0339  0.1206
19600W        W35069  13.766   6.694  15.049  0.1828 -0.0454 -0.1526
19601W        W35070  12.588  13.281   4.836 -0.0051  0.2181  0.0632
19602W        W35071   9.813   6.080  12.066 -0.1967  0.1018 -0.0814
19603W        W35072  15.673  13.713  14.978  0.1417  0.0146  0.0429
19604W        W35073   2.591  17.016   3.882  0.0277  0.0629  0.0915
19605W        W35074  17.585  16.884  13.462  0.0290 -0.0471 -0.1675
19606W        W35075  13.576  12.924   3.934 -0.0074  0.0652 -0.0991
19607W        W35076   1.443  16.086   2.180 -0.1277  0.1659 -0.2203
19608W        W35077  17.056   1.430   0.029 -0.0649  0.1517 -0.0347
19609W        W35078  16.741  16.997   1.671 -0.1859 -0.0587  0.2189
19610W        W35079  14.243   1.017   0.578 -0.1283 -0.1766  0.2336
19611W        W35080  13.267   3.623   3.042  0.2492 -0.2969 -0.0972
19612W        W35081   1.695  11.366  12.021  0.0856  0.0798  0.1766
19613W        W35082  11.145  12.820  12.378  0.1729  0.1058 -0.0969
19614W        W35083   3.715  10.723   1.014 -0.1617 -0.2006 -0.5095
19615W        W35084   6.609  17.687  13.211  0.1130  0.0211 -0.0002
19616W        W35085  14.109   5.757  11.828 -0.0503 -0.3067 -0.0709
19617W        W35086  15.296   2.847  16.062  0.1267 -0.0449  0.1268
19618W        W35087  18.159   9.194   3.636  0.0640 -0.0364 -0.2165
19619W        W35088   1.047  16.223   4.239  0.0440  0.0652  0.0685
19620W        W35089   5.712   2.896  10.875 -0.0494 -0.0917  0.1156
19621W        W35090   3.298   7.354   2.965  0.0642 -0.0948 -0.1956
19622W        W35091  13.372   6.770   2.955  0.1733 -0.4163  0.1021
19623W        W35092   5.448   0.420  11.990  0.1049 -0.1089  0.2951
19624W        W35093  13.507   0.766  12.584  0.1745 -0.3166  0.0137
19625W        W35094   1.255   3.764   5.394  0.1656 -0.1737  0.1488
19626W        W35095   9.950  13.352   0.587  0.1051  0.2457  0.0370
19627W        W35096   2.835   9.718   3.096 -0.1306 -0.0029 -0.0886
19628W        W35097  11.621  12.101  12.511  0.0483 -0.0400  0.1638
19629W        W35098  16.659  16.392  14.666 -0.2637  0.1666  0.0080
19630W        W35099   5.515   1.274  12.109 -0.0774  0.1821  0.1945
19631W        W35100  12.420   6.995  14.375 -0.1488  0.0936  0.0288
19632W        W35101  11.431   3.162  13.722 -0.0030  0.1740  0.1852
19633W        W35102  15.890   4.233   4.934  0.2968 -0.1781  0.0071
19634W        W35103  16.364   7.871  10.470  0.0553 -0.2762  0.1493
19635W        W35104   1.416   3.454  11.842  0.0686  0.1399 -0.1416
19636W        W35105   1.692   2.313   3.683 -0.1833  0.0216 -0.2135
19637W        W35106   4.051   9.375   5.069  0.0022 -0.0360  0.0893
19638W        W35107  14.948  10.423   5.740  0.1478 -0.3419  0.1338
19639W        W35108   5.043   8.187   1.837  0.0623 -0.1520 -0.4017
19640W        W35109   8.067   9.735  12.674 -0.2257 -0.0220  0.1766
19641W        W35110   6.117  14.176   1.764 -0.2885 -0.2687  0.0386
19642W        W35111  17.605  10.150  14.275  0.0345  0.1201 -0.1495
19643W        W35112  14.628  11.796   3.702 -0.1622 -0.0532 -0.0665
19644W        W35113  17.175  12.497  14.909  0.1620 -0.0666 -0.2102
19645W        W35114   3.255  10.400   5.701  0.0332 -0.1226 -0.1674
19646W        W35115  15.746  14.922  15.292 -0.0540  0.1747 -0.0162
19647W        W35116   3.797   7.531  12.913 -0.1643 -0.0978  0.2281
19648W        W35117   7.631   3.970   1.671  0.1357  0.0736 -0.0256
19649W        W35118   9.432   1.656   5.441 -0.0683 -0.0960 -0.1075
19650W        W35119   5.495   4.898   1.136 -0.3037 -0.1563 -0.1997
19651W        W35120   9.702   2.554   1.855 -0.1075  0.2370  0.1797
19652W        W35121   0.707   4.719   1.308  0.1512 -0.0622 -0.2181
19653W        W35122   7.548  17.873   0.931 -0.0142 -0.1625  0.1521
19654W        W35123   3.134   4.799  11.251  0.0717 -0.1869  0.1944
19655W        W35124  16.908   4.949   1.255  0.2028 -0.0182  0.0617
19656W        W35125   5.738   9.692  12.532 -0.1797 -0.0142 -0.0299
19657W        W35126   1.780   5.541   4.645  0.0403 -0.0396  0.0851
19658W        W35127  17.972   9.624   3.489 -0.4836  0.2340  0.0238
19659W        W35128   7.952  16.278   2.988 -0.1504  0.1806  0.2077
19660W        W35129  17.117   3.015  13.207 -0.5045  0.0843  0.2559
19661W        W35130   2.627   3.768  14.125  0.2750 -0.0909 -0.2793
19662W        W35131   6.927   9.592   0.914 -0.0970 -0.1760  0.0874
19663W        W35132  12.395  12.265   3.884  0.0314  0.1653  0.2354
19664W        W35133   8.872  10.491  15.727 -0.0165 -0.0806 -0.0666
19665W        W35134  16.511   9.685  13.489 -0.0856 -0.2183  0.2328
19666W        W35135   6.458  10.148   4.243  0.1668  0.2075 -0.0619
19667W        W35136  13.591   0.681   3.109 -0.1379  0.0085  0.2186
19668W        W35137   8.603  11.894  10.049  0.1392  0.3773 -0.0038
19669W        W35138  14.653  17.184   4.372  0.1476  0.3196  0.1775
19670W        W35139  16.436   5.924  11.366 -0.3543  0.1215 -0.1477
19671W        W35140  10.624   5.240  14.406  0.0235 -0.0191  0.0833
19672W        W35141   2.322   0.631  10.682 -0.1146  0.0587  0.3223
19673W        W35142   2.733  11.141  14.736 -0.0490 -0.3145 -0.4910
19674W        W35143  17.516  14.974  11.472  0.0811  0.1225  0.1300
19675W        W35144  18.181  16.669  11.593  0.4178  0.0439  0.0611
19676W        W35145   8.474  10.985  12.921  0.0592 -0.0445 -0.0296
19677W        W35146  14.551  15.515   2.146 -0.0893 -0.0997  0.0316
19678W        W35147   1.010  17.857  14.136  0.0241 -0.1537 -0.0812
19679W        W35148  10.983   4.969   2.963 -0.0994  0.3677 -0.2562
19680W        W35149   2.796  16.624   5.830 -0.0207  0.0362  0.0870
19681W        W35150   7.127  14.614   3.271  0.0293 -0.4512  0.0168
19682W        W35151   8.127   6.067  15.162  0.2032 -0.0304 -0.2271
19683W        W35152  11.778   6.621   4.720  0.2000 -0.2202 -0.0158
19684W        W35153  12.539   3.429  11.311 -0.0159 -0.4185  0.0535
19685W        W35154   1.208   2.031  16.046  0.1694 -0.1043  0.1447
19686W        W35155   8.160  13.032   3.445 -0.1749 -0.1210 -0.1940
19687W        W35156   5.861  13.628  10.852 -0.1169  0.1015 -0.3440
19688W        W35157  10.641  13.405  13.654  0.3818  0.1617 -0.3043
19689W        W35158   7.571   8.022  15.354 -0.2095 -0.1602  0.0701
19690W        W35159   6.139   8.103   5.453 -0.2704 -0.0573 -0.2985
19691W        W35160  10.340   3.841   0.994  0.0513  0.0668 -0.2021
19692W        W35161   0.831   1.183  15.834  0.2268  0.2299 -0.1676
19693W        W35162  12.258  13.807   2.375 -0.0029 -0.1756 -0.1597
19694W        W35163   0.416  12.870   2.336  0.0073 -0.0298 -0.0155
19695W        W35164   9.137   2.412   3.822  0.3780 -0.0859 -0.2461
19696W        W35165  13.296  15.831   2.953 -0.1799  0.0124 -0.2094
19697W        W35166   8.528   4.533  10.857  0.0207  0.0530 -0.2373
19698W        W35167  17.157   8.150   3.132  0.1600 -0.2854  0.0311
19699W        W35168  16.939   0.768  14.900  0.2638  0.0763 -0.0379
19700W        W35169   2.800   5.477  16.110 -0.2873 -0.2441  0.0508
19701W        W35170   0.448   4.760  14.458 -0.0411  0.2735  0.3177
19702W        W35171  13.996   6.543   5.786 -0.1048 -0.1763 -0.0631
19703W        W35172   8.296  12.638  12.159  0.2047  0.1412  0.0032
19704W        W35173   3.980   6.875  10.753  0.3404 -0.1285  0.0797
19705W        W35174  15.783  13.433   1.592  0.1098  0.1918  0.2879
19706W        W35175   9.676   2.350  12.385  0.2036 -0.1873  0.1097
19707W        W35176   8.594  18.238   0.605 -0.2718 -0.1342  0.0857
19708W        W35177  12.277   8.244   1.411  0.0490 -0.1547  0.1334
19709W        W35178   9.766   5.399  14.463 -0.0608  0.1884 -0.0243
19710W        W35179   4.751   9.418   4.169 -0.1512 -0.0814 -0.1092
19711W        W35180   4.819  14.909   5.201 -0.0859  0.1150  0.0057
19712W        W35181   9.983  14.777   2.095  0.1720 -0.2894  0.0522
19713W        W35182  17.618  13.979   3.132 -0.1329 -0.0318  0.3035
19714W        W35183   5.390  12.316  15.734  0.1699  0.1151  0.0200
19715W        W35184  16.834  18.127  13.342 -0.1980  0.0747 -0.0233
19716W        W35185   9.282   7.822  12.588  0.0558  0.1552 -0.2724
19717W        W35186  12.976   4.742  15.230 -0.1477 -0.1044  0.0195
19718W        W35187  11.430  17.486  14.107  0.5575  0.0626  0.4525
19719W        W35188   3.395   9.215   2.093  0.2537 -0.2900 -0.2995
19720W        W35189   7.355   0.643  12.173  0.0413 -0.1100 -0.2647
19721W        W35190   5.250  17.817  15.992  0.2827  0.1550  0.1752
19722W        W35191   2.060   2.089  14.523  0.1330  0.0697 -0.0142
19723W        W35192  12.687  10.619  13.799  0.3233  0.0061 -0.5750
19724W        W35193   4.781   9.964   0.105  0.3251  0.0752 -0.0770
19725W        W35194   8.044   5.271   2.882  0.1093  0.1545 -0.2537
19726W        W35195   9.053   7.268   0.074 -0.0185 -0.0710  0.0365
19727W        W35196  12.899  15.111  13.322 -0.0766  0.1967  0.1334
19728W        W35197   4.272   9.449  14.385 -0.1648  0.1204  0.1140
19729W        W35198  15.845   4.160  15.389 -0.1432 -0.2539  0.0187
19730W        W35199  12.494   9.770   4.936 -0.1009  0.1902  0.1305
19731W        W35200  16.289  13.929  13.967 -0.0362 -0.2771  0.0552
19732W        W35201   9.569  13.383  14.827  0.2415 -0.1284 -0.1207
19733W        W35202   2.260   6.441   0.480  0.1573  0.0809  0.0887
19734W        W35203  10.200   2.028  14.069 -0.2392  0.0678  0.2839
19735W        W35204  14.571   1.032  12.580  0.2658  0.1243  0.0975
19736W        W35205   9.426   9.203  10.981 -0.0351 -0.2506  0.2042
19737W        W35206   2.894  12.155   1.052  0.2600  0.0988 -0.0581
19738W        W35207  17.938   2.817  14.732  0.1613 -0.0239 -0.0265
19739W        W35208  15.206  15.828  11.947  0.1746 -0.2299  0.0830
19740W        W35209   5.139  15.445  14.123  0.0017 -0.1352 -0.0586
19741W        W35210   6.281  12.919  12.572  0.0624  0.1442 -0.3266
19742W        W35211  11.059   8.048   2.205 -0.0492 -0.3443  0.0101
19743W        W35212  16.443   1.669   2.201  0.1717  0.4465  0.0461
19744W        W35213   9.983   6.072  14.132  0.0890  0.2045  0.1289
19745W        W35214   6.589  14.231   3.721  0.1646  0.2948 -0.0944
19746W        W35215   4.927  15.541  14.624 -0.0010  0.2671  0.2777
19747W        W35216  15.643  16.197   3.080  0.0087  0.0037  0.0313
19748W        W35217   4.473  10.174  11.756  0.2385  0.3064 -0.0601
19749W        W35218   1.006   0.142   0.763  0.2412 -0.2811 -0.1533
19750W        W35219   4.092   1.678  14.830  0.2217 -0.3914 -0.2516
19751W        W35220  13.369  11.625   1.711 -0.1168 -0.1773 -0.3730
19752W        W35221   1.628  15.084   3.645  0.0275 -0.1507 -0.0290
19753W        W35222  17.350   7.522   5.145  0.1872 -0.2083  0.2491
19754W        W35223  10.937   8.440   1.606  0.2175 -0.5166 -0.4372
19755W        W35224   6.265   9.361   0.409 -0.1559  0.1036  0.2558
19756W        W35225  13.327   6.940   6.269 -0.1861 -0.0377 -0.3480
19757W        W35226  15.626   6.905  11.346  0.2156  0.0949  0.1018
19758W        W35227   5.250  14.045  13.973 -0.0540  0.1184 -0.2308
19759W        W35228   1.169   1.026   0.113 -0.1019  0.1890 -0.1130
19760W        W35229   4.282  14.737  12.216  0.0081 -0.2098 -0.3369
19761W        W35230   1.154  12.326  10.349  0.2254 -0.2085  0.1912
19762W        W35231   5.842  12.951  14.891 -0.1374  0.0437 -0.0011
19763W        W35232  12.072   3.760   3.658  0.0568 -0.0970 -0.1536
19764W        W35233   5.937   3.962   3.846  0.2798 -0.0365  0.1587
19765W        W35234   1.575  11.650  15.134 -0.1265 -0.2254  0.0955
19766W        W35235   3.971  13.089  15.322 -0.0236 -0.1367  0.2176
19767W        W35236   5.036   2.335  13.202  0.0339 -0.0018 -0.1161
19768W        W35237   4.741   8.324  15.745 -0.0712  0.0461 -0.3054
19769W        W35238   5.508  13.752   1.726  0.2782 -0.0209 -0.2617
19770W        W35239   2.566  12.306   4.485  0.0033  0.0211  0.2180
19771W        W35240  12.631  13.822   3.075  0.2122  0.0022 -0.0422
19772W        W35241  15.008   1.936  13.686  0.0984  0.1593 -0.0421
19773W        W35242  15.911   5.517  15.484  0.0249  0.2446  0.1104
19774W        W35243  10.970  17.163  11.609  0.1495 -0.1328 -0.0728
19775W        W35244  11.039  12.194   4.577  0.4651  0.1148 -0.0157
19776W        W35245   5.653  15.403  13.399  0.1192 -0.0781 -0.0450
19777W        W35246  12.732  11.378  13.683 -0.3110  0.1455  0.0577
19778W        W35247   2.099   8.492   3.373  0.0573 -0.2695 -0.2131
19779W        W35248   9.141   4.833  14.837 -0.3246 -0.3016 -0.0400
19780W        W35249   9.443  14.180   3.428 -0.0082 -0.3504 -0.1289
19781W        W35250   9.749   3.263   3.119 -0.3487  0.2162 -0.2496
19782W        W35251  10.594  10.144  12.168  0.5556 -0.1800  0.1943
19783W        W35252  13.844  16.391  13.498  0.0990 -0.0275  0.3288
19784W        W35253  11.548   0.784   5.128 -0.1024 -0.3474  0.0248
19785W        W35254  14.214  17.920   2.317 -0.1550 -0.1527 -0.1052
19786W        W35255  14.740  12.332   2.123  0.0391  0.0242 -0.0779
19787W        W35256  12.895   4.041  13.795  0.0466 -0.0297  0.1079
19788W        W35257  12.918  11.222  13.217 -0.2300  0.1008 -0.0896
19789W        W35258   1.551  10.640  14.827  0.1298 -0.4726  0.0978
19790W        W35259   9.612   6.668   1.642 -0.1452 -0.2037 -0.0112
19791W        W35260   6.380  14.533  12.565 -0.0185  0.3735 -0.1464
19792W        W35261  12.868   2.119  12.608 -0.2349  0.2137 -0.0197
19793W        W35262   6.993   7.128   1.651  0.0618 -0.0035 -0.0318
19794W        W35263   2.675  13.733   2.649 -0.2115 -0.2170  0.0175
19795W        W35264   2.430   0.481  13.625 -0.0676  0.0365  0.4927
19796W        W35265   0.661   8.665  13.123  0.1504 -0.2832 -0.0687
19797W        W35266   2.149  10.854   2.571  0.1332 -0.0174 -0.0128
19798W        W35267   6.912   6.069  15.867 -0.0266 -0.1185  0.1477
19799W        W35268  15.971   7.644  11.811  0.2433  0.2436 -0.1022
19800W        W35269   7.441   5.980   2.360 -0.0584  0.0440  0.2429
19801W        W35270  13.861  18.033   0.389 -0.0664 -0.1035  0.2125
19802W        W35271   5.553  16.973   2.739  0.1413 -0.0110 -0.1849
19803W        W35272  17.478  15.037   3.108 -0.1203 -0.4028  0.2277
19804W        W35273  12.259   3.558   2.864 -0.1554  0.0776 -0.1526
19805W        W35274   1.579   1.866  14.666 -0.2715  0.1625  0.1474
19806W        W35275  18.192  11.496   4.877 -0.1152  0.0726 -0.0068
19807W        W35276  15.052  16.605  13.507 -0.2676 -0.0693 -0.3598
19808W        W35277   4.449   4.275  12.049 -0.1508 -0.1817 -0.0141
19809W        W35278  17.104   0.091   1.655  0.0598  0.2570 -0.4661
19810W        W35279  16.065   7.819  13.447  0.0874 -0.3138 -0.1161
19811W        W35280   2.931   6.204  12.361 -0.4402  0.2508 -0.1371
19812W        W35281  13.639   3.479   3.409 -0.2261 -0.1699 -0.0942
19813W        W35282   6.285   1.573  16.078 -0.0509  0.0403  0.0459
19814W        W35283  16.956   9.981   1.710  0.2612 -0.0230  0.2020
19815W        W35284   3.933   2.707   2.732  0.2717  0.1030 -0.0001
19816W        W35285   7.187  10.765   1.546  0.3929 -0.1827 -0.0584
19817W        W35286  14.702   2.044  11.242  0.5041  0.2430 -0.1917
19818W        W35287   9.735  14.496  12.252 -0.0952 -0.1810 -0.0464
19819W        W35288   4.390  17.766   4.479 -0.1828 -0.5324  0.1454
19820W        W35289  18.020   4.244   0.198  0.1854  0.1839 -0.2194
19821W        W35290   1.882   4.979  11.522 -0.3155  0.2414  0.1122
19822W        W35291  12.920  17.768  12.769 -0.3277 -0.2925  0.0013
19823W        W35292  12.875   9.669   4.360 -0.1541  0.1871  0.0924
19824W        W35293  18.212  14.337   4.089 -0.2338  0.1337 -0.1453
19825W        W35294  10.646  14.762   3.983  0.0724  0.1937 -0.0377
19826W        W35295   1.486  18.031   1.705  0.1714  0.1206 -0.0450
19827W        W35296   0.503  15.102   2.371 -0.0984 -0.0333 -0.2120
19828W        W35297   9.380   3.544   1.756  0.0539  0.1754 -0.0583
19829W        W35298   5.019  12.372  16.080  0.2457 -0.3109 -0.2249
19830W        W35299   7.703   9.236  12.335  0.3289 -0.0998 -0.1067
19831W        W35300   0.996  12.852   2.608  0.1213 -0.1450  0.2466
19832W        W35301  17.643  12.778  13.261  0.1284  0.2210  0.0313
19833W        W35302   5.618  10.781  11.419  0.2868 -0.2680 -0.1835
19834W        W35303  15.108   2.700  13.409  0.1409 -0.0688 -0.0015
19835W        W35304   5.154   5.603   4.554 -0.0358 -0.2226  0.0690
19836W        W35305  13.803  13.664   1.060 -0.0320  0.2604  0.1251
19837W        W35306   6.841   3.618   4.193 -0.2339 -0.0467  0.0016
19838W        W35307   2.024  10.528   4.331 -0.1333 -0.2417 -0.2382
19839W        W35308   7.162  11.460  12.700 -0.1214  0.1296  0.2583
19840W        W35309  10.664  11.020   5.693 -0.0435  0.2149 -0.1585
19841W        W35310   9.127   0.414   3.268 -0.2570 -0.0695  0.1351
19842W        W35311  13.298  14.644  12.828 -0.2392  0.1278 -0.0105
19843W        W35312  14.976   5.758   1.706  0.1565 -0.1566  0.1166
19844W        W35313   0.309   1.512   0.797  0.0608 -0.4151  0.6366
19845W        W35314  14.066   0.960   4.138 -0.0007  0.1120  0.1965
19846W        W35315   9.831   8.577   4.147  0.2681 -0.4352  0.1228
19847W        W35316  17.054   2.508  12.457 -0.1579  0.0010  0.3805
19848W        W35317  17.424  16.252   0.335  0.3265  0.0415  0.1057
19849W        W35318   0.040  15.667   2.654 -0.0854 -0.0796  0.0165
19850W        W35319  12.597  14.353   3.362 -0.3357 -0.0883 -0.1951
19851W        W35320   4.706   6.736   1.711  0.2342 -0.0233 -0.0023
19852W        W35321  14.435  18.106   1.347 -0.1732  0.2172 -0.2051
19853W        W35322   0.350   3.469  14.004  0.2098 -0.2890  0.2037
19854W        W35323  12.698  13.713   2.481 -0.2044  0.1836  0.0809
19855W        W35324  16.000   4.684   0.466  0.3136 -0.0585 -0.0250
19856W        W35325   4.434   1.128   1.016 -0.1605  0.0227 -0.1785
19857W        W35326  13.262  11.413   5.449 -0.2613  0.2617 -0.1387
19858W        W35327   7.222  16.308  15.606 -0.2911  0.1907  0.1225
19859W        W35328   0.863   0.063  11.534  0.1565 -0.3582 -0.1718
19860W        W35329   7.340  14.035  13.343 -0.0005  0.2057 -0.1085
19861W        W35330  11.764   0.997  11.285  0.0952  0.2923  0.1319
19862W        W35331   1.340  13.110  13.557 -0.1973  0.1378 -0.1851
19863W        W35332   4.530  10.742   0.595  0.2610 -0.0698 -0.2067
19864W        W35333  12.908  15.199   0.512  0.1540 -0.0259  0.3297
19865W        W35334  15.960   6.314  14.186  0.0162  0.0183 -0.1302
19866W        W35335  17.645   5.820   3.210 -0.1601  0.1695 -0.1304
19867W        W35336   4.590   1.203  13.584 -0.3284 -0.0244 -0.4040
19868W        W35337  10.037  17.651  11.230 -0.1822 -0.2052  0.0039
19869W        W35338  16.799   0.734   3.318 -0.1519  0.1557  0.1207
19870W        W35339   4.829  11.971   1.461  0.3318  0.3430 -0.1415
19871W        W35340  10.820   8.933  14.283  0.1158  0.0217 -0.3103
19872W        W35341  10.822  15.136   0.572  0.2671 -0.1046 -0.2431
19873W        W35342   6.724   6.796   4.085 -0.3259  0.1325  0.1928
19874W        W35343   2.955  11.210  12.191 -0.0796 -0.2322 -0.0120
19875W        W35344  12.871   2.641   1.346 -0.1899  0.1569  0.1193
19876W        W35345  15.104  18.000  13.588  0.1978 -0.1449 -0.3353
19877W        W35346  12.325  17.336  11.827 -0.2014 -0.1610 -0.0507
19878W        W35347  16.894  16.711  14.184  0.2810 -0.1738  0.0247
19879W        W35348  14.166  11.285   5.784 -0.2981 -0.0269  0.3452
19880W        W35349   5.839  15.219  12.413  0.1190  0.0554 -0.4124
19881W        W35350   8.271   2.147  12.785  0.2748 -0.0966  0.0039
19882W        W35351   0.874  16.363   1.076  0.0469 -0.0487 -0.1183
19883W        W35352   3.309  17.205  15.570 -0.0393  0.1283 -0.0845
19884W        W35353  17.657  16.822  13.971 -0.0538 -0.0316 -0.2152
19885W        W35354   9.549  17.462  11.862  0.0861  0.1665  0.0252
19886W        W35355  17.497  14.082   0.543 -0.1308 -0.1953  0.0218
19887W        W35356  14.251  11.356  10.616 -0.1456 -0.1112  0.0045
19888W        W35357   6.975  15.843  15.910  0.4037 -0.0642  0.0424
19889W        W35358  16.567   2.774  12.380 -0.1408  0.3579  0.0812
19890W        W35359  14.752   9.972  13.453  0.0924 -0.5176 -0.5072
19891W        W35360   0.216  10.399  12.041 -0.0192 -0.0447 -0.0678
19892W        W35361  16.888  13.257  13.024 -0.1041 -0.1198  0.3223
19893W        W35362   2.732   3.259  12.882 -0.2951 -0.1976  0.1901
19894W        W35363   0.092   5.913  13.802 -0.0448  0.1042 -0.0857
19895W        W35364   4.029   5.593  11.052  0.1131 -0.1312 -0.0292
19896W        W35365   9.699  16.838   3.086 -0.0108  0.3185 -0.0890
19897W        W35366  15.468   2.944  15.543 -0.1211 -0.1699 -0.1481
19898W        W35367  16.872  14.249   0.516  0.0456 -0.2581 -0.1081
19899W        W35368   7.107  12.751  15.551  0.1185 -0.2546 -0.0690
19900W        W35369  12.238  17.181   4.117  0.2281 -0.0083 -0.0105
19901W        W35370   6.082   1.115   2.626 -0.3115 -0.2906  0.1003
19902W        W35371   1.556   2.330  14.500  0.0124 -0.2063 -0.0066
19903W        W35372   6.604  11.423   2.030  0.2788 -0.0219 -0.0989
19904W        W35373  15.999  18.166  13.275 -0.0650  0.2645  0.4311
19905W        W35374   6.739   3.776  11.952 -0.0753  0.1157 -0.1481
19906W        W35375   4.131   9.026  13.200 -0.2403 -0.0825 -0.1306
19907W        W35376   2.387   3.761   2.640 -0.1103  0.1392  0.4560
19908W        W35377   5.708  16.948  14.846  0.5048  0.0908 -0.1454
19909W        W35378   4.551  13.027   0.997 -0.0513 -0.0656  0.1252
19910W        W35379  14.746   7.788  15.295  0.1231 -0.1986  0.1985
19911W        W35380  10.572  18.247   5.859 -0.1596  0.1146  0.1213
19912W        W35381  12.067   8.095   3.690  0.2955 -0.0295  0.1712
19913W        W35382  15.209  15.871   3.928 -0.0814  0.1344 -0.4597
19914W        W35383  12.968   9.963  13.045 -0.1158 -0.0167  0.1637
19915W        W35384  11.425  14.564   5.323  0.0137 -0.2721 -0.2302
19916W        W35385  17.917  13.943  15.215  0.0028 -0.4671  0.1550
19917W        W35386  17.839   7.817  14.306 -0.1636 -0.0200 -0.1490
19918W        W35387   7.938   4.243  13.868  0.0369 -0.2410  0.0797
19919W        W35388  16.195   2.144  12.741 -0.2306 -0.3209  0.4612
19920W        W35389   1.600   1.281  11.226 -0.2426  0.2973  0.2420
19921W        W35390   8.063  14.205  15.852 -0.1117 -0.1294  0.2548
19922W        W35391   4.926  16.419  15.148  0.1985  0.1920 -0.0703
19923W        W35392   5.609   0.813   3.895 -0.0430 -0.4019  0.1354
19924W        W35393   5.972  11.884   1.381  0.2603  0.0599  0.1529
19925W        W35394   4.666   9.230   0.546  0.1814 -0.4456 -0.2347
19926W        W35395  11.659   5.175   0.369  0.0902  0.1759  0.0088
19927W        W35396   2.248  15.462  12.774 -0.4340  0.2257  0.3851
19928W        W35397   6.562   4.504   3.865 -0.1631  0.2925 -0.1302
19929W        W35398  12.710   5.490   5.180 -0.1060  0.1644 -0.1110
19930W        W35399  15.746   4.315  13.144  0.0703 -0.1375  0.2156
19931W        W35400   0.333   8.765   2.236  0.1988 -0.2055  0.0189
19932W        W35401   2.244  11.154  13.843 -0.2207 -0.0694 -0.1854
19933W        W35402  15.699   6.522   1.449 -0.2461  0.1161 -0.0533
19934W        W35403  15.801   1.250   1.619  0.2776 -0.1919  0.3719
19935W        W35404  17.868   9.940   4.852 -0.0208 -0.0882 -0.0645
19936W        W35405   4.094   8.265   2.189 -0.0810 -0.2680 -0.2254
19937W        W35406  14.711   3.167   0.707 -0.0229 -0.1021 -0.3996
19938W        W35407   5.643  15.462   0.700  0.2547  0.1577 -0.0925
19939W        W35408   2.731   7.523  16.106  0.2479  0.3079  0.2360
19940W        W35409  11.166  14.619   4.067  0.1284  0.0236 -0.1966
19941W        W35410   9.641   0.293  15.057 -0.1544 -0.1457 -0.3315
19942W        W35411   3.705   9.098  11.856 -0.2842  0.0598  0.0473
19943W        W35412   1.907  15.874  13.781  0.1853 -0.0275 -0.0026
19944W        W35413  10.591  12.907   4.490  0.0247  0.1428  0.0292
19945W        W35414   5.565   4.454   0.045  0.2287 -0.0759 -0.2317
19946W        W35415  13.319   8.422  13.504  0.0659  0.1190 -0.1104
19947W        W35416   6.329  10.898  10.668 -0.0198 -0.0174 -0.1399
19948W        W35417  10.381  12.501   0.209 -0.0479 -0.2483 -0.2607
19949W        W35418  17.397   6.839  15.726  0.1483  0.2899  0.0914
19950W        W35419   4.052   8.543   4.721 -0.0953 -0.1578  0.0066
19951W        W35420   3.324  16.364   1.947  0.1745 -0.1185 -0.0868
19952W        W35421   9.160  15.818   3.883 -0.2917  0.2429  0.0068
19953W        W35422  17.475   7.217  12.246  0.1238  0.1143 -0.4332
19954W        W35423  11.354   7.540   2.888 -0.0678 -0.1060  0.1579
19955W        W35424  12.289   4.455   0.609 -0.2966  0.2528 -0.3720
19956W        W35425   7.733  12.520  13.643 -0.0957  0.0011  0.1683
19957W        W35426   3.358  17.151   0.626  0.0650  0.2696 -0.1077
19958W        W35427   2.470  16.269  13.050  0.1093 -0.0243  0.4022
19959W        W35428  11.591  15.668  15.897 -0.1843  0.0338  0.2093
19960W        W35429  12.027   8.236   1.913 -0.0538  0.1322 -0.2645
19961W        W35430   1.004   5.028  11.989 -0.3637  0.1850  0.1363
19962W        W35431   6.379   2.407  14.031 -0.0804  0.0864 -0.3432
19963W        W35432  14.844   8.522  10.313 -0.2429 -0.2931 -0.0241
19964W        W35433  18.147   5.142  11.439 -0.2485  0.1671 -0.0792
19965W        W35434  12.612  12.933  15.392  0.1682 -0.0477  0.0865
19966W        W35435  10.973  17.455   4.270 -0.1656  0.1120 -0.3831
19967W        W35436   5.432   9.093  11.332  0.0598  0.0007 -0.0114
19968W        W35437  12.361   4.495  12.572 -0.2131 -0.3565  0.1071
19969W        W35438   6.139  10.008   2.032  0.1122  0.0022 -0.3989
19970W        W35439   5.402  13.547  12.748  0.0245 -0.0668  0.1381
19971W        W35440  14.146   5.175   0.769  0.1305 -0.3433 -0.1045
19972W        W35441  12.862  13.475  10.017  0.1859 -0.0066 -0.1885
19973W        W35442  14.436   0.583   0.614 -0.2362 -0.0299  0.4707
19974W        W35443  13.038  13.474   2.739 -0.1605  0.3396  0.1728
19975W        W35444  16.537   0.804   1.002  0.2174 -0.1262  0.1349
19976W        W35445   8.902  10.313  14.309 -0.0186 -0.1131 -0.1833
19977W        W35446  12.370  17.242   5.495  0.0537  0.1010 -0.0195
19978W        W35447   9.582   1.234   4.954  0.0641  0.0888  0.1855
19979W        W35448   2.393   2.251   3.092 -0.0124 -0.0537 -0.0997
19980W        W35449   3.935   6.431   5.382 -0.0748  0.0035 -0.0843
19981W        W35450  17.194  17.570  12.051  0.2597 -0.2512  0.3806
19982W        W35451   8.320  10.577  15.706 -0.2338 -0.3425  0.3725
19983W        W35452  12.339  12.883   0.926  0.0044  0.0702 -0.1989
19984W        W35453  11.928  15.494  14.911  0.0625  0.0387  0.3220
19985W        W35454  13.130   7.957   2.884  0.2116  0.2000 -0.0881
19986W        W35455  15.252   7.182   6.814 -0.0344  0.2892 -0.1734
19987W        W35456   3.385   7.408  16.082  0.0090 -0.1054  0.3140
19988W        W35457   9.811  14.676  14.307  0.3689 -0.1555  0.2304
19989W        W35458  17.147  14.299   5.370  0.3735  0.2420  0.0705
19990W        W35459  18.263  13.386  12.443 -0.1234  0.0868  0.0259
19991W        W35460   0.741   1.834   2.897  0.2373  0.0142 -0.0206
19992W        W35461  10.454  10.038  14.025  0.1434 -0.0147  0.1173
19993W        W35462   4.236  16.394  13.779 -0.2845 -0.1725 -0.1925
19994W        W35463   3.165  14.597  12.362 -0.0127  0.0826  0.1862
19995W        W35464  11.245  17.584  11.840  0.0715  0.0629 -0.0431
19996W        W35465   4.161   8.392   1.372 -0.1018  0.4468  0.3167
19997W        W35466  12.737   7.678   2.862  0.0204  0.1515  0.1424
19998W        W35467   9.033  15.742  11.870 -0.1124  0.0934  0.1381
19999W        W35468   1.912  16.668  16.014 -0.1172  0.3082  0.1207
20000W        W35469   3.673   1.153   1.524  0.3131 -0.0409  0.0865
20001W        W35470   6.341  14.623   1.531  0.0989  0.0966  0.1138
20002W        W35471   5.326  15.239   5.813 -0.0175  0.2959 -0.2549
20003W        W35472   7.019   9.228  10.690  0.1705  0.0872 -0.1584
20004W        W35473   4.894  15.319   1.315  0.0266  0.1331 -0.3236
20005W        W35474   4.153   6.338  14.454 -0.1673 -0.3537  0.2349
20006W        W35475  12.818  10.350   3.902  0.1577 -0.5658  0.3411
20007W        W35476   1.001   8.093   1.116  0.3522 -0.0028  0.0925
20008W        W35477   0.299  12.907  13.540  0.1161  0.0815 -0.2181
20009W        W35478  10.368   7.709  13.076 -0.0225 -0.0076  0.2386
20010W        W35479  18.042   5.859  13.062  0.2433  0.2723  0.0266
20011W        W35480   8.131  14.052   2.282  0.2862 -0.0352  0.2623
20012W        W35481   2.719   7.884   4.277  0.3688  0.2018 -0.0669
20013W        W35482  13.856   1.155   3.635  0.0332 -0.1268 -0.0202
20014W        W35483  13.652   5.494   3.973 -0.1498 -0.0395 -0.0387
20015W        W35484   0.213   3.621  12.746 -0.0716  0.1524  0.1228
20016W        W35485  16.889   6.024  14.359 -0.0882  0.1107  0.0396
20017W        W35486   1.837  17.512   4.152  0.0631 -0.0828  0.0938
20018W        W35487  12.300  11.412   1.273  0.0104  0.4257 -0.1068
20019W        W35488   0.911   6.264   3.790  0.0433  0.3690  0.1247
20020W        W35489  16.393  10.276   1.697 -0.0287  0.1630  0.0498
20021W        W35490   9.943   1.290  12.488  0.0760  0.2972  0.0041
20022W        W35491  10.952  17.650   5.650  0.1011 -0.1742  0.2527
20023W        W35492  11.804   7.318  12.984 -0.2898  0.1888 -0.1387
20024W        W35493  16.383  14.730   4.191  0.1451 -0.0318 -0.0134
20025W        W35494   8.482   6.443   4.843  0.0109 -0.1287  0.0450
20026W        W35495   1.653   5.389  14.888 -0.0506  0.2359 -0.0526
20027W        W35496  12.330   4.930   0.786 -0.1247  0.2578  0.0122
20028W        W35497   4.412   2.110   0.908  0.1220  0.2263  0.0260
20029W        W35498   6.084   3.359   0.580 -0.0341  0.0192  0.3019
20030W        W35499   3.851   9.553   2.863  0.0151  0.1134  0.2985
20031W        W35500   7.921  17.380  13.338  0.0764  0.1319 -0.1327
20032W        W35501   1.972  10.423  11.980 -0.2305  0.1277  0.1376
20033W        W35502   0.686  15.338   1.824  0.2223 -0.2387 -0.3413
20034W        W35503  11.237  17.221   3.341 -0.1181  0.0733  0.0277
20035W        W35504   8.183  14.564   2.382 -0.0207 -0.3176 -0.1801
20036W        W35505   8.074  17.736  15.952 -0.2113 -0.0431  0.1553
20037W        W35506   0.843   6.218  11.733 -0.1539 -0.1068  0.0350
20038W        W35507  17.575   7.338  14.490  0.0778 -0.2485 -0.1043
20039W        W35508   3.217   1.263   0.378  0.3009 -0.2176  0.2656
20040W        W35509  10.129  10.508  11.263  0.2157  0.2611  0.0683
20041W        W35510   8.631  13.153   2.129 -0.0151 -0.0498 -0.0575
20042W        W35511  14.721  16.680  13.851 -0.1156 -0.0329 -0.3143
20043W        W35512  17.309   5.155   2.600 -0.0549  0.0762 -0.1877
20044W        W35513   2.353  16.472  14.722 -0.1904  0.1550 -0.1798
20045W        W35514  16.905   8.317   4.621  0.3145  0.0407  0.0891
20046W        W35515  15.449   8.505   0.014 -0.0478 -0.3099  0.4265
20047W        W35516  17.620  14.462  12.164  0.0645  0.1716  0.0083
20048W        W35517   7.084   0.244  13.662  0.1443  0.2732  0.3144
20049W        W35518  14.005   8.597   1.945  0.1295  0.1445  0.2123
20050W        W35519  15.290  12.990   0.614 -0.2378 -0.0791  0.4170
20051W        W35520   8.189   9.339  12.299 -0.0612 -0.1709  0.0305
20052W        W35521   1.787   4.191  15.225  0.0476  0.1308  0.2253
20053W        W35522   1.017   9.127   4.524  0.1245  0.1290  0.1330
20054W        W35523   3.823  17.529   5.217  0.0302  0.2159 -0.1652
20055W        W35524   1.763  11.959   4.960  0.0353 -0.6050  0.0242
20056W        W35525  17.277   7.396   5.598  0.4118 -0.3134 -0.1815
20057W        W35526   8.511   7.254  15.272 -0.0667 -0.2409  0.0162
20058W        W35527  13.118  12.188  13.991 -0.1623 -0.0994  0.0113
20059W        W35528   1.143   4.999   3.635 -0.1139 -0.1545 -0.0281
20060W        W35529   7.143   8.549  15.171  0.0897  0.2174  0.2188
20061W        W35530  18.015  15.192   3.822 -0.1164 -0.0807  0.2361
20062W        W35531  12.862  14.680  13.779 -0.0431 -0.1483  0.3303
20063W        W35532  15.954   3.030  13.657 -0.0848  0.2468 -0.0727
20064W        W35533   0.272   8.992  13.049  0.1206  0.2197 -0.2157
20065W        W35534   8.101   9.941   3.499 -0.4385 -0.0379  0.0376
20066W        W35535   0.302  16.688   3.870  0.0032  0.3911 -0.3440
20067W        W35536  13.743  14.862   2.812  0.0051  0.0659 -0.1163
20068W        W35537   6.705   2.531  15.925 -0.1767 -0.1695 -0.0003
20069W        W35538  10.217   8.338   2.033  0.2238  0.1980  0.0598
20070W        W35539   0.523  13.312   4.115 -0.2215 -0.0439 -0.1424
20071W        W35540  12.567   6.397  13.715  0.1059  0.0738 -0.1299
20072W        W35541   8.700   0.584  15.061 -0.0978 -0.0784 -0.0568
20073W        W35542  12.109  14.691   5.839 -0.1636  0.1282 -0.1424
20074W        W35543  16.594  16.627  15.664 -0.1070 -0.2423 -0.0071
20075W        W35544   9.638   9.787   4.582 -0.0807  0.1035  0.3481
20076W        W35545  10.011  13.171  13.771  0.1334 -0.2164  0.0094
20077W        W35546   7.017   6.673  12.587  0.0302  0.0760 -0.1318
20078W        W35547   6.665  13.173  12.942  0.1224  0.2358 -0.1451
20079W        W35548   7.589   7.478  14.983  0.3285  0.0257  0.1164
20080W        W35549   4.405   5.551  12.587  0.2281  0.2441  0.0536
20081W        W35550  14.051  17.650   0.605 -0.0208 -0.0977 -0.0234
20082W        W35551  10.520   0.488  12.891  0.0318  0.2300  0.2371
20083W        W35552   5.637   3.214  14.606  0.1142 -0.1732 -0.3938
20084W        W35553  18.217  13.244   2.464 -0.1892 -0.2038 -0.2630
20085W        W35554   6.301   4.165  14.084 -0.5005  0.0938  0.1340
20086W        W35555   3.680  15.104   2.628  0.2239 -0.0536 -0.1099
20087W        W35556   3.896   1.189   1.054 -0.2069 -0.2532 -0.0831
20088W        W35557   4.854   2.433  12.745  0.1559  0.3065 -0.0178
20089W        W35558  17.015  17.920   1.555  0.0876 -0.3454  0.2379
20090W        W35559   1.024   5.055  11.424 -0.0102  0.1891  0.1152
20091W        W35560  13.707  10.171  15.470 -0.1290  0.2407  0.1958
20092W        W35561   6.240   2.083  12.237 -0.1905 -0.3534 -0.0414
20093W        W35562   6.078  11.530   2.167  0.3187 -0.4298 -0.0859
20094W        W35563   1.732   2.900  15.879  0.1518  0.3675 -0.1557
20095W        W35564  11.226  11.915  12.956  0.0695 -0.0255  0.2618
20096W        W35565   7.672   8.888   2.957  0.3011  0.0547  0.1228
20097W        W35566  13.136   1.740   3.450 -0.1371 -0.0232  0.0520
20098W        W35567  11.179  11.280   1.571 -0.1850  0.1351 -0.1941
20099W        W35568  10.117   4.511  14.208 -0.0193 -0.0007  0.3671
20100W        W35569  15.057   2.008   0.040 -0.4632  0.3659 -0.0861
20101W        W35570   5.963  13.160   3.814 -0.3481 -0.0220 -0.1288
20102W        W35571  11.510  11.158   0.539  0.0493  0.0155  0.0351
20103W        W35572  13.829  17.703   1.090 -0.0976  0.0846  0.0550
20104W        W35573  16.273   5.573   4.784 -0.1960  0.1305  0.1960
20105W        W35574  17.217   5.972  15.361 -0.0838  0.2269  0.3217
20106W        W35575  12.241   1.315   5.569 -0.0172 -0.0749  0.0447
20107W        W35576   5.456  11.968  15.320 -0.1429  0.1642  0.2499
20108W        W35577   0.017  11.477  11.318 -0.4855 -0.0073  0.3436
20109W        W35578  17.863   6.910   3.048  0.2140 -0.0009  0.0049
20110W        W35579   1.890  11.067  14.204  0.1929 -0.0702  0.0381
20111W        W35580   1.760   3.639  14.390 -0.1823  0.1909  0.1755
20112W        W35581   6.049   8.737   3.209  0.0000  0.3147 -0.0717
20113W        W35582   5.420  13.300   3.149  0.0071 -0.3681 -0.0449
20114W        W35583   1.270  10.707  13.046 -0.2435 -0.1023 -0.1635
20115W        W35584   8.706  13.056  13.188 -0.0564  0.0102 -0.1634
20116W        W35585  11.683  13.403  13.702 -0.1642 -0.0528 -0.1348
20117W        W35586   1.147  11.224  11.393 -0.0219 -0.2646 -0.3162
20118W        W35587   3.480   7.587  15.620  0.1957 -0.1737  0.2370
20119W        W35588   4.939  17.350   3.945 -0.0729 -0.1851  0.3707
20120W        W35589   2.073  10.963   1.894 -0.1149 -0.3042  0.0916
20121W        W35590  11.834  18.153   2.477  0.0827  0.1980  0.2768
20122W        W35591   6.381  17.755  15.208  0.0715  0.1183 -0.2141
20123W        W35592  18.045  17.643  11.640 -0.0935 -0.1809 -0.2085
20124W        W35593   7.697   8.125   3.534 -0.1376 -0.3391  0.4613
20125W        W35594  16.613  18.260   1.512  0.1919 -0.0276  0.0424
20126W        W35595  12.828  14.870   4.120 -0.3173 -0.2192 -0.2223
20127W        W35596  15.526  10.868  12.696 -0.1395  0.3203 -0.1371
20128W        W35597   3.160  11.297   4.784 -0.1548  0.2343 -0.1182
20129W        W35598  11.204   6.525  15.474 -0.0125  0.2763  0.1500
20130W        W35599  11.016   6.815   0.034  0.0700  0.2388  0.1771
20131W        W35600   4.148   6.660   1.377 -0.1224  0.2490 -0.4208
20132W        W35601   5.742  14.590   3.185  0.1893 -0.1568 -0.0033
20133W        W35602  10.751   0.609   2.150  0.1128 -0.0313 -0.2070
20134W        W35603  15.752   1.094   5.475 -0.0216 -0.4067 -0.1193
20135W        W35604  14.261   5.250   3.675  0.0784 -0.1300  0.0836
20136W        W35605  13.479  13.435  14.934  0.1399 -0.0366 -0.1782
20137W        W35606  13.928   4.668   5.063  0.0948 -0.1851  0.0528
20138W        W35607  13.142   1.928  16.099 -0.4262 -0.0146 -0.4693
20139W        W35608   5.248  11.413   0.316  0.0491 -0.0349  0.0472
20140W        W35609   0.730  12.636   3.286 -0.0747  0.0744 -0.1273
20141W        W35610   2.488  16.324  10.459 -0.2280 -0.0171  0.0993
20142W        W35611  11.630  15.146  15.580  0.0821  0.0707 -0.0917
20143W        W35612  18.215   2.972   2.471 -0.0422 -0.0462  0.2876
20144W        W35613  15.903   0.162  14.646 -0.2025 -0.0566 -0.0129
20145W        W35614  12.974  17.296  12.547 -0.1107 -0.0250  0.1856
20146W        W35615   6.502   8.389   2.310 -0.1574  0.1944  0.1098
20147W        W35616  12.925   5.434  13.969 -0.0070 -0.0246 -0.3552
20148W        W35617  12.772   5.211   1.032 -0.3310 -0.0921  0.2404
20149W        W35618   6.258   1.185  15.096 -0.0734 -0.0976 -0.1452
20150W        W35619  13.276  11.722  12.634 -0.3647  0.3987 -0.1147
20151W        W35620  16.017  11.719   0.661 -0.1513 -0.2168 -0.1795
20152W        W35621   5.488  12.277   2.743  0.1254  0.1544  0.0124
20153W        W35622  13.926  17.664   3.456  0.0096  0.2487  0.1179
20154W        W35623   7.460   8.745  14.865  0.0184  0.1897 -0.2003
20155W        W35624   3.072   3.776   1.770 -0.0271 -0.3338  0.2206
20156W        W35625  13.475  12.709  12.719  0.1114  0.3642  0.0203
20157W        W35626   9.724  15.743   0.013 -0.1038  0.0522  0.1767
20158W        W35627   5.468   4.642  14.541  0.0779 -0.2335 -0.1996
20159W        W35628   6.764   0.955   2.940 -0.1015  0.2204 -0.1150
20160W        W35629  15.396  17.395   3.214 -0.2166  0.0586 -0.0566
20161W        W35630   2.604   9.981  15.342  0.1600  0.1951  0.0727
20162W        W35631   8.202  10.044  11.889 -0.0820  0.0743 -0.2749
20163W        W35632  12.254   7.215   1.468  0.0433 -0.0321 -0.2238
20164W        W35633   8.315  11.369  10.865  0.2381 -0.2223  0.3494
20165W        W35634  11.235   1.718   2.759 -0.1089  0.3876 -0.0555
20166W        W35635  15.235   6.837  13.330 -0.0640  0.2669 -0.1349
20167W        W35636  16.583  17.537  10.920  0.2033 -0.1876  0.0269
20168W        W35637  16.774  13.661   2.738  0.0230  0.0941 -0.0834
20169W        W35638  12.573   1.929   0.927 -0.0374 -0.0631  0.2327
20170W        W35639   0.448  12.370   5.972 -0.0506  0.2234 -0.1545
20171W        W35640   4.678   6.054   3.295 -0.1204  0.0273 -0.1849
20172W        W35641  12.513  17.779  11.719 -0.1304  0.2832 -0.0509
20173W        W35642   4.495   5.269  10.749 -0.1147 -0.0078  0.0395
20174W        W35643   9.364  14.973  13.112 -0.0002 -0.2143  0.0127
20175W        W35644  17.076  18.204  14.626  0.0300  0.0821 -0.1086
20176W        W35645   5.840   0.395   4.876  0.1258 -0.1659  0.1087
20177W        W35646  16.265   8.561   1.457  0.2590 -0.0636  0.5325
20178W        W35647  11.308  15.713   5.979 -0.0045  0.1062  0.1186
20179W        W35648  15.768   6.164   3.386  0.0878 -0.2160 -0.1357
20180W        W35649  13.264  14.982  11.608  0.0556  0.0767  0.1414
20181W        W35650  10.225  13.523   4.428  0.1432  0.2933 -0.0604
20182W        W35651   6.437  11.908   0.565  0.6363  0.2095  0.0415
20183W        W35652  11.822   2.694   4.038  0.0308 -0.1386 -0.0416
20184W        W35653  13.393  10.884   3.351  0.0863  0.2022  0.0197
20185W        W35654  16.728   3.999  14.967 -0.0470 -0.0425  0.2143
20186W        W35655   8.720   1.093  11.663  0.1423  0.1169  0.0608
20187W        W35656  10.804   9.683   5.462 -0.1223 -0.2099 -0.1141
20188W        W35657  12.347   4.813  12.926  0.2092 -0.1191  0.1683
20189W        W35658   2.042  10.422   1.724 -0.2124 -0.1318 -0.1848
20190W        W35659   6.604   7.023  15.778 -0.3629  0.1152 -0.0589
20191W        W35660   6.197  18.171  13.978  0.1809 -0.0705  0.0306
20192W        W35661  16.475  16.517   4.316 -0.1504  0.0692  0.0842
20193W        W35662  10.990  17.708   3.855 -0.1133  0.1414  0.0446
20194W        W35663  17.282  16.348   2.484 -0.0959  0.2549 -0.0220
20195W        W35664  10.735   3.134   2.013 -0.2280 -0.2567  0.0321
20196W        W35665  15.972  13.987  14.384  0.5587 -0.2169 -0.0047
20197W        W35666  17.337  14.879   2.447 -0.0356  0.2074 -0.1121
20198W        W35667   4.494   3.407   4.716 -0.2999 -0.0475 -0.1150
20199W        W35668  14.255   9.904  11.419 -0.1718  0.0285  0.1151
20200W        W35669   1.800  10.036  15.854  0.0383 -0.1925  0.0580
20201W        W35670  16.400  18.261  13.624  0.2172  0.1069 -0.2589
20202W        W35671   3.665  13.921  14.616  0.0443  0.2471 -0.2598
20203W        W35672   0.507  15.325  14.341  0.1334  0.0492  0.2309
20204W        W35673  11.784   9.685  11.390  0.0855  0.1459 -0.2229
20205W        W35674   3.271  14.899  11.547 -0.1084 -0.1003 -0.2940
20206W        W35675   0.234   5.639   4.931 -0.0279 -0.1210  0.1023
20207W        W35676  15.772   3.014  11.949  0.2905  0.3436  0.0520
20208W        W35677   3.453   3.495   0.717  0.0173  0.1684 -0.0303
20209W        W35678  16.036  12.736   2.961 -0.0006  0.0943  0.2442
20210W        W35679   9.192   4.572  13.315  0.0138 -0.0653 -0.3598
20211W        W35680   7.897  12.138   3.507  0.1648  0.1575 -0.1289
20212W        W35681  11.651  16.337  13.465 -0.1088 -0.2557 -0.0140
20213W        W35682  13.899   7.099  15.283 -0.1989 -0.2636  0.0704
20214W        W35683  11.307  16.005  15.660 -0.1471 -0.0837 -0.0718
20215W        W35684  18.036  16.030   4.711 -0.0863  0.1153 -0.1467
20216W        W35685   9.326   9.594   1.074 -0.0826  0.2125  0.1820
20217W        W35686  17.852  13.452   2.770 -0.1563  0.0495 -0.1173
20218W        W35687  10.540  12.707  14.276  0.3153 -0.2780  0.0291
20219W        W35688  11.467  10.701  11.243 -0.1894  0.1194 -0.0619
20220W        W35689  10.616   5.216   5.726  0.0319  0.1017 -0.0831
20221W        W35690   8.393   2.539  13.046  0.4127 -0.0535 -0.0750
20222W        W35691  13.293  15.385   2.385  0.0288  0.1242  0.2851
20223W        W35692  15.714  18.077  10.791  0.0052 -0.1830 -0.0077
20224W        W35693   8.611  11.255   0.830  0.3341 -0.1196 -0.1507
20225W        W35694  12.365   9.036   3.073 -0.0410 -0.1496 -0.0027
20226W        W35695  14.136   8.207   4.057 -0.0340  0.0941  0.0059
20227W        W35696   6.767   9.964  11.501  0.2228  0.0609 -0.1961
20228W        W35697  15.645   7.715   0.453 -0.1228 -0.1820 -0.2202
20229W        W35698   0.102  15.908  13.741  0.2313 -0.0972  0.1993
20230W        W35699  16.422  15.943  11.912 -0.0059 -0.1199  0.3369
20231W        W35700  17.426   5.918   4.567  0.0337 -0.1010  0.2319
20232W        W35701   2.837  15.395  14.460 -0.0306  0.0264  0.4580
20233W        W35702  18.270  13.711   0.114  0.0704  0.2103 -0.2890
20234W        W35703   5.720  14.840  14.030  0.1782  0.0072  0.2518
20235W        W35704   4.562   0.980  14.417  0.1958 -0.0509 -0.0463
20236W        W35705  17.780  14.270  13.540 -0.0407  0.3241  0.3451
20237W        W35706   2.638   8.799   0.115  0.1603  0.2495 -0.1542
20238W        W35707   2.093  10.028   0.532 -0.1793  0.0011  0.0763
20239W        W35708  16.484  16.258   1.154 -0.0317  0.2874  0.0004
20240W        W35709   8.423   8.391   4.137  0.0514  0.3575  0.1338
20241W        W35710  17.096   6.287  11.865  0.0761  0.0241  0.0634
20242W        W35711  15.042  13.994  13.352  0.0243 -0.1509 -0.3074
20243W        W35712  16.594   5.993  13.513 -0.1137  0.2418 -0.1214
20244W        W35713   2.926   8.403  12.380  0.2386  0.1252 -0.1399
20245W        W35714  16.671   2.603   0.027 -0.1038  0.1549  0.3001
20246W        W35715  13.059  10.263  11.726  0.2505 -0.2254  0.0681
20247W        W35716   1.109  11.555  11.039  0.1669  0.2383 -0.0419
20248W        W35717   3.407   7.474  13.874 -0.0300  0.1464 -0.1641
20249W        W35718   8.373  14.602  15.786 -0.1070  0.0633 -0.1116
20250W        W35719   6.652  14.933  14.672 -0.0431 -0.0407 -0.0667
20251W        W35720   0.067  12.699  12.903 -0.2418 -0.1013  0.1845
20252W        W35721   1.810  17.619   4.930  0.0588 -0.0152 -0.0528
20253W        W35722   6.443   4.826  10.714  0.0427 -0.0474 -0.2486
20254W        W35723   6.920   6.639   4.524  0.0433 -0.1092 -0.1761
20255W        W35724   9.405  14.480  14.163 -0.1008  0.1701 -0.0404
20256W        W35725   8.543  13.384  15.104  0.6268 -0.0921  0.0593
20257W        W35726  13.620  15.172  10.671  0.2195  0.1262  0.2431
20258W        W35727   2.237   9.514  15.243 -0.2234  0.1474 -0.0521
20259W        W35728   9.662   0.380  12.292  0.2333  0.0295 -0.4844
20260W        W35729  16.500   7.442  15.608 -0.2996 -0.0201 -0.3916
20261W        W35730   5.809   4.864   4.710 -0.0067  0.0061  0.1833
20262W        W35731   7.783   2.939   4.774  0.2426  0.2100  0.0361
20263W        W35732   8.951  14.825  13.845  0.0709  0.1337 -0.0497
20264W        W35733   8.438  15.671  11.018 -0.0428  0.1983 -0.0264
20265W        W35734   7.635   5.503   1.521  0.2629  0.2589  0.0497
20266W        W35735   1.270  10.754  12.508  0.0232  0.0628 -0.0912
20267W        W35736  13.229  15.657  15.245 -0.0249  0.0413 -0.2998
20268W        W35737   7.182   4.163  14.440  0.2565 -0.1965 -0.1072
20269W        W35738  11.345   9.617  14.828  0.0096 -0.3941  0.0727
20270W        W35739   3.668  17.380  16.015  0.0527  0.2008 -0.3715
20271W        W35740  10.453   4.253   3.908 -0.2062  0.2282 -0.0644
20272W        W35741  13.322   2.316  15.818 -0.3055  0.2573 -0.0159
20273W        W35742   8.822   0.949  15.845 -0.2192  0.0632 -0.0936
20274W        W35743   3.278  17.534   4.931 -0.1760 -0.0208 -0.0600
20275W        W35744   3.419  12.431   2.917  0.1583 -0.1506 -0.0429
20276W        W35745  10.591   7.322  11.118  0.0852  0.1160  0.3803
20277W        W35746  17.411   2.147  13.446 -0.0146  0.2024  0.1382
20278W        W35747   0.681  11.104   5.314  0.1480 -0.1626  0.0497
20279W        W35748   3.288   3.375   2.608 -0.0383  0.1493  0.2112
20280W        W35749  12.547  11.631  15.178 -0.3675 -0.1288  0.2923
20281W        W35750  12.968   2.442   0.109  0.1395 -0.0598 -0.0112
20282W        W35751  10.927  12.528   4.918  0.1355  0.1044  0.3514
20283W        W35752  10.300   7.927   9.780  0.2196 -0.0476 -0.2120
20284W        W35753   0.511   9.400   0.028  0.2778  0.0539  0.1002
20285W        W35754  10.386   1.919   0.969 -0.3103  0.3491  0.1251
20286W        W35755  13.039   6.531   6.390 -0.1012  0.0058 -0.0784
20287W        W35756  10.021  11.760   4.464  0.0074 -0.1400 -0.0862
20288W        W35757  10.087  15.860  13.060 -0.3550 -0.0110  0.1449
20289W        W35758  11.464   9.854  12.835  0.1164 -0.0132  0.0211
20290W        W35759   8.041   3.615  11.754  0.1399 -0.0589  0.0250
20291W        W35760  14.717  11.783  13.947  0.0146  0.1754 -0.0421
20292W        W35761   8.415   0.592  12.418  0.3263 -0.1433  0.0306
20293W        W35762   7.415   0.284  11.433  0.0011 -0.0986  0.0056
20294W        W35763  16.993   6.432   0.830 -0.1524  0.0174 -0.3692
20295W        W35764   9.651   5.686   0.243  0.2381  0.1171  0.4337
20296W        W35765   9.004   3.137   1.468  0.1503 -0.0025  0.0349
20297W        W35766   9.202   5.411   0.998 -0.2762 -0.0347  0.0451
20298W        W35767   3.575   4.092   4.293  0.0086  0.2268 -0.0927
20299W        W35768  17.945   3.764   0.041 -0.0790  0.3001 -0.5363
20300W        W35769   0.066   0.502  13.656  0.0188  0.0627  0.0885
20301W        W35770  18.219  11.897  12.528  0.0273  0.0380 -0.1911
20302W        W35771  13.510   2.221  11.422 -0.0516  0.2593 -0.1648
20303W        W35772   6.547  17.629  10.601  0.3420  0.0813 -0.0600
20304W        W35773  15.464   7.393  13.325 -0.1676  0.0223  0.0963
20305W        W35774  11.152   5.694   3.714  0.4341  0.4718 -0.2317
20306W        W35775   1.730   2.228  14.970  0.0374  0.2430 -0.0545
20307W        W35776   9.988  10.863  13.766  0.1222 -0.1719  0.0641
20308W        W35777  14.671  17.289   1.183 -0.1282  0.1166 -0.0746
20309W        W35778  14.591   3.654   0.013  0.0192  0.0961  0.1006
20310W        W35779   2.653   8.462  15.824  0.0317 -0.0786  0.2813
20311W        W35780  17.793   7.727   5.277 -0.1558  0.0158 -0.1924
20312W        W35781  14.840   6.223   5.248  0.0789  0.0337 -0.1672
20313W        W35782  12.503  13.659   1.982  0.1044  0.4268 -0.0114
20314W        W35783  12.626   2.263  15.870 -0.0711  0.1049 -0.0436
20315W        W35784   0.633   7.372  15.258  0.2530 -0.0633 -0.2176
20316W        W35785   3.644  12.042  11.548  0.0125 -0.1476  0.0771
20317W        W35786   1.750   5.922   4.991  0.2392 -0.2081  0.0669
20318W        W35787   0.273  15.097   5.496  0.0037 -0.1727  0.2306
20319W        W35788  16.462   8.016   4.560  0.1583  0.2825  0.2754
20320W        W35789  14.529   2.419  14.538 -0.0366 -0.1298  0.0239
20321W        W35790   5.231   3.178  12.662  0.2382  0.0693 -0.1115
20322W        W35791   2.579   5.153   0.312 -0.2139 -0.1060 -0.1974
20323W        W35792   2.269  16.193   2.282 -0.0131 -0.1868  0.3421
20324W        W35793   5.442  14.109   1.189  0.2406 -0.1560 -0.0361
20325W        W35794  16.398   5.547  15.404 -0.1163  0.0969  0.0618
20326W        W35795  14.512  14.869   2.083  0.0019  0.1398  0.1063
20327W        W35796   4.955   7.037  16.026  0.2850  0.0569 -0.5616
20328W        W35797  11.774   6.042   5.132  0.1956 -0.1647  0.3543
20329W        W35798   1.322   3.494  15.172  0.2195 -0.1044  0.1496
20330W        W35799   3.655   3.346  14.213 -0.1427  0.0308 -0.3258
20331W        W35800   6.884  12.593  14.095 -0.0204 -0.0959  0.1212
20332W        W35801   5.250   3.624  10.840  0.2039 -0.0398  0.1242
20333W        W35802   8.700   2.428  14.502  0.0567 -0.2103  0.0449
20334W        W35803   9.949   5.052   3.466  0.2266  0.0481  0.5273
20335W        W35804   5.102   1.364   2.754  0.0367 -0.0622  0.3141
20336W        W35805   6.479   6.132   0.090 -0.0696  0.0965  0.3398
20337W        W35806  16.617   7.462  12.320 -0.3148 -0.1790  0.0741
20338W        W35807  10.097   9.002  14.577 -0.0260  0.0747  0.1231
20339W        W35808  12.908  17.701  14.034  0.3069  0.1270 -0.0597
20340W        W35809  10.241   5.639  13.202  0.0813 -0.0684  0.1225
20341W        W35810   4.955   0.825  13.560 -0.2398 -0.0853 -0.2218
20342W        W35811   9.608   8.379   1.394  0.3666  0.1367  0.2013
20343W        W35812   0.981   9.780  12.806 -0.2558  0.3920  0.2409
20344W        W35813   5.052   7.877   5.277  0.1621  0.0820  0.2361
20345W        W35814  14.288   3.935  11.976  0.0640 -0.1080 -0.0079
20346W        W35815  18.017   2.152   0.222 -0.3561 -0.3751 -0.0595
20347W        W35816   3.046   2.467   0.045 -0.1009 -0.0718 -0.0265
20348W        W35817  16.651  12.689  14.414 -0.1096 -0.1156 -0.0904
20349W        W35818   3.408   7.110   2.537  0.2282 -0.3854 -0.2006
20350W        W35819   7.631  17.010   4.423  0.2044  0.2263 -0.0119
20351W        W35820  11.345   2.708   4.216  0.0279  0.0432 -0.0951
20352W        W35821  11.259   1.700  11.685 -0.3661  0.1266  0.3190
20353W        W35822   3.689  15.588  14.049  0.0371 -0.1812  0.2479
20354W        W35823  16.348  15.715  11.445 -0.1815  0.0528 -0.1718
20355W        W35824   4.219   9.303   2.542 -0.1455  0.0699 -0.0369
20356W        W35825   7.709   8.253   1.454  0.0777  0.0362  0.1624
20357W        W35826  10.420  18.172  13.840  0.2146 -0.1328  0.0817
20358W        W35827  11.788   9.610   0.492  0.1002 -0.3408  0.1593
20359W        W35828   9.161   2.836  11.774  0.1267  0.0160 -0.0196
20360W        W35829   7.215  10.073  10.618 -0.0225  0.0957 -0.1495
20361W        W35830  12.973   8.958   5.098 -0.2235 -0.1558 -0.0287
20362W        W35831   4.324  12.592   3.300 -0.1624 -0.1693 -0.1602
20363W        W35832  11.463  11.927  13.395  0.2483  0.3464  0.1129
20364W        W35833   8.193   6.780   2.160  0.1244  0.1119  0.1257
20365W        W35834  12.475   0.629  14.910 -0.0216  0.0033 -0.0221
20366W        W35835   2.411  15.024   3.532  0.2310 -0.0604  0.4584
20367W        W35836  15.844  16.156   2.651 -0.0374 -0.1052  0.0572
20368W        W35837   1.257   4.171   5.118  0.3808 -0.1807 -0.0819
20369W        W35838  15.615   3.091   2.223  0.1793  0.0285 -0.1041
20370W        W35839   2.908   9.966  14.050 -0.2170  0.1677 -0.0607
20371W        W35840   1.953   8.363  13.194  0.1999  0.1283  0.0956
20372W        W35841  12.235   6.913   1.863 -0.0367 -0.1174 -0.0524
20373W        W35842  10.218   0.183   1.512 -0.0389 -0.1214  0.1682
20374W        W35843  10.333   7.978   4.102  0.0303  0.0567 -0.2208
20375W        W35844   9.639  16.762   2.603 -0.1453  0.0195  0.2148
20376W        W35845  15.099  16.316   1.208  0.1047  0.1984 -0.2573
20377W        W35846  12.039   6.100  12.469  0.0857  0.0110 -0.0074
20378W        W35847   7.359   5.464   0.805  0.2161  0.1377  0.0311
20379W        W35848   5.657   9.007  16.029  0.1217  0.0361 -0.2243
20380W        W35849  10.406   2.829  13.455 -0.0276  0.3280 -0.0473
20381W        W35850   2.247   9.569  14.127  0.0177 -0.1404  0.2645
20382W        W35851   8.921   8.620   0.790  0.1351 -0.1877  0.1820
20383W        W35852   6.262  11.793   5.469 -0.1034 -0.3333 -0.0204
20384W        W35853   2.910   1.985   5.974  0.0713 -0.1143 -0.2515
20385W        W35854  14.341  11.837  14.392 -0.2269 -0.0473  0.2080
20386W        W35855   9.331   7.701   0.085  0.1763  0.1781 -0.0746
20387W        W35856   1.001  15.525   4.631 -0.1310  0.2353  0.2982
20388W        W35857  12.696  13.667  10.979 -0.0920 -0.0311 -0.1245
20389W        W35858   0.131   9.513   3.290 -0.1625  0.2392  0.1410
20390W        W35859   7.691  14.488   6.260  0.2189 -0.1435 -0.2292
20391W        W35860  17.758   5.205  14.149 -0.3588  0.1657 -0.4374
20392W        W35861   2.880  17.049  15.385 -0.0550 -0.0230 -0.2986
20393W        W35862   1.754  10.616   5.498 -0.1711 -0.1235 -0.0125
20394W        W35863  16.626   3.960  12.905 -0.0790  0.1684  0.1194
20395W        W35864   9.205   8.080   2.839  0.1590 -0.1244 -0.0092
20396W        W35865   9.609  11.957  11.595  0.0854 -0.0228  0.0153
20397W        W35866  14.311  13.126  15.994  0.2942  0.0695 -0.2619
20398W        W35867   7.311   0.320  10.931 -0.2453  0.0591 -0.0375
20399W        W35868   6.870   3.406  11.648  0.4225  0.0209  0.0231
20400W        W35869  14.209   0.395   1.915  0.0101 -0.1900 -0.1678
20401W        W35870  16.720  12.002  10.727  0.0961  0.1182  0.1537
20402W        W35871   4.173   2.426   1.776 -0.0564 -0.0885 -0.0455
20403W        W35872   3.748   1.012   4.784 -0.1503  0.0280  0.3165
20404W        W35873   5.986  16.222   0.885 -0.1561  0.0290  0.1646
20405W        W35874   0.305  12.390   3.124  0.0850 -0.2268  0.0948
20406W        W35875  14.512   4.849  12.427 -0.1037 -0.2205 -0.3926
20407W        W35876  13.267  16.179   3.307 -0.0290 -0.0903 -0.0291
20408W        W35877   0.782  14.801   5.594 -0.2023  0.0272  0.1648
20409W        W35878   9.023   5.304   4.973  0.0178 -0.4363  0.0702
20410W        W35879   9.376  12.255   1.793 -0.0891  0.0566  0.0968
20411W        W35880  17.089  14.047   2.859 -0.0912  0.0954 -0.2080
20412W        W35881  15.334   1.797   6.167  0.0908  0.0491  0.1118
20413W        W35882  10.134   5.607  11.677  0.2075 -0.0533 -0.0132
20414W        W35883  15.712  16.166   4.092  0.0860 -0.0477  0.0156
20415W        W35884   9.800   1.182   1.979 -0.2024  0.0429  0.0125
20416W        W35885   6.815  16.832  10.570 -0.0043  0.0401 -0.0337
20417W        W35886  11.015  10.166  14.903  0.0104 -0.1498  0.0400
20418W        W35887  10.329   9.576   1.307 -0.0671 -0.2242  0.0339
20419W        W35888  15.847  12.697   3.928 -0.0458 -0.1355  0.0928
20420W        W35889  16.250   5.228   6.030  0.1338 -0.3479 -0.0853
20421W        W35890  13.132   4.542   3.657  0.0963  0.0897  0.1520
20422W        W35891   6.407   4.651  16.082  0.0551  0.1473  0.0150
20423W        W35892  14.561  12.436  12.948  0.2531 -0.2154  0.1769
20424W        W35893  11.594   2.969   0.498 -0.1908  0.2462  0.0676
20425W        W35894   6.837  16.431  14.745  0.0384  0.2205  0.3045
20426W        W35895  15.332   3.461  15.667 -0.1672 -0.0196  0.0203
20427W        W35896   1.405   3.519  15.755  0.1737 -0.0520 -0.1738
20428W        W35897   9.048  10.921   1.963  0.2527  0.0833 -0.1187
20429W        W35898  11.003  13.304   2.751  0.0197  0.0845  0.3015
20430W        W35899   6.493  16.553  13.451 -0.0720  0.0362 -0.1412
20431W        W35900  12.220   6.825   5.801  0.0247 -0.0195  0.2915
20432W        W35901  16.431  15.647   1.763  0.0262 -0.1197 -0.1812
20433W        W35902  11.376  17.130   2.726  0.0195 -0.0434  0.1864
20434W        W35903  11.620   1.604   4.620 -0.0372  0.0672  0.1637
20435W        W35904  10.800  11.393   0.866 -0.1907 -0.3007 -0.2511
20436W        W35905  14.119  12.617   5.370 -0.1392  0.0199  0.1527
20437W        W35906   7.509  10.252   1.536 -0.0265  0.0433  0.2874
20438W        W35907  10.844   5.263   3.714  0.0194  0.0802 -0.0038
20439W        W35908  13.339  15.037   1.539  0.0866 -0.2453  0.1243
20440W        W35909   1.396   0.563   0.342 -0.3132 -0.1444 -0.2079
20441W        W35910   5.769   4.179  10.567  0.1899  0.0296  0.1212
20442W        W35911  10.023  13.693  15.166 -0.1230  0.0197  0.0706
20443W        W35912  16.280  14.870  15.287  0.1414  0.0476  0.0411
20444W        W35913  13.170  11.512   4.160 -0.0861 -0.0517  0.0176
20445W        W35914  17.893   8.142  10.488  0.0184  0.0810 -0.1266
20446W        W35915   4.768   4.608  13.709  0.0660  0.0693  0.1485
20447W        W35916   4.198   7.771  15.092 -0.0890  0.0174 -0.1189
20448W        W35917  15.317   7.971  11.214 -0.2768  0.1173  0.0825
20449W        W35918   7.504  10.374   2.539 -0.0268 -0.1006  0.1567
20450W        W35919  14.454   5.840   1.398 -0.0605  0.2422 -0.1602
20451W        W35920   3.483   8.529  13.036 -0.1969 -0.1027  0.0145
20452W        W35921  16.965  16.888  11.439 -0.1735 -0.1584  0.1374
20453W        W35922   1.547   0.611  10.975  0.3248  0.0119  0.1529
20454W        W35923   8.369  10.286  11.457  0.1366 -0.0771  0.0389
20455W        W35924  11.958   2.825   3.342  0.2226  0.0906 -0.1532
20456W        W35925   9.297   5.754   9.983 -0.1008  0.4534  0.1023
20457W        W35926   8.547   5.822  15.059  0.0754  0.4960  0.1016
20458W        W35927  11.213   0.033   0.027 -0.0626 -0.1994 -0.1068
20459W        W35928   2.360   4.079   1.307 -0.2497  0.1890 -0.3830
20460W        W35929  12.320   8.108  11.820 -0.0145 -0.4718 -0.0034
20461W        W35930  13.810  11.307   5.425  0.4044 -0.0867 -0.1548
20462W        W35931   0.354   9.239   3.625 -0.1496  0.0466 -0.1258
20463W        W35932  14.116   1.475   3.909 -0.1151 -0.1662  0.0315
20464W        W35933  14.003   1.462   0.564 -0.0261  0.0453 -0.1299
20465W        W35934  13.713   9.467  14.693 -0.0220 -0.2234  0.0508
20466W        W35935  14.413  11.217   1.200  0.0948  0.1239  0.3320
20467W        W35936   2.676   2.630   4.724 -0.0777  0.2598 -0.0511
20468W        W35937  11.451  18.171   3.522 -0.0286  0.3180 -0.1037
20469W        W35938   4.831   2.691   3.100  0.1191 -0.0893 -0.0621
20470W        W35939  14.648   2.830   3.488  0.1201 -0.1115 -0.1420
20471W        W35940  11.907   1.021  15.486 -0.2994 -0.0674  0.0212
20472W        W35941  14.318   4.132   4.428 -0.1317  0.0808  0.2009
20473W        W35942  13.668  12.516  11.898  0.1334 -0.1181 -0.2041
20474W        W35943  11.724   8.475   2.247  0.1457 -0.1972 -0.0985
20475W        W35944  11.015   0.597  15.011 -0.0882  0.2755 -0.0195
20476W        W35945  16.847   9.873  10.577 -0.1550  0.2320  0.2692
20477W        W35946   4.708  12.960  12.381 -0.3054 -0.1096 -0.2070
20478W        W35947  12.552   3.258   2.627  0.1687 -0.1807  0.2902
20479W        W35948  11.609  13.156  14.515  0.0368  0.0168 -0.1075
20480W        W35949   4.016   2.912   0.084  0.1584 -0.0063  0.0697
20481W        W35950  11.075   8.171   3.669 -0.1839 -0.4444  0.0381
20482W        W35951  10.948  15.614   2.636  0.2728  0.0693 -0.0797
20483W        W35952   8.681   9.651   2.159 -0.0369 -0.2671 -0.0794
20484W        W35953  12.725   6.773   3.708  0.0144  0.1011  0.0474
20485W        W35954  15.202  14.362  13.798  0.2283 -0.0481  0.0325
20486W        W35955  15.588   3.121  12.842  0.0542 -0.1399  0.1295
20487W        W35956  13.006   6.552   0.600  0.2848 -0.2240  0.1811
20488W        W35957  13.899  16.308  15.605  0.1615  0.1097  0.2420
20489W        W35958  11.107   2.783   2.094  0.0675  0.0102  0.4019
20490W        W35959   8.156   8.753   3.852 -0.0378  0.0488  0.5637
20491W        W35960  11.160  10.302   3.638  0.3720 -0.1778  0.0009
20492W        W35961  17.677   3.770   5.269 -0.0521 -0.0839 -0.2881
20493W        W35962   0.794   0.120   4.098 -0.0539 -0.1812 -0.1853
20494W        W35963  13.340  12.566   2.319 -0.2152  0.0085 -0.0151
20495W        W35964   7.331  12.895  11.998  0.0805  0.1224  0.2628
20496W        W35965   9.444   7.646  13.319  0.1022  0.1121 -0.0651
20497W        W35966  10.795   4.956  13.858  0.0676  0.0401 -0.2356
20498W        W35967  15.108   1.632  11.904  0.0912 -0.2194  0.1576
20499W        W35968   2.986  18.182   3.952 -0.3016  0.1598 -0.1114
20500W        W35969   8.606  13.176  12.196 -0.0725  0.1001  0.0275
20501W        W35970   5.134   9.877  13.383  0.0584  0.0609  0.0152
20502W        W35971   4.541   7.715   3.739 -0.3181  0.0119 -0.1575
20503W        W35972  17.602  16.318   3.259  0.1698 -0.0221  0.0830
20504W        W35973   3.049  15.642  12.265  0.2041  0.0532  0.0321
20505W        W35974   4.226  10.975   2.193 -0.1387  0.0631  0.2130
20506W        W35975  15.965  16.008  11.185  0.1278  0.0030  0.0486
20507W        W35976   8.884   0.732   0.338 -0.0263  0.3512 -0.1358
20508W        W35977   7.738  17.516   0.102 -0.0135  0.1622 -0.0839
20509W        W35978  10.393   1.762   5.476  0.1007  0.4127 -0.1722
20510W        W35979  12.608  11.880   4.840 -0.0704 -0.1090  0.0501
20511W        W35980  14.404   7.251  15.234  0.0839 -0.0020 -0.2168
20512W        W35981  10.961  16.544   5.551  0.1670 -0.1181 -0.0067
20513W        W35982  15.518   8.598   1.660  0.1781  0.0487  0.0352
20514W        W35983  10.558  13.282   2.445  0.2949  0.0179 -0.1486
20515W        W35984   2.263  11.818  13.376  0.0603 -0.1758 -0.3406
20516W        W35985   4.943  12.037  14.543 -0.1397 -0.1459  0.0294
20517W        W35986   4.243   9.464   3.571  0.0263 -0.0033 -0.1557
20518W        W35987   3.165   8.051  10.153 -0.1423  0.1179  0.0758
20519W        W35988   1.427  14.938   1.114  0.0842 -0.0536  0.2845
20520W        W35989  16.743   1.372   0.481  0.0863 -0.3646  0.0409
20521W        W35990   0.911  16.841  15.625  0.0321 -0.1102  0.0585
20522W        W35991  16.891  14.608  14.247 -0.1384 -0.2292  0.1495
20523W        W35992   1.882   4.318  12.042 -0.2257 -0.0856 -0.0386
20524W        W35993   9.199  18.190   4.260  0.0353 -0.0915  0.0475
20525W        W35994  11.338   5.650  15.144 -0.0504 -0.0317 -0.0394
20526W        W35995   2.477  18.213  16.075  0.0130  0.1586 -0.1375
20527W        W35996  11.917   3.312   3.248  0.0463  0.0954  0.4820
20528W        W35997  11.574  14.867   1.954 -0.0185 -0.1831 -0.1265
20529W        W35998  16.720  13.094  16.017  0.1588 -0.2194  0.0935
20530W        W35999   2.772   9.703  10.935  0.0936  0.0781 -0.0638
20531W        W36000   3.927   5.505  13.891 -0.0274 -0.1054 -0.2082
20532W        W36001  16.132   3.769  11.416  0.1268 -0.0614 -0.0862
20533W        W36002  12.562  17.420   1.580 -0.1229 -0.2957 -0.2878
20534W        W36003   9.071  12.077  15.086  0.0146  0.1912 -0.1994
20535W        W36004  13.504   9.518   0.000  0.0566 -0.1188  0.1181
20536W        W36005   2.212   0.726   1.031  0.2078  0.0094  0.1436
20537W        W36006  17.943   1.902  15.888  0.0819 -0.1194  0.1548
20538W        W36007   8.140   2.662  16.096  0.2090  0.0037  0.2304
20539W        W36008   7.842   0.955  12.081 -0.3504 -0.1528  0.4324
20540W        W36009   0.776   6.736   5.893 -0.0443  0.1212  0.1325
20541W        W36010   8.699   9.182   2.485  0.1190 -0.0436  0.0992
20542W        W36011   1.471   8.408   2.769  0.1764 -0.0769 -0.4563
20543W        W36012  15.379  12.973  13.316  0.0741  0.1967  0.2699
20544W        W36013  13.119   6.562   2.252 -0.0497 -0.0445  0.1784
20545W        W36014  17.068  17.916   5.559  0.0872  0.0722 -0.0003
20546W        W36015  15.587  14.639   4.448 -0.3343 -0.2080  0.0408
20547W        W36016  10.585   3.330   3.385  0.0194 -0.0393 -0.0557
20548W        W36017  15.644   6.655   3.293 -0.1288 -0.1153 -0.1040
20549W        W36018   8.162   7.287  13.234 -0.2356 -0.2417 -0.0543
20550W        W36019  11.007   6.420   5.365  0.0526  0.2273 -0.4197
20551W        W36020   9.686  14.457   1.789  0.0821 -0.3158 -0.1086
20552W        W36021   2.785  15.533   2.058  0.0313 -0.2840 -0.0627
20553W        W36022   7.258  13.165   3.537  0.0268  0.0424  0.1581
20554W        W36023  12.573  11.918   1.919  0.1351  0.2862  0.1922
20555W        W36024   2.087  14.242   4.030 -0.0347 -0.0852 -0.1544
20556W        W36025  10.798  16.598  14.447  0.0245 -0.1160 -0.2548
20557W        W36026   9.466  16.557   0.744 -0.3589 -0.1464 -0.0046
20558W        W36027  12.161  14.687  14.323  0.1468 -0.0575 -0.0375
20559W        W36028   1.813   0.643   0.623  0.1403  0.0290 -0.3222
20560W        W36029  14.161  17.546   3.854 -0.2583  0.0052 -0.0399
20561W        W36030  10.050   2.665   3.744  0.3257 -0.0197 -0.2953
20562W        W36031   1.534   0.652   2.261 -0.1294  0.1090 -0.0745
20563W        W36032   0.491   7.502  14.199 -0.2500  0.1604  0.3909
20564W        W36033   3.767   8.730   1.356 -0.0865 -0.0481 -0.1168
20565W        W36034   3.359  16.353   3.215 -0.1052 -0.0342 -0.1787
20566W        W36035   2.729  13.426   3.477  0.1627  0.1009 -0.0251
20567W        W36036   0.028  11.445  12.254  0.1116 -0.1794  0.0502
20568W        W36037   4.333  13.276   4.621  0.1337  0.2487 -0.1586
20569W        W36038  11.807  12.190   0.923  0.1886 -0.3198  0.0145
20570W        W36039   3.616   2.665  12.332  0.0755  0.1402  0.1123
20571W        W36040   8.623   8.390   1.470  0.3340  0.0218 -0.0314
20572W        W36041  17.999  11.135  11.031 -0.0458  0.2824 -0.3875
20573W        W36042  17.610   9.463   2.728  0.0333 -0.2100 -0.1185
20574W        W36043   8.474  16.287   5.865  0.1546 -0.0784  0.2542
20575W        W36044  15.071  17.734   2.457 -0.0156 -0.2704 -0.2681
20576W        W36045   6.488   4.116  12.226 -0.2801  0.1326 -0.0620
20577W        W36046  15.283   6.923   1.267 -0.1354 -0.0865  0.1591
20578W        W36047  10.432   9.874   2.212  0.1511  0.1015  0.0384
20579W        W36048   9.679   7.170   5.269 -0.0633  0.2332  0.1805
20580W        W36049   3.696   6.489   0.414 -0.0324  0.1946  0.0890
20581W        W36050  14.371   5.729  11.360  0.0404 -0.0593  0.1764
20582W        W36051   1.715  12.335   0.994 -0.2686  0.0756 -0.4301
20583W        W36052   6.721   3.988   2.395  0.1418  0.2851 -0.0101
20584W        W36053   9.198  17.082   1.151  0.2766  0.3329 -0.1863
20585W        W36054   1.480   6.337  11.421  0.2163  0.0992  0.1167
20586W        W36055   7.692   5.633  11.599 -0.2477 -0.0674  0.1326
20587W        W36056   8.170   2.525  13.601  0.0619  0.0170  0.0831
20588W        W36057   5.420   4.467  10.152 -0.3753  0.2859 -0.3984
20589W        W36058  13.985   1.993   0.985 -0.1289 -0.2361 -0.1213
20590W        W36059  13.741   7.285  14.867 -0.1364 -0.2605  0.1004
20591W        W36060  17.755   1.911   4.666  0.3013 -0.1407  0.1276
20592W        W36061   8.069   3.889   2.912 -0.0371  0.0361 -0.0316
20593W        W36062  14.974  15.043   5.808 -0.0845  0.0811  0.0456
20594W        W36063  16.317   6.769   6.121 -0.0187  0.3975  0.0393
20595W        W36064   7.277   7.113  10.513 -0.0587  0.1440 -0.2195
20596W        W36065  17.948   1.077   5.684 -0.2351 -0.1239 -0.0731
20597W        W36066  17.708   1.647   2.621  0.2950  0.0220 -0.0372
20598W        W36067   0.628   5.299   2.153 -0.2150  0.2720  0.1390
20599W        W36068  11.555   7.949   3.603  0.3963  0.0805 -0.0106
20600W        W36069   0.859   3.582  14.344 -0.0724  0.2016 -0.0520
20601W        W36070   1.760  17.221  11.538 -0.1273 -0.0310 -0.0219
20602W        W36071   2.082   1.987   1.241  0.1427 -0.0716 -0.1114
20603W        W36072  13.481  10.010   5.632 -0.0864  0.1791  0.0731
20604W        W36073   8.231  16.193   4.292 -0.3013 -0.0375  0.0424
20605W        W36074  12.901  12.799   2.548 -0.1421  0.2009 -0.0251
20606W        W36075   9.497  10.209   4.327 -0.0035  0.3427  0.1638
20607W        W36076   2.850   2.476   2.651 -0.1851  0.3401  0.0585
20608W        W36077   0.441   6.801  12.311  0.0661 -0.1825 -0.0052
20609W        W36078   2.185   2.221  13.703 -0.0111  0.1301  0.0007
20610W        W36079  13.417   6.156  13.452  0.2722 -0.1160 -0.0077
20611W        W36080   2.721  14.859  15.372  0.1487  0.0211 -0.2279
20612W        W36081  18.071   4.131  11.018  0.1039  0.1683  0.0827
20613W        W36082  16.893   5.804  11.597  0.1004 -0.1971 -0.3116
20614W        W36083  15.340   0.831   2.848 -0.0457  0.1207 -0.2637
20615W        W36084  15.422   1.094   0.074  0.3574 -0.1264  0.1838
20616W        W36085  10.452  15.685  12.601  0.1632 -0.1696  0.0274
20617W        W36086  13.638  13.824  13.648 -0.2468  0.1137  0.0075
20618W        W36087  17.595  18.182  14.224 -0.1405 -0.3290 -0.0637
20619W        W36088   5.091  17.311   4.882 -0.1718  0.3828  0.3856
20620W        W36089  10.004  17.099  14.692  0.0331  0.0531  0.0287
20621W        W36090  17.377   4.720  11.399  0.1827  0.0502 -0.1469
20622W        W36091   0.306  13.918  13.931  0.2172 -0.1026 -0.0280
20623W        W36092   8.385  15.490   2.144 -0.0094 -0.2182 -0.0422
20624W        W36093  16.201   6.199   1.969  0.0829 -0.1171  0.1083
20625W        W36094   5.934   1.598   3.548  0.2590  0.2550 -0.0638
20626W        W36095   6.287  15.915   5.082 -0.2987 -0.1283  0.0576
20627W        W36096   9.448   6.237   5.251  0.1571 -0.0140  0.0347
20628W        W36097   6.477   1.584  15.572  0.0510 -0.1043  0.2216
20629W        W36098  15.459   4.144  16.000 -0.3658  0.0802 -0.1059
20630W        W36099   2.919   8.949  13.825 -0.0129  0.0135 -0.0270
20631W        W36100  10.824   0.200   5.040 -0.2364  0.0602 -0.2428
20632W        W36101   5.004   6.277   2.839  0.2116 -0.0595  0.3022
20633W        W36102   4.788   8.018  13.749  0.3161 -0.3115  0.1058
20634W        W36103   5.824   4.805  15.422  0.1326  0.2207  0.2421
20635W        W36104   0.825  14.846  15.177 -0.0195  0.2229  0.2026
20636W        W36105   9.618  13.345  11.312 -0.1638  0.2456  0.1503
20637W        W36106  16.562   3.854  15.963 -0.0879 -0.0927  0.3679
20638W        W36107  15.422   0.013  14.432  0.0904  0.2560 -0.1897
20639W        W36108   3.416  15.602  15.039 -0.3032  0.0080 -0.0836
20640W        W36109   6.205   9.389  15.137 -0.0999 -0.2217 -0.1341
20641W        W36110  13.331  15.096  15.357 -0.0303 -0.2663 -0.0193
20642W        W36111   5.318   8.200   4.897  0.0190 -0.1618 -0.1253
20643W        W36112   2.309   9.750  15.731 -0.0326 -0.0848 -0.0421
20644W        W36113  12.866  11.719  13.988  0.0119 -0.0088 -0.1025
20645W        W36114  12.875   3.661  13.391 -0.2260 -0.4933 -0.1324
20646W        W36115   1.166  11.621   2.750 -0.0008 -0.2591  0.1688
20647W        W36116   9.808  15.153  15.323 -0.2389  0.0101 -0.1706
20648W        W36117  16.340   9.698  15.349 -0.3011 -0.2273  0.0853
20649W        W36118  11.868   3.725  16.021  0.1100 -0.0432 -0.0407
20650W        W36119   7.336   5.273   2.338  0.2150 -0.0635  0.1309
20651W        W36120   1.751   0.745   1.291  0.1707 -0.3004 -0.0068
20652W        W36121   1.874   7.843   5.187 -0.0697  0.2187 -0.2617
20653W        W36122   6.365   4.280   2.603 -0.0565  0.1530  0.2034
20654W        W36123  11.748   8.792  15.614 -0.0479  0.2227  0.2957
20655W        W36124   7.505  11.889  13.628 -0.1095 -0.1775 -0.3372
20656W        W36125   9.160  10.598   3.542  0.0802 -0.1064 -0.1378
20657W        W36126   1.655  13.217  13.927  0.4506 -0.4336  0.3355
20658W        W36127  13.992   5.304  15.582 -0.2710  0.2175 -0.0971
20659W        W36128   7.559   1.383  13.696  0.0166 -0.4051 -0.0432
20660W        W36129  14.859  11.703  11.753 -0.0340 -0.0275 -0.1025
20661W        W36130  15.738   5.225   3.924  0.2446  0.0493  0.0208
20662W        W36131   5.815   0.457  10.997  0.1185 -0.2707 -0.0034
20663W        W36132  18.269   2.947  12.482  0.0733 -0.2276  0.0061
20664W        W36133   1.471   8.675  13.341  0.0880  0.0620  0.2893
20665W        W36134  17.872  17.354  13.578  0.1116  0.0817 -0.1374
20666W        W36135   7.796  16.801  14.420  0.1399  0.0017 -0.0103
20667W        W36136  10.141   8.351  12.925  0.2481  0.1334  0.1835
20668W        W36137  17.917  12.096  15.810 -0.0198 -0.2298  0.1950
20669W        W36138  16.162  16.916  10.374  0.1705 -0.7538 -0.3575
20670W        W36139  16.622  14.224   6.023  0.1007  0.2208  0.0747
20671W        W36140  15.456  13.535  11.100  0.0752 -0.4557 -0.3352
20672W        W36141   9.213   9.489   2.108  0.1332  0.0022 -0.2912
20673W        W36142   0.553   1.325   5.413  0.4915 -0.1415  0.0301
20674W        W36143  11.059  13.951   3.851  0.0969 -0.2665 -0.1393
20675W        W36144   3.852   3.731  10.628 -0.0736  0.1332  0.0100
20676W        W36145   9.265  13.573  11.986 -0.3311  0.0636  0.2215
20677W        W36146   0.656  16.351  10.989 -0.1222 -0.3440 -0.1703
20678W        W36147   8.403  16.022   2.179  0.4872  0.1441 -0.2315
20679W        W36148  17.934   8.556   3.495 -0.0184  0.0072 -0.1446
20680W        W36149   0.529   8.308  13.536  0.3226  0.1110 -0.0048
20681W        W36150   2.279   1.199  13.471  0.2071 -0.0235  0.1950
20682W        W36151   1.898  14.244   0.136 -0.1286 -0.2520  0.3054
20683W        W36152  17.743  13.676  11.546 -0.0642  0.0849  0.1364
20684W        W36153   4.059  17.406   4.526 -0.1855 -0.0624 -0.2470
20685W        W36154   7.000   1.642  15.505 -0.0313 -0.1809 -0.1109
20686W        W36155  10.795  17.749  14.103 -0.0047 -0.0951 -0.3076
20687W        W36156   1.502  14.543  12.844 -0.2434  0.1469  0.1231
20688W        W36157  13.015  10.508  15.345  0.0447 -0.1341  0.0546
20689W        W36158  15.151   3.237  14.062 -0.3488  0.0461 -0.2176
20690W        W36159   1.649  14.295   4.226  0.0490 -0.1481  0.0029
20691W        W36160  13.429   5.067  11.647  0.0786  0.2986  0.1036
20692W        W36161   4.223  11.906  13.309 -0.0329 -0.0271  0.0122
20693W        W36162  13.591   4.389  13.741 -0.3470 -0.0205  0.1571
20694W        W36163  15.361   5.961   0.839 -0.0030  0.2878  0.1195
20695W        W36164   0.008   8.303   6.135 -0.2871  0.2205 -0.0974
20696W        W36165   0.047   4.469  14.931 -0.0376 -0.0740  0.2273
20697W        W36166  16.723  17.129  15.952  0.0700 -0.0242 -0.2207
20698W        W36167   7.691   7.573  13.083  0.0131  0.1149  0.0614
20699W        W36168  12.236   1.480  11.613 -0.3371 -0.4487 -0.2906
20700W        W36169  15.954   6.803   0.545  0.3655 -0.1509 -0.1842
20701W        W36170   2.277   3.677   3.102 -0.1217 -0.0907 -0.0417
20702W        W36171   6.759   6.596  12.996 -0.0933 -0.1486  0.2944
20703W        W36172   4.469   0.673  14.938  0.2207  0.3351 -0.0135
20704W        W36173  14.734   8.233   4.070  0.1548 -0.2361  0.2404
20705W        W36174   5.107   9.791   4.896  0.0504  0.0080 -0.2043
20706W        W36175   9.667  12.700  11.768  0.0337  0.0736  0.1273
20707W        W36176   5.821  10.711  13.771  0.1607  0.1266 -0.1772
20708W        W36177  11.832   5.485  15.004 -0.1937  0.0451  0.0159
20709W        W36178   7.196   0.110   2.628 -0.0939 -0.1390 -0.2752
20710W        W36179   5.838   7.264  15.554  0.0986 -0.1048 -0.1147
20711W        W36180  16.601   4.857   2.104  0.2082 -0.1608  0.0939
20712W        W36181   7.094   7.434   4.267  0.1662 -0.1099 -0.3531
20713W        W36182   7.643  14.582  11.940  0.0423 -0.1290 -0.1498
20714W        W36183  17.731  10.323   0.077 -0.0246 -0.1690 -0.1854
20715W        W36184   5.733   6.093  13.267  0.3509 -0.0230  0.0934
20716W        W36185   9.233  18.149   5.627 -0.1187  0.1747 -0.0336
20717W        W36186  11.750   0.560  14.399  0.1575  0.0231 -0.0353
20718W        W36187  16.485   0.576  14.783  0.1491  0.0670  0.0024
20719W        W36188   5.129  13.653  11.806 -0.3347  0.0588 -0.2358
20720W        W36189   3.987  14.496   4.790 -0.1703 -0.1192  0.1534
20721W        W36190  12.260   6.176   5.314 -0.1090  0.0877 -0.1063
20722W        W36191  12.826   5.074  13.007 -0.0434  0.1250  0.1657
20723W        W36192   5.040   2.566   1.555 -0.0588  0.1591 -0.1237
20724W        W36193  13.124   7.339   2.901 -0.2878  0.1661 -0.1258
20725W        W36194   9.480   6.775  10.232 -0.1253 -0.0071  0.2297
20726W        W36195   9.404   3.471   2.331  0.1851 -0.1212 -0.0501
20727W        W36196   7.262  11.204  14.219 -0.0468 -0.1885 -0.0393
20728W        W36197   9.628   7.328  12.902  0.3357 -0.3044  0.0186
20729W        W36198   6.113  15.751   1.200  0.0933  0.4983 -0.1223
20730W        W36199  13.392  17.725  13.609 -0.2216 -0.0395  0.0395
20731W        W36200  10.477  15.922   0.029  0.0123  0.3461  0.2020
20732W        W36201   7.838   3.219   2.484 -0.2526  0.1424 -0.1119
20733W        W36202   5.431  17.562   2.043  0.3840 -0.1503 -0.0373
20734W        W36203  17.152   2.318   4.711 -0.2150 -0.0572  0.1149
20735W        W36204  13.738   6.520  11.956 -0.1118 -0.1226 -0.3459
20736W        W36205   9.971  11.513   0.694  0.0226  0.2943  0.0251
20737W        W36206   5.055  13.041  11.484 -0.2708 -0.1612  0.0365
20738W        W36207   8.199  17.050  14.680  0.1459 -0.0321  0.2439
20739W        W36208   8.322   0.852  11.938  0.2136 -0.2493 -0.0155
20740W        W36209  11.101   1.570  10.732 -0.1515 -0.1812  0.0910
20741W        W36210   0.468   6.914   2.539 -0.3594  0.1333  0.2645
20742W        W36211   0.351  12.969  14.031  0.0298  0.0790 -0.0068
20743W        W36212   5.830   8.600  14.024  0.2077  0.0945  0.0494
20744W        W36213  10.341   0.233   2.083 -0.3403 -0.0781  0.0711
20745W        W36214   2.755   1.858  13.224 -0.1119  0.1425 -0.1652
20746W        W36215   7.048  17.263   0.692  0.0886 -0.1447  0.0900
20747W        W36216  12.051  12.155   1.856 -0.0376  0.0443  0.2021
20748W        W36217   6.339   2.423   5.304 -0.1596 -0.5365  0.2515
20749W        W36218  14.550  17.540  12.804 -0.1292 -0.2696 -0.1368
20750W        W36219  10.723  18.057   4.782  0.0138  0.1039  0.1092
20751W        W36220   5.479   8.784   4.168 -0.1606 -0.1217  0.0770
20752W        W36221   0.515  17.894   4.746  0.0058  0.2166 -0.1928
20753W        W36222  12.639  13.953   4.052  0.0020  0.1900 -0.2124
20754W        W36223  17.290   7.865  14.025 -0.0569  0.1569 -0.1690
20755W        W36224  14.877   3.855   5.201 -0.2814 -0.1140 -0.4450
20756W        W36225   0.661  10.700   3.958  0.1949 -0.1151 -0.0073
20757W        W36226  15.771  16.877  12.486  0.0257  0.2649 -0.1719
20758W        W36227   9.033   7.272   4.765 -0.0017  0.1525 -0.0464
20759W        W36228  12.870  10.739  14.254 -0.3199  0.1435 -0.0304
20760W        W36229   4.430  17.768   3.959 -0.1612 -0.1457 -0.0582
20761W        W36230  16.798  16.311  11.638 -0.1753 -0.3468  0.0795
20762W        W36231   2.864  10.473   2.219  0.0855  0.0493  0.2002
20763W        W36232  11.323  17.296   4.607  0.1099  0.0819  0.3108
20764W        W36233   9.698  10.396   2.152 -0.1336  0.3019  0.1357
20765W        W36234   2.965  10.121  14.538 -0.0781 -0.2243  0.3371
20766W        W36235   7.498   0.828   0.363  0.0471 -0.1243  0.1552
20767W        W36236  10.416   8.855   5.094 -0.0633 -0.1170 -0.0278
20768W        W36237  16.988  11.099  12.799 -0.1454  0.2375 -0.1364
20769W        W36238  15.856   7.021   3.581 -0.1082  0.1376 -0.2776
20770W        W36239  13.244  14.696  14.951 -0.0879 -0.0484 -0.1284
20771W        W36240  16.334  15.328  11.126  0.3082  0.3107  0.0198
20772W        W36241   7.620   9.279   4.247 -0.3484  0.1374  0.0876
20773W        W36242   6.716  12.056   1.295 -0.0234  0.0367  0.2378
20774W        W36243  13.805   9.609   1.729 -0.1390  0.1746 -0.1980
20775W        W36244  17.901  11.697  13.968  0.0111 -0.4014  0.0406
20776W        W36245  13.150   6.514  14.964  0.2623 -0.3932  0.3705
20777W        W36246  10.973  13.628  13.316  0.2148  0.4313 -0.3121
20778W        W36247   8.648   8.085  13.464 -0.0909  0.0369 -0.0242
20779W        W36248   0.653  12.728  12.764 -0.0706 -0.2132 -0.3040
20780W        W36249   8.826   7.043   0.533  0.0507 -0.0459  0.0440
20781W        W36250  13.632   9.139  13.909  0.1072 -0.0483  0.1358
20782W        W36251  10.718   9.829   3.065  0.0204  0.1190 -0.0457
20783W        W36252  16.158  16.104   1.572 -0.1183  0.1340  0.2428
20784W        W36253  18.225  15.498  14.244 -0.0382  0.1809  0.4914
20785W        W36254  16.680  13.695   3.299  0.1259  0.0420 -0.3310
20786W        W36255  17.817   7.575   2.383 -0.2963  0.1044 -0.4191
20787W        W36256   1.012   6.794  16.101  0.0705 -0.4241 -0.1030
20788W        W36257  17.175  11.930   1.790  0.1752  0.1328  0.0488
20789W        W36258   5.535   1.540  13.534 -0.0694  0.0228 -0.0339
20790W        W36259   3.536   8.050  11.132  0.3013 -0.1233  0.0830
20791W        W36260  16.364   1.761   0.765 -0.0686 -0.4957 -0.0308
20792W        W36261   0.581   9.915  13.050 -0.0762 -0.1991  0.1623
20793W        W36262   1.378  17.419   5.108 -0.1517  0.1728 -0.0823
20794W        W36263   7.118   6.142  11.687 -0.1256  0.1784  0.0144
20795W        W36264  13.005   4.412   4.166 -0.1998  0.3052 -0.1533
20796W        W36265   6.948   0.520  14.822  0.0744 -0.4166 -0.0430
20797W        W36266  10.898   0.124  13.488 -0.0869 -0.4123 -0.2515
20798W        W36267   4.519   0.919   2.001 -0.2250  0.1388 -0.4193
20799W        W36268  10.938   8.375  15.507  0.0710  0.0421  0.1996
20800W        W36269   5.324   6.357  13.013  0.3618  0.2879  0.1039
20801W        W36270  11.023  15.951   5.394  0.2264 -0.2553 -0.0736
20802W        W36271   5.433   3.335  13.754 -0.0529 -0.0057  0.1235
20803W        W36272  10.019   0.038  10.974 -0.1508 -0.1439 -0.1686
20804W        W36273  17.670   1.927   4.151 -0.3071 -0.0824 -0.2607
20805W        W36274   6.329   2.538   2.257  0.0817  0.1077  0.1219
20806W        W36275   3.239  14.637   1.016 -0.1852 -0.3040 -0.0795
20807W        W36276  10.486  13.860  12.452 -0.3846  0.0357 -0.3601
20808W        W36277  10.464   7.188  12.336  0.2435 -0.2119  0.2298
20809W        W36278  13.809   7.556   1.281  0.2164 -0.1854 -0.0785
20810W        W36279  13.405  14.480   4.837  0.0406  0.0222 -0.0324
20811W        W36280  16.614  11.556   0.110  0.0453  0.0908 -0.2604
20812W        W36281   6.008   6.276  13.674  0.1450  0.1141 -0.0300
20813W        W36282   8.216  16.004   3.335 -0.2096  0.0819  0.1470
20814W        W36283  15.097   1.214   4.365  0.3359 -0.0554 -0.0458
20815W        W36284   8.427  16.486   2.493  0.3993  0.0507 -0.2145
20816W        W36285   6.699   3.744   4.672 -0.0356  0.1937  0.0553
20817W        W36286   8.807  16.582  11.032  0.1020  0.0765 -0.1897
20818W        W36287   9.519   8.289  14.535  0.0786 -0.0007  0.0956
20819W        W36288   6.300  12.422  16.009 -0.0365  0.1800 -0.1099
20820W        W36289   9.431  14.927  15.153  0.2074  0.2474  0.1173
20821W        W36290  13.953  16.976   1.861  0.0502  0.0684 -0.2415
20822W        W36291  10.452   4.038  10.936  0.0599  0.1743 -0.0741
20823W        W36292   4.271  17.265   5.448 -0.2716  0.0118  0.2459
20824W        W36293   7.346   9.948  15.882  0.0537  0.1360 -0.3327
20825W        W36294   3.395   9.528   2.588 -0.1565 -0.1398 -0.0138
20826W        W36295   6.317  10.944  15.969 -0.0093 -0.2752 -0.0607
20827W        W36296   5.661   1.859  11.542  0.0564 -0.0954  0.2102
20828W        W36297   0.511  15.593   2.490 -0.2970 -0.2323 -0.0334
20829W        W36298  17.730  12.480   3.682  0.0771 -0.1266 -0.1612
20830W        W36299   8.328   9.098  11.576 -0.0307 -0.0107 -0.0025
20831W        W36300   2.926  10.172  12.419  0.2371  0.0982 -0.0631
20832W        W36301   0.477  15.273  13.422  0.4702  0.3593  0.1801
20833W        W36302   1.633   7.007   0.738 -0.0174 -0.1798 -0.2731
20834W        W36303   9.480  15.082  14.258  0.0751  0.1380  0.1122
20835W        W36304   9.469  13.101  15.324  0.1550 -0.0679  0.1781
20836W        W36305   9.695   4.873   3.867  0.0070 -0.2378 -0.0749
20837W        W36306   2.005  13.673   0.074 -0.1582  0.2147  0.2295
20838W        W36307  15.852  13.277  15.275 -0.1027 -0.1707 -0.0886
20839W        W36308   4.827  11.796  12.571 -0.2302 -0.2186  0.2538
20840W        W36309  17.888   0.815  15.881  0.2941  0.2382  0.0000
20841W        W36310   6.950  11.630  13.926 -0.2663  0.1732  0.0309
20842W        W36311   1.142   7.699   3.951 -0.2609  0.1319 -0.3814
20843W        W36312  10.563   8.663  14.657  0.0322  0.0175  0.0209
20844W        W36313   2.925   4.374  15.964 -0.1276  0.0381 -0.1297
20845W        W36314   9.726   1.567  12.810  0.0375  0.0114  0.0025
20846W        W36315   4.399   2.288   4.358  0.0020 -0.3504 -0.1737
20847W        W36316   7.034  14.216   3.938  0.1087  0.1991 -0.1582
20848W        W36317  15.647  11.886  13.802  0.3109  0.0008 -0.3163
20849W        W36318   9.350  13.419   4.724 -0.0258 -0.0665 -0.1739
20850W        W36319   3.621  12.244  12.440  0.2175 -0.0796 -0.0082
20851W        W36320   4.151   6.165   0.597 -0.0114  0.2204  0.1403
20852W        W36321   8.762   0.426   2.383  0.1714 -0.0425  0.1178
20853W        W36322  11.267  10.221   5.517 -0.0597 -0.0116 -0.2157
20854W        W36323  13.783   6.877  13.556 -0.1422 -0.1259  0.0335
20855W        W36324   7.424   7.536   0.809 -0.1490  0.2648 -0.3167
20856W        W36325  17.509  11.626   0.200  0.2928  0.0854 -0.2470
20857W        W36326   6.156  12.607  14.569 -0.3791  0.1210 -0.0346
20858W        W36327  11.855   2.907  13.892  0.0170  0.3918 -0.1875
20859W        W36328   3.591  10.182   2.553 -0.2172 -0.0971 -0.0142
20860W        W36329  16.876  16.516  12.971 -0.3482 -0.2413 -0.1598
20861W        W36330   8.160   4.476  12.220  0.0556 -0.0541  0.1682
20862W        W36331  16.948   6.319  11.355 -0.0786 -0.0570 -0.3601
20863W        W36332   8.394   0.725   4.547  0.1577 -0.2027  0.1642
20864W        W36333  14.942   7.147   3.179 -0.0830  0.0578  0.0761
20865W        W36334   5.828  11.823   4.510 -0.1984  0.1616  0.0262
20866W        W36335  12.524  11.677   3.018 -0.0833 -0.0410  0.2023
20867W        W36336   7.824  17.039   1.779  0.2512 -0.4746 -0.0871
20868W        W36337   6.591  15.830   1.500  0.0421  0.0888 -0.0364
20869W        W36338  14.828  11.995  11.106  0.3791  0.2012  0.0068
20870W        W36339  16.125  12.658   2.119 -0.0114 -0.1185 -0.0420
20871W        W36340  13.805  13.364  11.669 -0.1244  0.3319  0.0915
20872W        W36341  13.905   8.696  11.287 -0.0569  0.3393 -0.1915
20873W        W36342  10.884  16.109   1.188 -0.1992  0.4313 -0.0383
20874W        W36343   6.913  14.811   0.190 -0.0951 -0.1373  0.1494
20875W        W36344   3.448  12.943  11.133 -0.1155  0.3107 -0.0059
20876W        W36345   7.736  11.869   0.680 -0.1803  0.0038 -0.3156
20877W        W36346   3.658  18.160   2.014  0.1182 -0.0310 -0.0012
20878W        W36347   1.964   9.237   5.388 -0.1043 -0.2067 -0.0358
20879W        W36348   9.641  17.724  10.855 -0.1379 -0.0814  0.0678
20880W        W36349   5.900   5.485  11.286  0.1430 -0.0394  0.3413
20881W        W36350  16.365  10.058   4.256  0.0796 -0.1161  0.0018
20882W        W36351  16.234  14.891   2.349  0.0263  0.4209 -0.1632
20883W        W36352  15.022  16.889   4.308 -0.4007  0.2079  0.2360
20884W        W36353   6.861   6.282  13.402 -0.1716 -0.0915 -0.5108
20885W        W36354   6.660  13.999   2.288  0.1342 -0.3554 -0.0456
20886W        W36355   5.963  12.844   0.711 -0.1272  0.2433 -0.3320
20887W        W36356  10.339   9.839  10.708  0.0523 -0.3306  0.2134
20888W        W36357   5.655  17.805   0.855 -0.1507  0.1186  0.1303
20889W        W36358  14.332   2.291   5.486  0.2856 -0.2420  0.2241
20890W        W36359  13.136   8.869   1.814 -0.2449  0.2056 -0.3069
20891W        W36360   4.864   8.207   2.464  0.3365 -0.1157 -0.1951
20892W        W36361   6.660   0.421   4.534  0.2032  0.3547 -0.0990
20893W        W36362  18.140  14.927   1.922 -0.0048 -0.0932 -0.0855
20894W        W36363  15.440   7.946   0.912 -0.1180  0.0266 -0.1067
20895W        W36364   2.729   6.262  14.696 -0.0482  0.0662 -0.0131
20896W        W36365   2.186  12.883  13.866  0.3862  0.2000 -0.0869
20897W        W36366  12.958  11.481   2.934 -0.0180  0.1768 -0.1464
20898W        W36367  11.869   8.265   3.280 -0.1884  0.1395  0.2020
20899W        W36368  14.354   9.761   3.172 -0.0850  0.0144 -0.0654
20900W        W36369  17.466  17.386  14.556 -0.2157 -0.0578 -0.0979
20901W        W36370   3.958   1.471   1.678  0.0031  0.0511  0.2505
20902W        W36371  11.518   6.232   1.165  0.1945  0.0914 -0.3853
20903W        W36372   9.237   0.761  15.968 -0.2356 -0.1449 -0.3432
20904W        W36373  10.590   4.157   5.269 -0.2294  0.1787  0.3130
20905W        W36374  18.008  11.507   2.505 -0.2167 -0.2307  0.1841
20906W        W36375   2.602   3.343   2.918 -0.2505 -0.0415 -0.1191
20907W        W36376  12.545  17.428   0.135  0.2986 -0.0051 -0.0080
20908W        W36377  12.138   5.723   3.447  0.1332  0.0767  0.2058
20909W        W36378   1.325  11.640  12.908  0.1930 -0.0816 -0.2132
20910W        W36379   0.956   0.634  11.667 -0.1047 -0.0059  0.2268
20911W        W36380   4.361  14.065   1.139  0.3524  0.2128 -0.0905
20912W        W36381   5.552  17.329  14.528 -0.0480 -0.0859  0.0610
20913W        W36382  17.225   7.136  11.283 -0.0113  0.0548  0.2296
20914W        W36383   3.039  17.230   1.204  0.2338  0.0674 -0.2920
20915W        W36384  17.354  17.321  12.594  0.0509  0.1216  0.0282
20916W        W36385  16.536   4.873   0.747  0.2501  0.1170 -0.0552
20917W        W36386  17.518   0.076   4.425  0.0703  0.0957  0.3052
20918W        W36387  10.855  11.047   1.233  0.1869 -0.0470 -0.0757
20919W        W36388  16.643  10.884  13.184 -0.1246  0.2736 -0.1937
20920W        W36389   3.857   7.351  15.296 -0.3138  0.1826  0.0336
20921W        W36390   4.236   3.558   4.308 -0.0908  0.1322  0.0834
20922W        W36391  12.214  18.101   1.050  0.2238 -0.3942  0.1361
20923W        W36392   7.919   3.384  13.949 -0.1384  0.1887  0.0777
20924W        W36393   3.206   3.920  13.700  0.1135 -0.2777 -0.1183
20925W        W36394   1.539  11.168  13.124  0.0064  0.0413 -0.0639
20926W        W36395   3.621  12.614   0.530  0.1621  0.0850  0.0256
20927W        W36396   2.002  12.672  15.073  0.1387  0.0161 -0.0794
20928W        W36397  12.921   0.648   5.734 -0.2419 -0.3130 -0.0808
20929W        W36398  14.835  12.584  14.045 -0.0196  0.1506 -0.0675
20930W        W36399   4.029  12.188   1.364  0.1898  0.0084 -0.2648
20931W        W36400  12.923  14.180   2.857  0.0347 -0.0486 -0.2336
20932W        W36401  15.178   3.702   1.472 -0.1214  0.0702  0.2745
20933W        W36402   2.917  15.218  11.478 -0.2149  0.2102 -0.0788
20934W        W36403   7.085  12.256  14.728  0.1692 -0.0422  0.0879
20935W        W36404  13.959  11.816   0.437 -0.0324  0.0625  0.0376
20936W        W36405   0.755   8.455   1.410  0.0972 -0.0048  0.1590
20937W        W36406   5.402  15.150   4.080  0.3162  0.0797  0.0476
20938W        W36407   8.613   7.343   4.539 -0.1321 -0.0166 -0.1821
20939W        W36408   6.433   5.334   4.825 -0.2294  0.1872  0.0688
20940W        W36409  14.469  16.288   6.051 -0.0839 -0.2137 -0.0566
20941W        W36410   9.687  15.118  14.762 -0.1500  0.1289 -0.0911
20942W        W36411   1.524   5.965   0.804  0.3095  0.0861  0.3728
20943W        W36412  11.762  12.825  14.984 -0.2078  0.0621  0.0292
20944W        W36413  17.526   4.221  14.542  0.0536  0.1452  0.0519
20945W        W36414   4.986  14.072   4.932  0.0550 -0.0993 -0.2851
20946W        W36415   3.734  15.954  13.545 -0.0772  0.0432 -0.1995
20947W        W36416   8.548   8.183  15.225  0.0479  0.0288 -0.0794
20948W        W36417  10.402  17.160   2.267  0.0065 -0.0548 -0.1422
20949W        W36418   0.565   3.495   2.184 -0.2052 -0.0786 -0.1720
20950W        W36419  13.646   4.877   2.525 -0.1461  0.4572  0.0491
20951W        W36420   4.409  17.959   2.126 -0.6067 -0.2584 -0.0500
20952W        W36421  12.799  17.196   2.260  0.0344  0.0563  0.2459
20953W        W36422   3.554   0.526   2.709  0.1241  0.0864 -0.7108
20954W        W36423  14.739   3.003   1.443 -0.0466  0.2127 -0.2659
20955W        W36424  17.381  13.828   2.042  0.0592 -0.1920  0.1050
20956W        W36425   9.970   9.842   2.372 -0.1183  0.3953  0.1657
20957W        W36426   3.921  15.260   3.704  0.0422 -0.2805  0.3400
20958W        W36427   0.245  15.969   3.349  0.1233 -0.1885  0.1920
20959W        W36428   4.269   6.005  12.514 -0.1102 -0.2121  0.0529
20960W        W36429  11.518  16.047  14.665  0.1552 -0.0326 -0.2144
20961W        W36430  10.103  16.391  15.830 -0.1681 -0.1541 -0.0563
20962W        W36431   6.578  10.290   2.221  0.1440  0.0917 -0.0735
20963W        W36432  10.962  11.322  11.561  0.0789 -0.0833  0.4020
20964W        W36433   5.131  10.077  15.851 -0.0615  0.1901 -0.1765
20965W        W36434  11.728   5.910   1.504  0.0585  0.1543 -0.2555
20966W        W36435  14.584  13.390   1.376 -0.3269 -0.0234 -0.2395
20967W        W36436  15.126  17.762  15.693  0.0162  0.1792  0.0654
20968W        W36437   3.023   1.290   5.220 -0.1679 -0.3307 -0.2947
20969W        W36438   6.404  13.697   0.318  0.0046  0.0071 -0.2127
20970W        W36439  15.300   5.520  14.023 -0.2833 -0.1346 -0.3806
20971W        W36440   1.139   6.870   2.694 -0.2712  0.0995  0.1770
20972W        W36441   4.529   9.296   1.818 -0.1200  0.0927 -0.0991
20973W        W36442  17.155   9.412   2.452 -0.3754  0.0329 -0.5106
20974W        W36443   7.985  10.107  14.426 -0.3112  0.1950  0.2602
20975W        W36444  15.697   3.617  11.298  0.0426  0.2755 -0.0191
20976W        W36445   4.164  17.004   5.013  0.0596  0.0121 -0.0107
20977W        W36446   1.069   8.041  15.409  0.0072  0.1282  0.0965
20978W        W36447  14.240   3.463   3.533  0.0049 -0.0072  0.0923
20979W        W36448   4.474   5.230  13.035  0.4979 -0.0107  0.1435
20980W        W36449   1.702  16.582  10.357 -0.0858 -0.0041  0.0423
20981W        W36450  10.488   3.083   4.285  0.0595 -0.1965 -0.1774
20982W        W36451  11.481  17.571  13.237  0.0692 -0.1675  0.0560
20983W        W36452  14.218   5.709  12.832  0.1093  0.1510  0.2428
20984W        W36453  17.155   2.517   3.948 -0.0528 -0.0208  0.2968
20985W        W36454  14.927   8.609   0.878  0.0384 -0.1348 -0.0796
20986W        W36455   0.757   1.289  10.936  0.1145  0.1447 -0.2384
20987W        W36456  13.287   3.842   2.481  0.3516 -0.0443  0.2031
20988W        W36457   1.540  10.947  15.203  0.0668  0.2529 -0.1326
20989W        W36458  16.289   1.745   4.738  0.2372 -0.0036 -0.0917
20990W        W36459   9.909  13.897   2.402  0.4132  0.0568 -0.1500
20991W        W36460   5.870   4.059  11.431 -0.0806 -0.2737 -0.4694
20992W        W36461  10.545  13.211   3.382 -0.0803  0.0704  0.0753
20993W        W36462  15.515   9.185  15.515 -0.0779  0.1715 -0.1501
20994W        W36463  16.035   6.697   1.876 -0.3856  0.0222 -0.0822
20995W        W36464   6.109  16.715   1.783 -0.0008  0.2391  0.1279
20996W        W36465   4.215  14.810   0.166 -0.0868  0.1084 -0.0403
20997W        W36466   5.740  17.997   5.149  0.4075  0.0155  0.3803
20998W        W36467  10.138  16.896   3.299  0.1941  0.0141 -0.2358
20999W        W36468   0.121   3.003   1.593  0.0029  0.0043 -0.0897
21000W        W36469   3.807   3.618   0.340 -0.3702 -0.3208  0.1440
21001W        W36470  15.225   6.296  14.649 -0.0187 -0.1611 -0.1149
21002W        W36471  15.781  10.600  15.278  0.0411  0.0672 -0.2152
21003W        W36472   1.456   0.333  13.393  0.1573 -0.2938  0.2459
21004W        W36473  12.890   4.389   1.269 -0.0539 -0.2770 -0.0286
21005W        W36474  13.454  16.507  15.644 -0.2194 -0.0279  0.1604
21006W        W36475  11.552  12.100  11.170 -0.0781 -0.3692  0.0019
21007W        W36476  17.797  14.700   4.146 -0.1042  0.1669 -0.2863
21008W        W36477  14.741   1.622   0.016 -0.1602 -0.2004  0.5470
21009W        W36478  17.313  13.740  13.109 -0.0510  0.3036 -0.3215
21010W        W36479   2.930   7.343  14.393 -0.0579 -0.0132  0.1930
21011W        W36480  13.629  10.476  12.410  0.2652  0.2313 -0.0804
21012W        W36481  12.374  11.762  13.803 -0.0551  0.2159 -0.0715
21013W        W36482   5.370   8.075   2.176 -0.0292 -0.3147  0.1798
21014W        W36483   1.482  11.686  13.531 -0.0065  0.0165  0.1078
21015W        W36484   6.824   7.098  10.322  0.0023 -0.0751 -0.1897
21016W        W36485  11.873  18.027   3.817  0.1718  0.3639 -0.0610
21017W        W36486  14.809  15.247   0.284  0.3864  0.0093 -0.2995
21018W        W36487   6.020  17.137   3.959 -0.0892  0.1078 -0.0196
21019W        W36488   3.777   5.651  13.437 -0.0221  0.1055 -0.0795
21020W        W36489   0.834   7.348  16.033  0.1353 -0.0583  0.1954
21021W        W36490   2.362  15.817  13.554 -0.1348  0.3493  0.1378
21022W        W36491   8.674  17.098   3.702  0.0278 -0.2388 -0.0346
21023W        W36492  12.884   7.527  11.435 -0.1635  0.0588 -0.0308
21024W        W36493   8.540   2.113   1.549  0.3461  0.1925  0.3186
21025W        W36494   6.129  11.199  12.622 -0.0262 -0.2043  0.1057
21026W        W36495   9.406   0.927   4.221  0.2242 -0.1028  0.0177
21027W        W36496   7.383  14.445  11.316 -0.0285  0.0546 -0.1589
21028W        W36497   1.808   3.996   3.412 -0.0055 -0.2621  0.2470
21029W        W36498   2.768   4.547   4.380 -0.0276  0.2473 -0.0518
21030W        W36499   1.272  14.043  15.136 -0.1562  0.4773 -0.1802
21031W        W36500   2.145   0.372   3.225  0.0972 -0.1441 -0.1914
21032W        W36501  14.538   8.021   3.573  0.0596 -0.2216 -0.1752
21033W        W36502  12.819   4.704  13.311  0.1164 -0.1390 -0.0679
21034W        W36503   8.282  10.207   5.103  0.2880  0.0506  0.0244
21035W        W36504  16.358  13.132   2.257 -0.2231  0.0641 -0.0147
21036W        W36505   4.858   4.370   4.246 -0.1015 -0.1267 -0.2144
21037W        W36506   7.345   8.392   2.510  0.1545  0.0140  0.1491
21038W        W36507   6.911  17.679  15.107 -0.1278 -0.2106  0.0182
21039W        W36508   4.907   8.313  11.305 -0.1880  0.2189  0.2211
21040W        W36509   1.600  10.138   5.572  0.2268 -0.1399 -0.0157
21041W        W36510   0.669  10.469   4.430 -0.0487  0.1423 -0.0489
21042W        W36511   7.643   1.772  11.575  0.0327  0.2980 -0.0345
21043W        W36512   6.052   7.658   5.141 -0.1710  0.2244 -0.1612
21044W        W36513   4.168  16.866  10.707 -0.0908  0.4353  0.1307
21045W        W36514  15.011  15.654  12.440 -0.0167  0.1762 -0.0599
21046W        W36515   1.411  14.110  12.092 -0.1707 -0.0306 -0.1650
21047W        W36516  17.740   4.825  11.802  0.0985 -0.0647  0.0178
21048W        W36517   7.946   5.294   1.879 -0.0613 -0.1369  0.1273
21049W        W36518  12.999  13.393  15.188 -0.3495  0.3954 -0.1736
21050W        W36519   7.585  12.765  14.144 -0.1942 -0.0494  0.1144
21051W        W36520   2.405  15.669   2.453  0.0375  0.1296 -0.2439
21052W        W36521   0.578   5.910   1.863  0.3073  0.0795  0.2244
21053W        W36522  10.984  13.658  15.717  0.0093  0.2620 -0.3008
21054W        W36523   3.192   3.208  13.529 -0.0702  0.2029  0.1535
21055W        W36524   8.025  15.791   4.517 -0.1825  0.0836  0.1547
21056W        W36525   2.931  12.853   0.915 -0.2337  0.5481 -0.1784
21057W        W36526   7.818   8.685   2.517 -0.1927 -0.0019 -0.2441
21058W        W36527   5.307   4.205  14.267 -0.1981  0.0148 -0.0080
21059W        W36528   9.729  12.080   3.484  0.1567  0.2233 -0.0510
21060W        W36529  10.070  13.386  11.146 -0.0685 -0.3877  0.0746
21061W        W36530  15.433   5.782  13.569 -0.0857  0.1113 -0.2477
21062W        W36531   8.437   0.137   4.475 -0.1785  0.2294 -0.1095
21063W        W36532   8.027   8.223  15.345 -0.1339 -0.1186  0.0444
21064W        W36533  12.786  12.984  12.654 -0.0047  0.1521 -0.2935
21065W        W36534  11.645  17.449   4.984 -0.0205 -0.0733  0.0757
21066W        W36535  16.209   3.010   5.535  0.0390 -0.2416  0.2498
21067W        W36536  15.010  17.180   3.877  0.1541  0.0660  0.1908
21068W        W36537  14.832   1.375   4.770  0.2708 -0.0282  0.1335
21069W        W36538   0.438  13.372   5.011  0.0216 -0.0298  0.0152
21070W        W36539   8.953  14.141  13.271  0.0640 -0.0184 -0.1522
21071W        W36540  15.942  16.876  13.512 -0.0555 -0.0406  0.0385
21072W        W36541  10.659  12.577   1.294 -0.3753 -0.1439 -0.0638
21073W        W36542   6.357  13.245  11.103  0.1716  0.1180  0.0201
21074W        W36543  15.504  17.416   2.254  0.0186 -0.0740 -0.0230
21075W        W36544  16.872  11.940  15.550  0.0932 -0.1012 -0.2880
21076W        W36545   4.523   7.953   2.196  0.0208  0.0458 -0.0549
21077W        W36546   5.241   4.500  13.856  0.0040 -0.1142 -0.0557
21078W        W36547   8.527  13.919  12.534  0.1346  0.1117  0.0640
21079W        W36548  16.164   2.492  14.699  0.0260  0.0856 -0.3354
21080W        W36549  12.821  17.240  12.021  0.0314  0.2094 -0.1922
21081W        W36550   1.785   4.138   4.573 -0.1910 -0.1613 -0.2290
21082W        W36551   6.147  17.061   0.806 -0.0979  0.0259 -0.0997
21083W        W36552   1.984  12.885   3.363  0.0373 -0.1209  0.0569
21084W        W36553   6.364   5.791   3.751 -0.1507  0.0812  0.3764
21085W        W36554   8.356  13.540  13.419 -0.2391  0.0363  0.0660
21086W        W36555  18.264   8.139  12.684  0.1619  0.0828 -0.1125
21087W        W36556  10.437  16.079   1.509  0.2084 -0.0992  0.0836
21088W        W36557   4.046   6.099   1.087 -0.1249  0.0822  0.1951
21089W        W36558  17.741   4.683  13.069  0.1616 -0.1961 -0.0254
21090W        W36559  10.840  10.878  13.357 -0.0777  0.2817 -0.4716
21091W        W36560  14.933   2.230  14.811 -0.1365  0.0606  0.0802
21092W        W36561  12.918   6.472  12.537 -0.1063  0.0873  0.1396
21093W        W36562  16.498   8.857  13.654 -0.0780  0.0905 -0.2311
21094W        W36563   2.015   5.476   3.834 -0.4372 -0.2860  0.2421
21095W        W36564   7.230  17.217   4.909 -0.0759  0.3479  0.1618
21096W        W36565   4.402  13.546   1.801  0.2586 -0.0867  0.2318
21097W        W36566   9.028   5.462   4.538  0.1092 -0.0998  0.3755
21098W        W36567  11.372  12.220  14.355  0.0223  0.2546  0.0649
21099W        W36568   4.108   0.938   1.589  0.0965 -0.3048 -0.0716
21100W        W36569  14.843   4.375  12.940 -0.1710 -0.0088  0.0256
21101W        W36570   1.354  11.461   2.269  0.3291  0.0550 -0.2845
21102W        W36571   6.967   7.283  14.644 -0.0326  0.0145 -0.0704
21103W        W36572   5.754   3.658   2.683 -0.2084  0.0665  0.2740
21104W        W36573   0.415   2.421  15.682  0.2288 -0.2426 -0.0646
21105W        W36574   5.739   9.856  13.560  0.0652  0.4302  0.2844
21106W        W36575  17.096   2.096   3.625 -0.4259  0.1186  0.0526
21107W        W36576   8.541  13.770   2.979  0.1137  0.1124  0.0733
21108W        W36577   6.782   7.221   0.083 -0.2175  0.0716  0.1238
21109W        W36578   7.692   4.180  12.321  0.0731 -0.2601 -0.1175
21110W        W36579  16.852   8.908   2.518 -0.0250  0.0800  0.2127
21111W        W36580   0.872  12.464  11.069 -0.0504  0.1024  0.0149
21112W        W36581   3.046  14.682  14.926  0.1951 -0.2885 -0.0216
21113W        W36582   7.178   5.597  11.566 -0.1554  0.3239  0.0394
21114W        W36583   3.944  13.932   2.964  0.1415  0.0708 -0.0301
21115W        W36584   0.329   9.487   2.091 -0.1759 -0.2408 -0.1192
21116W        W36585  10.943  14.123   2.051  0.1194 -0.2539  0.0950
21117W        W36586   6.881  12.663  11.759  0.0425  0.4713 -0.3650
21118W        W36587  15.573   1.958  15.296 -0.0735 -0.0972 -0.2019
21119W        W36588   9.293   1.634   1.374  0.1384 -0.2429  0.2992
21120W        W36589   6.281   7.464   2.870 -0.1581 -0.0895 -0.1123
21121W        W36590   5.543  13.951   0.267  0.0623 -0.1779 -0.2300
21122W        W36591  15.969  13.009   2.501  0.1146  0.1438 -0.2004
21123W        W36592   2.732  14.722  11.742 -0.0242 -0.2334  0.1647
21124W        W36593   0.562  17.809   5.256 -0.1082  0.0146 -0.0863
21125W        W36594   4.060  11.323   4.396  0.1239 -0.1757 -0.2449
21126W        W36595  14.016   7.838   0.936  0.2061 -0.0494 -0.0360
21127W        W36596   5.320   9.511   1.847 -0.0457 -0.0237  0.1306
21128W        W36597   0.234  13.776  13.419 -0.0525 -0.0321  0.1905
21129W        W36598   7.891   2.443   0.773 -0.0756 -0.4792  0.1525
21130W        W36599   1.111   6.497   3.385 -0.0239  0.1658 -0.0101
21131W        W36600   7.834   2.445  12.614 -0.0930  0.3944 -0.0562
21132W        W36601  11.815   3.418   5.833  0.1817  0.1412 -0.2001
21133W        W36602  13.061   3.093   4.316 -0.1759  0.0362  0.2436
21134W        W36603  15.363   9.873   5.170  0.0039 -0.2794  0.1659
21135W        W36604   0.150  13.895  12.511 -0.2495 -0.2013  0.0347
21136W        W36605  13.043   3.969   4.486  0.1469 -0.0664 -0.1609
21137W        W36606   0.388  17.350  14.806  0.0497 -0.3818 -0.0368
21138W        W36607   5.244  16.879  12.467 -0.1807  0.1407 -0.0249
21139W        W36608  13.281   0.869   1.535 -0.2429 -0.1341 -0.0287
21140W        W36609  12.980  18.016  15.827 -0.0538 -0.1524 -0.1384
21141W        W36610   5.633   3.869  11.012  0.0292 -0.2173  0.0025
21142W        W36611  13.907   4.338   1.204  0.1798  0.0125 -0.4735
21143W        W36612  17.415   0.715   0.704  0.1879 -0.0928  0.0357
21144W        W36613  14.840  14.607  11.988 -0.2749  0.0092 -0.3302
21145W        W36614   6.422   7.475  14.258 -0.2347  0.1231 -0.0947
21146W        W36615  13.216  13.897   2.567  0.1921  0.5233 -0.2999
21147W        W36616   7.768   9.307   1.465 -0.1002  0.0758 -0.0602
21148W        W36617  10.856   4.868  15.350 -0.0017 -0.1252 -0.0026
21149W        W36618   3.950  15.418  11.961  0.0337  0.1400 -0.0026
21150W        W36619   4.695   0.602   0.170 -0.2723 -0.1036 -0.1865
21151W        W36620   4.725  13.406  11.713 -0.0217  0.0795 -0.0818
21152W        W36621  11.876   3.116   3.772  0.1781 -0.0516 -0.2713
21153W        W36622  17.382   3.168   4.638 -0.2508 -0.2909 -0.1062
21154W        W36623  13.719  11.088  11.846 -0.0125  0.2977 -0.2075
21155W        W36624  11.722  14.453   2.144  0.0900  0.0163  0.1029
21156W        W36625   7.332   0.622   9.751 -0.0005 -0.2830 -0.0451
21157W        W36626  16.564  10.026   2.802  0.4433  0.1420 -0.0468
21158W        W36627  11.383   3.728  14.376 -0.0276 -0.0057  0.1509
21159W        W36628  12.959  15.959   5.664  0.1091 -0.1420  0.1957
21160W        W36629  17.972  12.549  14.907 -0.1668 -0.1672  0.0072
21161W        W36630  14.426   3.206   1.777 -0.1332 -0.1453  0.3934
21162W        W36631   1.174  10.785   4.725  0.1526 -0.1190 -0.1706
21163W        W36632  13.818   7.486  16.000 -0.6359  0.0878 -0.0683
21164W        W36633   0.074   7.343  14.617 -0.2325  0.0412  0.1845
21165W        W36634  10.235  15.174  11.493 -0.3420 -0.1064  0.1311
21166W        W36635   8.313  17.065  11.467  0.1008  0.2594  0.1117
21167W        W36636  16.014  14.376   4.386  0.0920  0.1806 -0.0684
21168W        W36637  16.302  16.714  14.907  0.0401 -0.2077  0.0198
21169W        W36638  12.019  16.795  14.397 -0.2843 -0.1990  0.2991
21170W        W36639   6.856  12.686   2.746 -0.0669 -0.0442 -0.2639
21171W        W36640  10.023   5.264  15.296 -0.0612 -0.0678  0.0224
21172W        W36641  18.105  16.559  12.590  0.1322 -0.0064  0.0401
21173W        W36642  10.570  18.268  14.293  0.0077 -0.1593 -0.0913
21174W        W36643  12.197  10.816  13.624 -0.2433 -0.1378  0.1934
21175W        W36644  16.487   7.404   1.885  0.2193  0.1267 -0.1047
21176W        W36645  18.106  10.867  13.721  0.1385  0.2216 -0.4185
21177W        W36646  15.410   9.000  16.003  0.0906  0.2069 -0.0535
21178W        W36647  14.857   0.450   4.320 -0.1209  0.1133 -0.0730
21179W        W36648   3.952   6.225   2.291 -0.2685  0.0151  0.0425
21180W        W36649   6.514   4.369  15.200  0.2118  0.0938  0.2073
21181W        W36650  11.747   1.032   3.216  0.3714  0.0267  0.0693
21182W        W36651  10.498   4.642   4.879 -0.2923  0.0987 -0.0444
21183W        W36652  14.588  13.055  14.668 -0.0424  0.0529 -0.3331
21184W        W36653  17.382  13.174   2.653  0.0728  0.0188  0.0372
21185W        W36654  10.218   7.257  13.807  0.0670 -0.0956  0.0142
21186W        W36655   0.899  15.566   3.179 -0.3121  0.1373 -0.2381
21187W        W36656  10.917   9.436  10.093 -0.1571 -0.2825  0.1868
21188W        W36657  18.179   1.141  11.744 -0.4707  0.2590  0.0299
21189W        W36658   3.348  10.006  16.011 -0.2334  0.1045  0.3201
21190W        W36659   2.832  13.814  14.532  0.2962  0.0871  0.2154
21191W        W36660   3.634   9.470   1.439 -0.1368  0.1303  0.3195
21192W        W36661  10.942  13.785   2.873 -0.0595 -0.0521  0.2463
21193W        W36662  16.266   1.520  12.080 -0.1344  0.2780 -0.1220
21194W        W36663   4.848  17.790  11.136  0.0521  0.0661  0.1349
21195W        W36664   3.719  10.784   2.326  0.1820  0.0845  0.4211
21196W        W36665   6.116  17.140  14.986  0.2436  0.0419 -0.1342
21197W        W36666  18.101  13.114  12.916 -0.3569 -0.3308  0.1482
21198W        W36667  18.015  11.761   3.975  0.2029 -0.1709  0.0241
21199W        W36668  10.395  13.590   0.826 -0.3152  0.1143 -0.2084
21200W        W36669  17.213   1.635   3.213 -0.1964  0.1657  0.0135
21201W        W36670   1.212  10.628  15.637  0.0683 -0.2479  0.2728
21202W        W36671   5.006   7.271  13.280 -0.1511 -0.0096 -0.1491
21203W        W36672   8.376  14.748  13.319  0.0163  0.0336  0.0744
21204W        W36673   2.093   5.012  14.908 -0.0621  0.4621 -0.2841
21205W        W36674   9.421   9.693  10.316 -0.3446 -0.0967 -0.0464
21206W        W36675   2.193   8.725  15.890  0.0748  0.2172 -0.1970
21207W        W36676   7.777   3.883  14.654  0.0720 -0.1142 -0.2992
21208W        W36677   2.076   2.607  12.739 -0.0356  0.1676  0.0507
21209W        W36678  12.077  13.714  15.018 -0.3069  0.2131 -0.1665
21210W        W36679  10.783   5.575  14.864 -0.0628  0.1687 -0.2989
21211W        W36680   7.202  14.677  10.815  0.1214 -0.0975 -0.0157
21212W        W36681  14.039  16.526   2.204 -0.1676 -0.1443  0.1452
21213W        W36682   2.243  14.185  14.866  0.1440 -0.0224 -0.0656
21214W        W36683  13.456   7.695  13.149 -0.0573 -0.3110  0.0514
21215W        W36684  12.609   8.905   0.133 -0.1167  0.2358 -0.0688
21216W        W36685  13.617   4.761  10.391 -0.0789 -0.0625  0.0397
21217W        W36686   3.585  14.094   4.230  0.1312  0.2042  0.1618
21218W        W36687   0.579   6.309  13.497  0.3043 -0.0043  0.0703
21219W        W36688   3.500  17.847  11.905  0.0855  0.1170 -0.0752
21220W        W36689   3.823  10.167   3.883 -0.0448 -0.0634 -0.0598
21221W        W36690  15.150   3.760   4.702 -0.0326 -0.1905 -0.0972
21222W        W36691   5.108   3.425   1.993  0.0732  0.2170  0.3900
21223W        W36692  10.419   1.312  12.319  0.3093  0.1459 -0.2097
21224W        W36693   1.212  12.875   5.805 -0.0740  0.0714  0.1857
21225W        W36694  12.261   9.682  11.262 -0.1779 -0.2092 -0.0917
21226W        W36695  13.655  15.906  13.563 -0.2374  0.1760  0.0790
21227W        W36696  15.599   6.778   2.147 -0.0704 -0.1522  0.0419
21228W        W36697   2.919   2.130   2.977 -0.1816  0.0131 -0.0655
21229W        W36698  15.292  10.277  12.048  0.2792  0.0563 -0.0884
21230W        W36699  12.196   4.850   4.534 -0.0480  0.1646 -0.0522
21231W        W36700  11.564  18.118   0.717 -0.0936 -0.0157 -0.1765
21232W        W36701   0.284   9.057  13.881  0.0333 -0.0761  0.1696
21233W        W36702  16.847  10.680  14.101 -0.0755  0.0781  0.0571
21234W        W36703   6.530  11.347   0.187 -0.1826 -0.1878  0.5961
21235W        W36704   7.812   4.297   3.178  0.2948 -0.0290 -0.1422
21236W        W36705  16.836  10.247  10.876  0.1543 -0.0595  0.1501
21237W        W36706   1.152  13.612   1.357 -0.1812 -0.0733 -0.0864
21238W        W36707  13.231   3.804   1.599 -0.1073 -0.1927  0.1682
21239W        W36708   0.687   1.718  12.421 -0.2141 -0.2359 -0.2348
21240W        W36709  10.531   9.626   0.783 -0.2847  0.1251  0.0826
21241W        W36710  17.206  12.003  12.789  0.2682 -0.2223  0.1318
21242W        W36711  11.305  10.924   5.596 -0.0492  0.0956  0.2127
21243W        W36712   6.405   4.571  12.923 -0.1693  0.1500  0.0590
21244W        W36713   1.831  13.333   2.385 -0.0766 -0.1519  0.1053
21245W        W36714  15.026   4.749  12.654  0.0217  0.0263 -0.0297
21246W        W36715  13.415   3.510  13.445 -0.0525  0.0161 -0.2208
21247W        W36716  16.251  15.523   0.018  0.2484  0.1493 -0.0875
21248W        W36717   9.139   8.298  12.644  0.1556 -0.1623  0.0490
21249W        W36718   0.164   5.136  15.321 -0.0894  0.0531  0.1995
21250W        W36719   8.812  15.176   0.437 -0.0661 -0.0621 -0.1208
21251W        W36720   6.268   1.669   1.803 -0.1329 -0.1542  0.0978
21252W        W36721   8.421   3.282  15.608 -0.0761  0.2934  0.0580
21253W        W36722   8.828  12.444  11.398  0.1410 -0.2263 -0.1098
21254W        W36723  15.098  13.555  15.605 -0.0836  0.1972 -0.2264
21255W        W36724   3.844   7.310  11.255  0.2303  0.1420  0.1663
21256W        W36725  15.676   1.255   4.994 -0.2277  0.1023  0.0045
21257W        W36726  11.902   5.155  14.054 -0.0848 -0.3003 -0.0482
21258W        W36727   5.744   7.594   3.907 -0.1652 -0.1270 -0.2542
21259W        W36728   9.510   1.932  14.508  0.0520  0.1441 -0.3047
21260W        W36729  15.707  17.576   4.348 -0.0078 -0.1158 -0.0076
21261W        W36730   2.648  18.092  11.397 -0.0389  0.1791 -0.3515
21262W        W36731  18.182  16.472   0.598  0.0481  0.0389 -0.4570
21263W        W36732   1.287   9.474  12.068 -0.1538  0.4332  0.0790
21264W        W36733  15.108   6.730  16.012 -0.1477  0.0064 -0.0287
21265W        W36734  16.738  15.304   3.228 -0.3324 -0.0237  0.1058
21266W        W36735  15.841  12.749  14.525 -0.3027  0.1023 -0.0118
21267W        W36736  17.876  11.120   1.378  0.3349  0.3105 -0.2514
21268W        W36737   1.355   9.396   4.123 -0.0063  0.1040 -0.0871
21269W        W36738   9.439   3.173  15.631 -0.0659  0.0375 -0.3044
21270W        W36739   8.149  12.521  11.486  0.0249 -0.1048  0.1144
21271W        W36740  13.692   5.132   4.985 -0.1548 -0.2327  0.2727
21272W        W36741  17.688   0.579  14.901 -0.1597  0.0435 -0.3713
21273W        W36742   2.297   5.037   4.294 -0.0116 -0.0360 -0.3046
21274W        W36743  15.530   3.165   3.126  0.0037  0.2122 -0.3516
21275W        W36744   2.926  16.204   6.064 -0.3756 -0.0039 -0.0580
21276W        W36745   7.545  12.055  10.379  0.0238 -0.2771 -0.0514
21277W        W36746  16.490  17.756   1.360  0.0704  0.2266  0.0088
21278W        W36747  14.670   3.029   0.207  0.2087  0.1423 -0.0854
21279W        W36748   8.154   2.849  10.399 -0.2736  0.0223  0.4360
21280W        W36749   0.632   6.924   4.629  0.0611 -0.1317  0.4148
21281W        W36750   4.705   6.356  11.764 -0.2318  0.2605 -0.1491
21282W        W36751   1.961  14.628   4.480  0.3548  0.2669 -0.2592
21283W        W36752   3.974  10.740   3.242 -0.0331  0.1870  0.2032
21284W        W36753   5.215   8.082  15.790 -0.1449  0.0522  0.0465
21285W        W36754   1.141   3.969  11.614  0.1342 -0.1599  0.0836
21286W        W36755  15.543   6.055  11.866  0.0003 -0.2106  0.0190
21287W        W36756  15.549  15.455  15.300  0.2076 -0.1141 -0.1926
21288W        W36757  10.083   2.288  12.039  0.1706  0.1364 -0.1112
21289W        W36758  10.149  10.000   1.502  0.0404  0.1325  0.0719
21290W        W36759  17.240   1.830   4.574  0.0617 -0.1606  0.3251
21291W        W36760   7.306   7.818   4.624  0.0536 -0.2876 -0.0241
21292W        W36761   1.979   1.758   0.304 -0.1145 -0.0235  0.3710
21293W        W36762  17.313  12.432   1.638  0.0452  0.0136  0.0228
21294W        W36763   0.635  15.527   0.370 -0.2932 -0.1350  0.1421
21295W        W36764   6.975   7.650   0.926  0.4231  0.2796  0.2924
21296W        W36765  11.207  11.180  13.627  0.1892  0.0100  0.0291
21297W        W36766  12.338   6.663   1.391  0.0819 -0.0962  0.1592
21298W        W36767   6.766   8.468  15.622 -0.2147 -0.0290 -0.3186
21299W        W36768  15.567   8.848   0.355  0.1031 -0.2344 -0.3995
21300W        W36769   5.922   1.008  12.139  0.2407  0.3290  0.1306
21301W        W36770  11.146  16.049  13.144 -0.1755  0.0118 -0.2279
21302W        W36771   9.953  18.236  13.523  0.2389  0.1040  0.0833
21303W        W36772   4.904   1.852  14.616  0.1510  0.2163 -0.2304
21304W        W36773   9.212   7.850  11.164 -0.0680  0.0796  0.0676
21305W        W36774  17.424   0.033   5.537 -0.5073 -0.0991  0.0519
21306W        W36775  17.923  11.470  14.461 -0.2914 -0.1493  0.0324
21307W        W36776  16.592   2.013  13.861 -0.3362 -0.0290  0.0513
21308W        W36777   0.338   2.679  13.939  0.1043 -0.1852 -0.2545
21309W        W36778  10.961   0.951   4.547  0.1247 -0.1144  0.2246
21310W        W36779   9.354   9.373  14.054  0.0286  0.0887  0.1987
21311W        W36780   1.659   7.415   2.305  0.3113 -0.0503  0.1681
21312W        W36781   3.498   5.360   3.369 -0.0077 -0.1086  0.2061
21313W        W36782   0.457  16.479   5.275  0.1316 -0.1574  0.2343
21314W        W36783   5.970   9.511  11.878 -0.2652 -0.2072 -0.1806
21315W        W36784  13.194   1.389   6.169 -0.0877 -0.1711 -0.0508
21316W        W36785  15.244   1.866   1.515 -0.0444  0.1665 -0.0804
21317W        W36786   5.434  13.930  11.045 -0.1363 -0.1427 -0.1155
21318W        W36787  16.831  12.539   1.644  0.1062  0.0392  0.1195
21319W        W36788   0.524   1.345  11.375  0.1320 -0.0237 -0.2919
21320W        W36789  10.510  10.282   1.819 -0.2825  0.2610 -0.1729
21321W        W36790  12.507   4.767   2.897 -0.0061 -0.1361 -0.1089
21322W        W36791  13.021   6.953  12.418 -0.0792 -0.1456 -0.2122
21323W        W36792   3.698   2.507   1.745  0.0308  0.1846  0.3300
21324W        W36793   5.872  15.732  12.493  0.2758 -0.1491  0.2580
21325W        W36794   2.664   0.767  12.395 -0.2216  0.0430  0.1615
21326W        W36795  11.926  14.862   2.391  0.0320 -0.2337 -0.0066
21327W        W36796   6.158  15.818   4.131  0.0866  0.1013  0.4850
21328W        W36797  12.581   3.287  15.789  0.0447 -0.1005  0.0266
21329W        W36798  17.316  16.159  15.935  0.1466  0.0225 -0.0498
21330W        W36799   8.102   0.000  14.598 -0.4551 -0.2439 -0.1360
21331W        W36800   0.266   0.376   3.788 -0.2132  0.0702  0.0039
21332W        W36801   1.033  14.346   2.422  0.1014  0.1932 -0.1694
21333W        W36802   9.959  10.985  11.602 -0.2612 -0.0016  0.1962
21334W        W36803  18.045   9.460   4.947 -0.0342 -0.0501 -0.0106
21335W        W36804  15.690   1.749   1.372  0.2651  0.2529  0.2345
21336W        W36805  14.173  12.466  13.289 -0.1810 -0.1937 -0.0249
21337W        W36806  12.953  17.999  11.785 -0.1148  0.1187 -0.2034
21338W        W36807  17.866   3.347   2.461 -0.0547 -0.0687  0.0978
21339W        W36808  11.152  18.012  13.324 -0.1215 -0.2147 -0.1564
21340W        W36809  11.747   2.807  14.409  0.2040 -0.0078  0.1207
21341W        W36810   0.304  16.782   0.729  0.0448 -0.1496  0.1171
21342W        W36811  12.117   9.296  12.784  0.1805 -0.1269  0.1267
21343W        W36812  10.232  13.146   4.728 -0.1267  0.2628  0.3043
21344W        W36813  14.412  12.940  12.999  0.0123 -0.1503  0.2054
21345W        W36814  17.058   4.402  11.119 -0.0771 -0.1149  0.0672
21346W        W36815   2.589   6.947  11.510  0.1454  0.0239 -0.0433
21347W        W36816   6.195   7.288  12.612 -0.4151 -0.4064  0.0140
21348W        W36817   2.942   5.754  11.010  0.2327  0.3329 -0.0115
21349W        W36818   5.713   4.518   2.332  0.0507 -0.0179  0.1026
21350W        W36819   3.938  13.275  12.061 -0.0202 -0.2224  0.0420
21351W        W36820   3.158   9.727   4.944  0.0161 -0.1334  0.0129
21352W        W36821  15.020   8.144   0.647 -0.0982  0.0381 -0.0416
21353W        W36822  17.213  10.554   1.692 -0.1114 -0.5004  0.1036
21354W        W36823   8.451  16.400  15.739  0.0122 -0.1968 -0.0850
21355W        W36824   6.594   9.661  15.360  0.1704 -0.3106  0.0755
21356W        W36825  14.343   1.031   3.686  0.0720 -0.0699 -0.1947
21357W        W36826  15.826   6.459   4.622 -0.0691 -0.0457 -0.1830
21358W        W36827  17.726  17.635   3.663 -0.2074  0.3184 -0.1393
21359W        W36828   2.905   7.273   2.395 -0.0955  0.4215  0.0369
21360W        W36829  11.488   7.876  14.221 -0.0447  0.1847 -0.0774
21361W        W36830   8.618   5.300  13.719 -0.1881 -0.2142  0.0204
21362W        W36831  10.720   7.649   5.321 -0.4003  0.1573 -0.1699
21363W        W36832   4.720  12.732   3.804 -0.2923 -0.1068 -0.0060
21364W        W36833  13.268   8.793   4.754  0.0366 -0.2805  0.0740
21365W        W36834  14.680   8.671   5.484  0.1225 -0.2350 -0.1303
21366W        W36835  16.775   0.351   1.306  0.0424  0.3338  0.0567
21367W        W36836  11.705  18.109   5.159 -0.2585  0.2547  0.2820
21368W        W36837  12.481  18.204   5.862 -0.1112  0.0004  0.0406
21369W        W36838   6.818  14.891  15.596  0.0849 -0.2398  0.1149
21370W        W36839   1.526   5.630   4.148  0.1348  0.1034 -0.1433
21371W        W36840   3.556  13.156  12.383  0.2810 -0.2178  0.0488
21372W        W36841   4.830   7.647  11.247 -0.0621 -0.1872  0.0280
21373W        W36842  14.579  14.027   2.751  0.0853 -0.2411  0.0651
21374W        W36843   4.133   1.053  13.593  0.2243  0.0939 -0.0864
21375W        W36844  10.989   5.397  13.998  0.0113 -0.1702 -0.1429
21376W        W36845  13.711   8.771  11.713 -0.1805 -0.1427  0.0552
21377W        W36846   6.425  15.446   2.457  0.0719  0.2934  0.3414
21378W        W36847   5.995  17.662   3.230 -0.2784 -0.1587  0.0749
21379W        W36848   0.155  16.344   5.651 -0.2463 -0.0119  0.0040
21380W        W36849  14.069  12.434   4.791 -0.1887  0.2193  0.2399
21381W        W36850   3.246  12.629   1.877  0.1742  0.0885  0.1841
21382W        W36851   2.383  17.540   5.415  0.0221 -0.1665 -0.0411
21383W        W36852   3.880   6.885  14.269 -0.1719 -0.2157 -0.0915
21384W        W36853  11.376   0.416   3.435 -0.0617  0.1914  0.1046
21385W        W36854   7.385  11.927   1.836  0.3562  0.0460 -0.0603
21386W        W36855  15.896   3.932  13.992  0.1977  0.1575  0.1689
21387W        W36856  13.320  13.701  13.320  0.1297  0.2386 -0.0319
21388W        W36857   9.123   1.288   3.626 -0.0023 -0.3407 -0.0733
21389W        W36858   3.332  14.948  13.299 -0.1081 -0.1529  0.1078
21390W        W36859   5.119  16.665   1.270  0.2055  0.1405  0.1318
21391W        W36860  14.889  12.574  11.788 -0.0519 -0.1153 -0.0194
21392W        W36861   3.838   0.065  16.021 -0.1213 -0.5269 -0.0893
21393W        W36862   0.463   7.538  11.749  0.1789 -0.0610 -0.1131
21394W        W36863  10.281   6.097  15.836  0.2164 -0.0761  0.1649
21395W        W36864  13.706   2.554   5.082 -0.0017  0.0489  0.0983
21396W        W36865  10.252   2.419  15.899 -0.3955  0.1645  0.0277
21397W        W36866  16.415  11.843   0.979  0.0501  0.1116  0.2190
21398W        W36867  14.678   0.342  13.035 -0.2610  0.1034  0.2544
21399W        W36868  15.251  13.115  12.424  0.1811  0.0299 -0.1968
21400W        W36869  12.506  15.695   4.134  0.1673 -0.3404 -0.1355
21401W        W36870  15.734  16.982   1.992 -0.1009  0.0589  0.1559
21402W        W36871  14.185   8.342  16.096  0.0315  0.1029 -0.1438
21403W        W36872   1.722   0.636  14.641  0.1463  0.1014  0.0417
21404W        W36873  12.283  13.750   0.696  0.1942 -0.3733  0.3277
21405W        W36874  15.706  16.581   2.325  0.3772 -0.1330  0.0334
21406W        W36875  12.414   1.766  12.591 -0.1287  0.1238 -0.0419
21407W        W36876   3.314   7.692  12.999  0.1385  0.0131 -0.2211
21408W        W36877   1.825   0.313   2.518 -0.3693  0.0878  0.1728
21409W        W36878   8.799  11.697  14.850  0.0225  0.1572 -0.0911
21410W        W36879  14.098   1.721  15.292 -0.0743  0.1095 -0.1371
21411W        W36880   2.597   8.883   4.132  0.0931 -0.0702  0.0251
21412W        W36881   3.218   7.315   4.501 -0.1142  0.0905 -0.0486
21413W        W36882   3.358   1.563   1.465  0.0476  0.0696 -0.0923
21414W        W36883   1.077  13.978   2.831  0.0366  0.3536  0.3078
21415W        W36884   7.504   0.030   4.803  0.2877 -0.0601 -0.0501
21416W        W36885   1.743   2.567  11.892 -0.3680 -0.0186  0.0870
21417W        W36886  14.557   6.411   2.047 -0.1260  0.2508 -0.3090
21418W        W36887   3.643  11.398   1.571  0.0037  0.0191  0.0143
21419W        W36888  12.083   1.028  12.275 -0.0901  0.2204 -0.1845
21420W        W36889  13.825  17.154   5.301  0.0504  0.0160  0.2251
21421W        W36890  11.188   0.960  15.729  0.2818  0.0650 -0.3483
21422W        W36891   7.627  13.338   0.392 -0.0138 -0.0799 -0.1529
21423W        W36892   1.168   8.598   1.063 -0.2093  0.0501 -0.3039
21424W        W36893   3.472  13.891  13.319  0.1202  0.1571 -0.0156
21425W        W36894   6.810   4.800  11.716  0.1986 -0.2506 -0.0112
21426W        W36895   0.808   1.714  15.966  0.2175 -0.1470 -0.0810
21427W        W36896   2.485   8.586   2.226  0.1215 -0.2704  0.0782
21428W        W36897   3.027  12.077   1.551  0.0377 -0.0087 -0.0291
21429W        W36898   6.558   2.935  10.751 -0.0788  0.0870  0.2499
21430W        W36899  12.350   1.654  13.129  0.2671 -0.3163 -0.2977
21431W        W36900   6.691  13.682  11.523  0.0577 -0.0608  0.1278
21432W        W36901   8.202   5.741  11.315 -0.0919 -0.0706  0.0720
21433W        W36902   2.608   5.312  13.675  0.1314 -0.4814 -0.2963
21434W        W36903  11.883  17.094   5.431  0.1923 -0.3303  0.0708
21435W        W36904   1.038   7.257   4.598  0.0086 -0.2826  0.3161
21436W        W36905   4.046  16.498  15.217  0.0748 -0.1536 -0.1717
21437W        W36906   7.293  15.749   2.643 -0.4637 -0.1059  0.4506
21438W        W36907   1.352  12.651  15.896  0.0178 -0.3640 -0.2827
21439W        W36908   6.024   0.896  12.622 -0.2167  0.3022  0.0228
21440W        W36909   1.846   8.063   0.115 -0.1692 -0.1712  0.1132
21441W        W36910   1.022  11.216  13.270  0.0188 -0.0464 -0.2814
21442W        W36911  14.513   7.279   5.451 -0.3565 -0.0608  0.1433
21443W        W36912   0.509  13.506   3.279  0.2304  0.1732  0.0579
21444W        W36913  12.032  13.519   1.896  0.0707 -0.1049  0.1367
21445W        W36914   2.816   1.428   0.725  0.3508  0.2435 -0.0959
21446W        W36915  16.730  13.962   3.797  0.3810 -0.3263 -0.2633
21447W        W36916   6.088   2.716  15.446  0.0226 -0.1097  0.0582
21448W        W36917   3.416  10.685  15.658 -0.1226 -0.2218 -0.2787
21449W        W36918   3.734  10.733  15.254 -0.0227 -0.2857 -0.1762
21450W        W36919   8.418  17.955  14.745  0.1651 -0.0993  0.2631
21451W        W36920   5.870   5.393   9.946 -0.3586 -0.3741 -0.0798
21452W        W36921   0.237  18.283   2.108  0.2077 -0.1093  0.3191
21453W        W36922   4.947   1.337   1.831  0.0372 -0.3346 -0.0423
21454W        W36923  17.517  15.327   2.702  0.2478 -0.0018 -0.2265
21455W        W36924   7.451   5.134  15.666 -0.1033  0.4096  0.0954
21456W        W36925   4.252   4.808  10.708  0.0005  0.3009  0.0790
21457W        W36926   8.131  10.497   0.069  0.0420  0.1310  0.2313
21458W        W36927   3.013   3.598   3.584  0.1366 -0.1122  0.0713
21459W        W36928  15.299   0.845  13.595  0.2782 -0.0933 -0.1556
21460W        W36929  13.921  12.506   2.334 -0.1935 -0.2553 -0.2399
21461W        W36930  16.460   6.097   5.532  0.0861  0.1313 -0.1604
21462W        W36931  17.761   1.720   3.297  0.1346  0.1078  0.0935
21463W        W36932  16.433  17.619   0.861 -0.4557  0.1506  0.3165
21464W        W36933  15.274   5.952  15.641 -0.0629  0.0912 -0.0066
21465W        W36934   9.136  12.070   0.058  0.1970 -0.1449  0.2753
21466W        W36935   6.068   3.811   1.611 -0.3503  0.1332  0.0075
21467W        W36936   7.367   3.051   0.635 -0.0668 -0.0077  0.0159
21468W        W36937  15.754   9.084  12.878  0.0926 -0.0720  0.6485
21469W        W36938  17.792   5.782   2.487 -0.0734 -0.1207  0.0751
21470W        W36939   2.955  15.877   4.059 -0.0615 -0.0177  0.1359
21471W        W36940   5.544   7.790   0.617  0.2389 -0.0457  0.1501
21472W        W36941   1.183  12.838   3.063 -0.1335 -0.0736  0.0127
21473W        W36942  12.493   4.071  14.066 -0.2836  0.1332  0.1766
21474W        W36943  16.352   8.532  11.572  0.1177 -0.2670  0.0951
21475W        W36944  11.881   9.137   2.881 -0.1854  0.0316  0.0578
21476W        W36945   5.112   9.804  11.035  0.1079 -0.1339  0.2956
21477W        W36946  16.983  11.431   2.569  0.0027  0.0150  0.1522
21478W        W36947   3.963  14.719  13.746  0.1987 -0.0396  0.1846
21479W        W36948   1.702  17.206  13.868 -0.2711  0.0783 -0.1951
21480W        W36949   4.433  14.216  15.894 -0.0590 -0.0807  0.3113
21481W        W36950   4.372   0.689   3.658  0.0586  0.1677  0.1066
21482W        W36951   8.320  15.962  16.103  0.1131 -0.1292  0.3631
21483W        W36952   7.407  16.672  14.114  0.1236  0.0661 -0.0953
21484W        W36953   3.316   3.075  10.609  0.0208  0.1416 -0.0489
21485W        W36954  11.488   2.100   5.487 -0.0443  0.0090 -0.0173
21486W        W36955  10.159  15.560  15.339 -0.0235 -0.0427 -0.1754
21487W        W36956  13.535   1.263   4.801 -0.1153  0.2049 -0.1248
21488W        W36957   7.320   5.312   1.848 -0.0465  0.1469 -0.2593
21489W        W36958  14.989   3.818  12.810  0.0669  0.0213 -0.0278
21490W        W36959  14.087   3.133  15.227  0.2309  0.1279 -0.1148
21491W        W36960  12.595  14.901  12.395 -0.3117  0.1025 -0.0823
21492W        W36961   3.033   3.974   0.114 -0.1242 -0.2426  0.0609
21493W        W36962  12.027  16.625  15.974 -0.2734 -0.0066  0.1634
21494W        W36963   6.194  17.776   3.699 -0.1097 -0.1728  0.0986
21495W        W36964   9.648   3.106   4.482  0.0258 -0.3098 -0.1108
21496W        W36965   0.068  18.034   5.531  0.1528  0.0469  0.0811
21497W        W36966   9.936   6.864  11.805  0.0484  0.0658 -0.0841
21498W        W36967   4.853   4.756  15.630  0.2418 -0.2143  0.0962
21499W        W36968  15.646  13.365   4.545 -0.2319  0.0054 -0.0756
21500W        W36969   6.523  10.065   3.643 -0.0144  0.1523  0.1181
21501W        W36970  16.292  10.587  12.215 -0.2270  0.3146  0.2601
21502W        W36971   8.561  15.988   0.777 -0.5706 -0.1315 -0.1911
21503W        W36972  10.308  17.723   0.828 -0.1029 -0.0985  0.3275
21504W        W36973  16.327  13.770   1.032 -0.1644  0.3464  0.2242
21505W        W36974  15.304  17.933   1.857 -0.1171  0.1820 -0.1280
21506W        W36975   7.409   9.182   1.822 -0.0872  0.2005 -0.1655
21507W        W36976  17.183   2.292  15.276 -0.1381 -0.0076  0.1177
21508W        W36977  15.334  13.191   4.922 -0.1403  0.0058 -0.1092
21509W        W36978   8.464  12.525   3.880 -0.2072  0.2380 -0.2001
21510W        W36979  16.140  17.865   2.921  0.0278  0.0281 -0.2250
21511W        W36980   9.049   8.980  11.237  0.3348 -0.4306  0.0813
21512W        W36981   7.016  15.171   1.063 -0.4450  0.3587 -0.0477
21513W        W36982  16.209  10.901   2.587  0.0173 -0.3352  0.0992
21514W        W36983  17.414   0.937   1.939  0.0068  0.0828 -0.4971
21515W        W36984   9.256   1.099  13.855  0.1014  0.0303 -0.1940
21516W        W36985   0.171   5.325   4.593 -0.0785 -0.0225 -0.1054
21517W        W36986   8.126  14.799  14.903  0.0337 -0.0431  0.3933
21518W        W36987   0.994   4.839   1.940  0.1810 -0.0606 -0.0439
21519W        W36988   3.864   9.819  13.613  0.1244  0.1969  0.1940
21520W        W36989   7.295   6.147  15.226 -0.0709  0.1695 -0.4468
21521W        W36990  17.117  14.937  10.300  0.1431  0.2405 -0.1284
21522W        W36991  14.343  14.059   1.593  0.3715  0.1392  0.0369
21523W        W36992   1.913   6.998   2.315  0.0656  0.3902  0.1250
21524W        W36993  10.249  14.785  15.104  0.2039 -0.1037 -0.1763
21525W        W36994   2.418  13.541   2.244 -0.0151  0.1170 -0.2600
21526W        W36995   0.585  16.417  15.497 -0.0225  0.0686  0.0989
21527W        W36996  11.002   2.249  15.497  0.1871 -0.1949 -0.0877
21528W        W36997   1.873   5.954  13.943 -0.4436 -0.1587  0.2244
21529W        W36998   6.076  12.239   6.336  0.0783  0.2366  0.2236
21530W        W36999   1.169   0.442   2.104 -0.3091  0.1120  0.0954
21531W        W37000   7.174   4.671  15.622  0.3062  0.0038  0.1928
21532W        W37001   6.350   8.909   5.632 -0.2687  0.2641 -0.2619
21533W        W37002   1.013   6.782   2.005 -0.3752 -0.0865  0.0984
21534W        W37003   8.602  11.957  15.360 -0.0988 -0.2165 -0.2378
21535W        W37004  16.843   2.342   1.701  0.1940  0.1248 -0.3224
21536W        W37005   7.173  12.635   3.221 -0.0686  0.0080  0.2773
21537W        W37006   3.115   9.118  12.291 -0.3423 -0.2756  0.0131
21538W        W37007   4.031   7.757   2.924 -0.1347 -0.0303  0.0619
21539W        W37008   1.005   6.902   4.982  0.2727  0.2891 -0.1087
21540W        W37009   7.128  12.425   1.167  0.0830 -0.0998  0.0706
21541W        W37010   0.561   7.132  11.964 -0.3084 -0.1526 -0.0428
21542W        W37011   7.000  15.277  13.493  0.0529 -0.1633 -0.0638
21543W        W37012  10.758   0.634  11.948 -0.0498  0.2244 -0.0916
21544W        W37013   8.883  10.255  10.574  0.1845 -0.1733 -0.1368
21545W        W37014   1.358   2.081   3.267  0.0720 -0.0467 -0.2513
21546W        W37015   2.920   5.915   1.441 -0.1195 -0.1754 -0.1903
21547W        W37016  17.770   8.087  13.635  0.0380 -0.0769  0.1300
21548W        W37017  12.669   1.394   6.169  0.1839  0.1283 -0.2531
21549W        W37018  14.024  10.684  13.641  0.0310 -0.2061 -0.0505
21550W        W37019  11.280   7.307   3.866  0.2395  0.1687  0.0437
21551W        W37020   6.011  17.124  14.472  0.1933  0.1913 -0.1131
21552W        W37021   1.924  17.849  14.628 -0.0226 -0.3030 -0.2865
21553W        W37022  18.037   3.926  12.549  0.0210  0.1577  0.2173
21554W        W37023   9.039  14.543   5.727 -0.1770 -0.1429 -0.1272
21555W        W37024  16.040   9.779   1.165 -0.3731 -0.1007  0.1117
21556W        W37025  13.118   9.842   0.067 -0.1052 -0.0453  0.2555
21557W        W37026   3.236  10.712   2.027 -0.2169 -0.0000 -0.2850
21558W        W37027   7.872   1.829   4.574  0.1147  0.1723  0.0369
21559W        W37028  16.556  14.837  13.776 -0.2318 -0.0203 -0.0155
21560W        W37029   8.595   9.699   0.101 -0.0119 -0.0108  0.0027
21561W        W37030   1.417  10.577   0.504  0.2918 -0.1169 -0.0653
21562W        W37031   7.610  15.405  12.236  0.2135 -0.0837  0.2443
21563W        W37032   1.532  11.259  11.095  0.2392  0.1042  0.0436
21564W        W37033   3.112  11.948   0.505 -0.0506 -0.1311 -0.1554
21565W        W37034  14.952  16.306  12.065 -0.0630 -0.1556 -0.1307
21566W        W37035  11.580   1.617   0.854  0.1630 -0.1223 -0.2972
21567W        W37036  14.580   3.229   5.350 -0.1311 -0.2538  0.0363
21568W        W37037   5.628   9.392  14.627 -0.0329  0.1410 -0.0688
21569W        W37038   7.432   5.936   1.666  0.0192 -0.0314 -0.0592
21570W        W37039  14.024   6.518   1.252 -0.3092 -0.0852  0.3083
21571W        W37040   5.875   8.203  14.523 -0.1918 -0.0410  0.1976
21572W        W37041   6.057   1.113   3.624 -0.2052  0.0298  0.0443
21573W        W37042   6.483  17.891   3.270  0.0024 -0.0110 -0.3720
21574W        W37043   5.705   7.017  12.083 -0.1542 -0.0571  0.1594
21575W        W37044   7.144  14.335   0.137 -0.1545  0.1128  0.2093
21576W        W37045   1.364   0.094   4.102 -0.0813  0.1293 -0.0172
21577W        W37046   0.637  16.525   4.768 -0.2017  0.2125 -0.0865
21578W        W37047  17.798   2.850  15.669  0.0019  0.4229 -0.1311
21579W        W37048   2.591   7.632  12.720 -0.0254  0.2722 -0.2705
21580W        W37049  14.636   6.471   2.568  0.0141 -0.2008  0.0209
21581W        W37050   6.153   8.687   4.698 -0.2457 -0.0392  0.1843
21582W        W37051   6.235   7.961   2.129  0.0901 -0.1633  0.4073
21583W        W37052  15.173  10.260  13.376  0.1618  0.1377 -0.1853
21584W        W37053   8.978   6.904   2.137  0.0405 -0.0192  0.1934
21585W        W37054   3.386   6.734   3.471 -0.1979 -0.0705 -0.0756
21586W        W37055   0.154   4.111  12.752 -0.2026  0.0601 -0.0755
21587W        W37056   4.686  14.456  13.213 -0.0763  0.1451 -0.2829
21588W        W37057   7.517   1.618   0.618 -0.0479 -0.0621  0.0456
21589W        W37058  13.202  17.609   2.329  0.1394 -0.1127 -0.2314
21590W        W37059   0.666   9.031  14.518  0.0508  0.4799  0.1694
21591W        W37060  10.218   6.743  12.257 -0.0101 -0.1877 -0.2022
21592W        W37061   1.239  16.861   0.503  0.2069 -0.1970  0.2101
21593W        W37062   6.221   3.939   4.709  0.2932  0.0262  0.0063
21594W        W37063  17.119   4.967  11.840 -0.2157 -0.0219 -0.0881
21595W        W37064   5.616   6.020  11.030 -0.0824 -0.0073  0.0961
21596W        W37065   8.157   9.162   5.739  0.1692  0.2260  0.1186
21597W        W37066   9.610  13.544  13.326  0.1682 -0.2736  0.0966
21598W        W37067   5.348  14.863  14.349 -0.0605  0.2402 -0.4607
21599W        W37068   2.444  14.895   4.538  0.1279 -0.0245 -0.2457
21600W        W37069   1.227   8.429  11.978  0.4706 -0.2204  0.0991
21601W        W37070  12.266  17.124  11.313 -0.0765  0.0243  0.3899
21602W        W37071  17.295   7.065  15.280  0.1857  0.0368 -0.0830
21603W        W37072  16.211  15.390  13.459 -0.1060  0.1913  0.1269
21604W        W37073  17.618   6.557  13.280  0.1342 -0.2664 -0.0729
21605W        W37074   2.554  13.775   1.738  0.3946  0.3493  0.0547
21606W        W37075   3.322   4.896  12.069  0.0507  0.1396 -0.0219
21607W        W37076   5.740  10.257  12.369  0.2013 -0.1247 -0.0527
21608W        W37077   2.584  14.888   5.102 -0.2478  0.0143 -0.1712
21609W        W37078  14.725  17.430  11.414 -0.0750  0.2153 -0.1104
21610W        W37079   2.885  15.875  14.311 -0.0208 -0.0577  0.2404
21611W        W37080   1.979   7.498   3.088 -0.2013  0.3040 -0.0873
21612W        W37081  11.375  12.154   2.710 -0.2313 -0.1022  0.2166
21613W        W37082   5.733   9.668   0.236  0.2439 -0.1084  0.0674
21614W        W37083  10.317  17.628   2.095  0.2157  0.1536  0.1919
21615W        W37084   1.292  14.037   3.429  0.3156 -0.0828  0.0436
21616W        W37085   2.013  12.613   2.950 -0.0728 -0.0501  0.0094
21617W        W37086  10.499   8.341   5.030  0.1209  0.0272  0.0947
21618W        W37087  15.264   7.427   2.290 -0.2468 -0.2099  0.0855
21619W        W37088   3.026   9.771  11.447  0.0086 -0.0839 -0.0359
21620W        W37089   6.739   3.350  11.114  0.0656  0.0682  0.0106
21621W        W37090   4.838   0.011   3.469  0.3932 -0.0430  0.2019
21622W        W37091  10.075  16.811   0.174  0.2214  0.3465 -0.2935
21623W        W37092  11.013  17.513  14.739 -0.0390 -0.3042 -0.2801
21624W        W37093  15.687   5.842  12.345  0.2819 -0.0501 -0.1075
21625W        W37094   5.131   1.881  11.478  0.0235  0.3156 -0.0562
21626W        W37095   6.000  14.244  12.175  0.1254  0.0275  0.2748
21627W        W37096   2.454   8.097  12.457 -0.1924 -0.2241  0.1564
21628W        W37097   9.953  14.545   5.334  0.0285  0.2968  0.1701
21629W        W37098  17.567  12.466  15.799 -0.1996  0.1558  0.2105
21630W        W37099  11.011  13.602  11.353 -0.2031  0.0667  0.1657
21631W        W37100  11.663  14.632   4.119 -0.1533 -0.0190 -0.1785
21632W        W37101  11.076   9.360  15.155 -0.1826  0.1134  0.1955
21633W        W37102   0.727   1.239   3.257 -0.0856  0.0235  0.2570
21634W        W37103  12.485  17.475  13.939 -0.0874  0.2507 -0.0511
21635W        W37104  15.541   8.052   1.818  0.0675  0.2786 -0.1047
21636W        W37105  15.218   6.332  12.782  0.2271 -0.0824 -0.1625
21637W        W37106   6.289   4.502  11.976  0.2241 -0.3485 -0.0001
21638W        W37107  15.051   3.799  15.884 -0.0870 -0.2409  0.2565
21639W        W37108   3.078   1.839  15.065  0.0177 -0.1440 -0.0815
21640W        W37109   8.031  11.665   3.377  0.2161 -0.1198 -0.0028
21641W        W37110   2.689   1.508  10.546 -0.2825 -0.0271 -0.0168
21642W        W37111  13.924   2.388   4.613  0.1410 -0.1738 -0.1656
21643W        W37112   3.335  12.458   4.944 -0.2228 -0.1428  0.0276
21644W        W37113   4.017   0.826   0.752 -0.2716 -0.0305  0.1681
21645W        W37114  17.862   4.948   4.689  0.1088 -0.1931 -0.1431
21646W        W37115  16.559  17.387   1.979 -0.1698  0.2197 -0.1690
21647W        W37116  11.678   3.274  12.035  0.1182  0.0597  0.5281
21648W        W37117   4.313   5.860   1.656 -0.1438 -0.0100 -0.1568
21649W        W37118  16.640  11.966  11.882 -0.2074 -0.2087 -0.2629
21650W        W37119  17.866  17.104   3.526  0.0691 -0.1648  0.2470
21651W        W37120  14.501  10.994   5.547 -0.0112 -0.1678  0.0616
21652W        W37121   1.798   3.489   2.325  0.1221  0.1282 -0.0662
21653W        W37122   2.321   8.979  10.887 -0.3108  0.0532 -0.2301
21654W        W37123  17.002  17.562   4.363 -0.1345  0.0962  0.1434
21655W        W37124   5.471   4.624  12.246 -0.0752  0.3603  0.1914
21656W        W37125   7.072  13.764   2.005  0.0107 -0.0810 -0.1081
21657W        W37126  15.493   0.032   4.685  0.2840  0.0797  0.0604
21658W        W37127   8.683  17.548   2.936 -0.2593 -0.0030 -0.0686
21659W        W37128   2.543  17.638  15.201 -0.2875  0.1058  0.2924
21660W        W37129   0.445  10.947   1.225 -0.0256  0.1680 -0.0529
21661W        W37130   6.390  10.345   2.786 -0.1078 -0.4306  0.1226
21662W        W37131   1.361   6.953  12.102  0.2358  0.0425 -0.0246
21663W        W37132  15.090   4.803  14.643 -0.2001  0.0917  0.2502
21664W        W37133   4.663   7.467  15.843 -0.2847 -0.0168  0.1970
21665W        W37134   0.748  17.609   2.515  0.0674  0.0547 -0.0835
21666W        W37135  14.007  12.952  10.762 -0.0783  0.1035  0.1139
21667W        W37136  15.557  12.040  11.851 -0.1277  0.1019  0.1219
21668W        W37137   9.454   9.471  11.977  0.2997  0.0298  0.2183
21669W        W37138   2.936   7.531   0.474 -0.2888 -0.1990  0.1117
21670W        W37139   2.479   9.737   3.533 -0.0897 -0.5039  0.1359
21671W        W37140  11.777  13.982   2.355 -0.1022  0.1110 -0.1431
21672W        W37141   6.645   7.415  12.321 -0.1060 -0.0213  0.0554
21673W        W37142   9.750  15.744   5.268  0.3499 -0.1564 -0.1774
21674W        W37143   9.544   9.374  15.342 -0.4170  0.1095  0.1962
21675W        W37144   7.908   5.905  12.110  0.0603  0.1185 -0.6399
21676W        W37145  11.842  13.450   2.651 -0.1991 -0.2429  0.0011
21677W        W37146  11.169   7.058  15.501  0.2258 -0.1752  0.0403
21678W        W37147  17.207  13.051  14.820 -0.0012 -0.2904 -0.0271
21679W        W37148  10.952  11.960   2.990 -0.0236 -0.3215 -0.1326
21680W        W37149  15.972  12.155   3.908 -0.0979 -0.0336  0.0574
21681W        W37150  10.414   1.893  12.124 -0.2763  0.3336  0.1481
21682W        W37151  14.389   4.675  11.598  0.1559  0.0636  0.2187
21683W        W37152   1.982  11.587  11.219 -0.1157 -0.3015 -0.1680
21684W        W37153  17.609   5.079   4.268 -0.1675  0.2165  0.1414
21685W        W37154   2.302  10.991  12.426 -0.0316 -0.0597  0.1590
21686W        W37155  16.093   2.944   1.714 -0.1689 -0.0802 -0.0080
21687W        W37156  13.002  14.497   3.835  0.0618  0.1851  0.0657
21688W        W37157  15.127   4.254  11.809 -0.0811 -0.0280 -0.3725
21689W        W37158   5.371   8.598  11.243 -0.1696  0.0171 -0.0038
21690W        W37159   5.400  11.913   1.031  0.1001  0.0024 -0.1823
21691W        W37160   7.890  15.342   9.939 -0.1665  0.2048 -0.3432
21692W        W37161  17.650   4.152   0.970  0.0580  0.2607  0.3554
21693W        W37162   2.030   4.444   4.894 -0.2409 -0.2657 -0.0192
21694W        W37163  12.647   7.436   4.259 -0.2475  0.0870 -0.2223
21695W        W37164  14.286  15.952   4.218  0.2774  0.1389 -0.0693
21696W        W37165   5.721   3.188  12.688  0.1238  0.2348 -0.0711
21697W        W37166  15.394   4.853   4.053 -0.0076 -0.2614 -0.2006
21698W        W37167  13.959   3.169  14.734 -0.0165  0.1995  0.0251
21699W        W37168   5.340   8.007  11.421  0.2840  0.0708 -0.1235
21700W        W37169  11.150   6.340  12.706 -0.0692 -0.0003 -0.2531
21701W        W37170   5.152   4.162   0.257  0.0915  0.1637 -0.0956
21702W        W37171  17.724  18.138   1.019  0.1747 -0.1656  0.0265
21703W        W37172   0.270  16.382  14.608  0.1087 -0.0835  0.0141
21704W        W37173   6.111   5.811  14.123 -0.0542  0.0353  0.1558
21705W        W37174   1.591  11.878   0.783  0.0826  0.2271 -0.2128
21706W        W37175   0.959  14.118  11.782 -0.1088 -0.0931 -0.1178
21707W        W37176  14.249   3.335  13.002 -0.3384  0.1690 -0.0238
21708W        W37177   1.621  13.517   9.844 -0.0112 -0.1685  0.1798
21709W        W37178   1.417  14.624   2.639  0.2465 -0.1828  0.0743
21710W        W37179  12.384   8.907  11.648  0.1429  0.2277  0.0565
21711W        W37180   0.177  13.547  12.909 -0.1749  0.2166 -0.2749
21712W        W37181  16.035   8.717   2.360 -0.0858 -0.2981 -0.0263
21713W        W37182  17.759  11.850   2.860 -0.0878  0.0159  0.3610
21714W        W37183  13.088   1.134  14.703  0.2226 -0.3985 -0.1526
21715W        W37184   1.198   9.906   3.952 -0.0040 -0.0436  0.2981
21716W        W37185   6.646  16.135  11.642 -0.0340  0.0064  0.2192
21717W        W37186  11.490  11.547  12.319 -0.1361  0.0281  0.1065
21718W        W37187   5.453   7.234   1.965 -0.0374  0.0486 -0.4407
21719W        W37188   4.879  15.443   0.439  0.1736  0.2015  0.2430
21720W        W37189   5.720  16.258  14.497 -0.1406 -0.0061 -0.1869
21721W        W37190  12.399  12.337   3.088 -0.0939  0.0335 -0.2683
21722W        W37191   0.008   6.241   3.675 -0.0789 -0.2274 -0.1015
21723W        W37192  15.579   3.502   4.670 -0.1907  0.0082 -0.1990
21724W        W37193  11.017  13.113  11.182 -0.1369 -0.0951 -0.2059
21725W        W37194   1.685  14.218   1.080  0.1527  0.3038 -0.1478
21726W        W37195   9.087   0.774   3.635  0.3903  0.1952  0.1001
21727W        W37196  10.600   1.995  12.773  0.2630  0.2259 -0.0959
21728W        W37197  13.326   3.412   0.330  0.0187  0.1713 -0.0053
21729W        W37198   8.468   0.790  15.470  0.0034  0.1172  0.0421
21730W        W37199   9.440  12.055  13.806 -0.0400 -0.3421  0.2862
21731W        W37200   6.099   0.323   4.477 -0.1188 -0.2579 -0.2056
21732W        W37201   6.425   0.050   2.849 -0.0919 -0.1892 -0.0687
21733W        W37202   7.637   1.417  13.207 -0.2967  0.2165 -0.2831
21734W        W37203   8.813   1.121   0.687  0.0010 -0.0109  0.2512
21735W        W37204  10.496  14.070   3.125 -0.1377  0.0238 -0.2789
21736W        W37205   3.344  10.337   3.684 -0.0566  0.1158  0.0656
21737W        W37206   7.916  17.332   5.331  0.1328  0.1175 -0.0298
21738W        W37207   4.434  16.852  10.023  0.1012 -0.3658 -0.0028
21739W        W37208   9.508   5.794  15.783 -0.0489 -0.0569  0.1585
21740W        W37209   5.456   2.219   2.164  0.0573 -0.2339 -0.0394
21741W        W37210  16.181   9.368  12.753 -0.3117  0.0497  0.1817
21742W        W37211  16.449   5.773   2.131  0.1060 -0.0920 -0.0650
21743W        W37212  15.293   6.169   1.460  0.0192  0.0341 -0.2013
21744W        W37213   4.087  12.365  10.931 -0.0986  0.0200  0.5616
21745W        W37214  17.663   4.331   1.472  0.2269 -0.1999  0.2832
21746W        W37215   4.905   3.199   4.483 -0.0020 -0.3483  0.2574
21747W        W37216   3.173   6.838  15.808  0.0236  0.3071 -0.1402
21748W        W37217   2.753  13.949   2.157  0.0086  0.0638 -0.0282
21749W        W37218   4.459   7.031  16.113  0.0853 -0.0075 -0.0546
21750W        W37219  12.611  17.678  14.454  0.3784 -0.1759 -0.1085
21751W        W37220   1.583  16.676  14.019  0.0082  0.1483  0.2946
21752W        W37221   4.150   5.835   0.217  0.1161 -0.2728 -0.3536
21753W        W37222  16.586   3.339  12.239 -0.0204 -0.0449  0.3217
21754W        W37223   8.949   4.092  13.332 -0.0625 -0.1091 -0.1322
21755W        W37224   2.411   1.319   3.154 -0.3220  0.1441  0.0465
21756W        W37225   7.749   3.447   0.753  0.0108 -0.0000  0.1675
21757W        W37226   7.319  10.764   4.356  0.0484  0.1847 -0.0327
21758W        W37227   0.878  11.225   1.116  0.0015  0.1070  0.2523
21759W        W37228  12.833  16.534  14.897  0.1311 -0.0904  0.4547
21760W        W37229   9.771  13.434  15.579  0.2338 -0.3049  0.1207
21761W        W37230  16.736   0.526  15.433  0.1303  0.0125  0.0186
21762W        W37231  12.800   7.291  14.335  0.0675  0.2386  0.4328
21763W        W37232   9.437   2.817  14.637 -0.5033  0.1910  0.0783
21764W        W37233   7.301  11.710   4.640  0.0302 -0.1776  0.1341
21765W        W37234  16.613  17.901   1.862 -0.1128 -0.2622  0.1014
21766W        W37235   8.209   1.174  15.491 -0.3334 -0.1310 -0.1662
21767W        W37236   2.968  13.961   2.948 -0.1410 -0.1021 -0.0936
21768W        W37237  13.497  14.698  11.948 -0.1493 -0.0733  0.2287
21769W        W37238   2.627   4.972  14.785  0.1279 -0.2725  0.0383
21770W        W37239  12.595  17.768   2.054 -0.1176  0.0673 -0.0665
21771W        W37240  14.861   1.523  14.701 -0.3799 -0.2686  0.0732
21772W        W37241  14.819  16.163   4.050 -0.1977  0.0015  0.1366
21773W        W37242   5.294  16.265   1.488 -0.1742  0.2309 -0.2566
21774W        W37243   4.013   0.462   5.377  0.1500 -0.2893  0.0943
21775W        W37244   2.428   2.531  10.626 -0.2563  0.1650  0.0343
21776W        W37245  13.855  14.404   1.725  0.1366 -0.1849 -0.1331
21777W        W37246   6.914   3.347  14.916 -0.1988  0.1210 -0.0481
21778W        W37247   9.326  12.532   5.159 -0.1147  0.0914  0.0469
21779W        W37248  14.960  14.463   9.804 -0.1512 -0.3076  0.0313
21780W        W37249  15.464  15.287  14.493  0.1508 -0.0511  0.0668
21781W        W37250   5.722   2.359  15.579  0.1526  0.1758  0.1585
21782W        W37251   4.685   4.772  13.208 -0.2065 -0.0468 -0.2438
21783W        W37252   2.522   2.532   0.240  0.0508 -0.2881 -0.0103
21784W        W37253  16.548   0.683   2.211  0.0014 -0.0238  0.1753
21785W        W37254  17.357   2.823  12.772  0.0770  0.0581  0.0115
21786W        W37255   4.793  13.501  10.721 -0.1644 -0.0995  0.1740
21787W        W37256   8.837   5.687   1.829 -0.2367 -0.0785  0.0667
21788W        W37257  16.096   9.338   4.429 -0.0633 -0.0983 -0.1022
21789W        W37258   0.433   2.355  12.144  0.0452 -0.0476  0.0939
21790W        W37259   8.047   1.081   1.185  0.1297  0.1863 -0.0422
21791W        W37260  17.675   9.315   1.365  0.1747  0.1314 -0.1314
21792W        W37261  17.965   0.961  14.368  0.4766  0.0260 -0.2803
21793W        W37262   9.543  11.414  10.107 -0.0657 -0.4258 -0.3188
21794W        W37263  14.322  16.759   1.009  0.3014  0.1610  0.2510
21795W        W37264  10.438   1.144   0.230  0.2333  0.0349  0.0612
21796W        W37265   2.555   4.477  13.542 -0.3068 -0.1049  0.0305
21797W        W37266  10.399  12.813  12.332  0.1656  0.1593 -0.1066
21798W        W37267  12.109  14.040  15.405 -0.2048 -0.0327  0.0297
21799W        W37268   3.364  13.946  15.034  0.1013 -0.0109 -0.0320
21800W        W37269   3.353   7.244  15.271 -0.2060  0.0419 -0.0046
21801W        W37270   2.787   6.276   5.320  0.1940 -0.3988  0.0275
21802W        W37271   5.745   3.140   4.335  0.0247 -0.0121 -0.1650
21803W        W37272   3.249  15.842   1.491  0.0498 -0.0571 -0.0665
21804W        W37273   7.394   9.741   4.035  0.0995  0.0000  0.0388
21805W        W37274  11.509  11.598   4.336 -0.2519  0.2088  0.1213
21806W        W37275  15.992   8.124  13.818 -0.2396 -0.3124  0.0837
21807W        W37276  15.245  14.770  12.421  0.2495  0.3117  0.0933
21808W        W37277  13.901  10.073  11.854  0.1939 -0.2526 -0.2211
21809W        W37278   5.713   7.496  12.812  0.1702  0.3111  0.0338
21810W        W37279   9.876  15.315   3.051 -0.2869 -0.1451 -0.0905
21811W        W37280  13.142   7.533   4.418  0.2349 -0.0465  0.1454
21812W        W37281   1.490   3.954  12.125 -0.0179 -0.1188  0.1405
21813W        W37282  17.183   2.177  15.752  0.0948  0.1518  0.1523
21814W        W37283  12.177   4.284  14.886 -0.0581 -0.2758 -0.0247
21815W        W37284  14.823  14.284  15.037 -0.1396  0.0755 -0.2596
21816W        W37285  16.205  15.481   5.400 -0.1004  0.3962 -0.2086
21817W        W37286   3.021   9.676  15.366  0.0464 -0.0221  0.2025
21818W        W37287   7.111   0.330  13.167 -0.1886  0.0818  0.1661
21819W        W37288  11.674  11.306   4.720 -0.0525 -0.0821  0.2648
21820W        W37289  11.898   0.069   4.731  0.0148  0.1964 -0.0615
21821W        W37290   1.221  15.500   2.774 -0.1864  0.2120  0.0010
21822W        W37291   1.228   3.287   6.154 -0.3690  0.2031 -0.1907
21823W        W37292   3.126  10.406  16.091  0.1187 -0.1344  0.0735
21824W        W37293   1.145   6.264  15.219 -0.1653 -0.1559 -0.2015
21825W        W37294   9.405   4.442   1.577 -0.2312  0.1385  0.0298
21826W        W37295  10.331  13.064   0.640  0.2494 -0.2150  0.0050
21827W        W37296   5.025  18.043  14.732  0.0593  0.1080 -0.1965
21828W        W37297   3.548  11.099  15.014  0.0226 -0.3173  0.0215
21829W        W37298  13.784  15.377  13.292 -0.0104 -0.1868 -0.2631
21830W        W37299  13.903  14.385  11.657 -0.0903 -0.1383  0.0519
21831W        W37300   5.172   0.434  14.681  0.1319  0.4170  0.0811
21832W        W37301   0.692   2.220  16.043 -0.3892 -0.1205  0.3506
21833W        W37302   7.152  16.072   4.689  0.2118  0.1768  0.0024
21834W        W37303   9.609  15.751  10.456 -0.2248  0.3644 -0.2537
21835W        W37304  12.886   6.717  15.361 -0.0402  0.1754 -0.0906
21836W        W37305   7.822   1.327   3.600  0.0970  0.1187  0.2715
21837W        W37306  16.382  10.880   0.052 -0.0150 -0.1290 -0.2632
21838W        W37307  17.373  17.030   1.531 -0.1225 -0.0912 -0.1494
21839W        W37308   7.470   5.909   4.175  0.0185 -0.4556 -0.0531
21840W        W37309  16.508   2.756  10.661  0.1574  0.1957 -0.1440
21841W        W37310  10.910   2.255  14.176 -0.0573  0.0820  0.1127
21842W        W37311   5.043  13.265  13.268 -0.3279  0.0743  0.1807
21843W        W37312  17.497   3.759  11.103 -0.1093 -0.3840 -0.2577
21844W        W37313  13.384   1.865   4.546  0.4327  0.0218 -0.0261
21845W        W37314   3.157  15.961   2.869  0.2843 -0.5839  0.2950
21846W        W37315  13.356   6.441   1.598  0.0856 -0.2830 -0.2579
21847W        W37316   7.872   3.021  14.787  0.3045 -0.2876 -0.1309
21848W        W37317   7.718   0.795   3.713 -0.1587  0.0901  0.0806
21849W        W37318  12.337   8.606  14.866  0.0947  0.1218  0.1673
21850W        W37319  15.938  12.871  15.529 -0.1529  0.2698 -0.3143
21851W        W37320   9.914   7.551   4.503 -0.0406 -0.1638  0.1772
21852W        W37321  15.633  11.552  12.740 -0.1454  0.0117 -0.0675
21853W        W37322  12.252   3.410   4.665  0.1484 -0.2886 -0.0533
21854W        W37323  10.296   1.017  12.783  0.2366 -0.0017 -0.1021
21855W        W37324  16.334   3.414   1.540  0.1475  0.0355  0.2034
21856W        W37325  17.064   1.784  13.287  0.0074  0.0905  0.1690
21857W        W37326  13.544  16.664  14.705  0.0188  0.2045  0.0980
21858W        W37327  16.121  11.973  11.977  0.0220  0.2189 -0.1495
21859W        W37328  12.762   9.331  14.353 -0.0760  0.1416  0.2795
21860W        W37329   6.999   0.036   6.012  0.2748  0.1426  0.0287
21861W        W37330  11.282   5.887   0.018 -0.0310  0.0885 -0.1581
21862W        W37331  10.423  12.896  11.494  0.1971 -0.0301 -0.2481
21863W        W37332  16.484   9.983   5.015  0.0726  0.3881  0.3265
21864W        W37333  10.221  11.532  10.932  0.1028 -0.1243 -0.0272
21865W        W37334  12.665  15.533   5.625 -0.1261  0.0821  0.1102
21866W        W37335   1.655  14.104  14.012  0.0997  0.0613 -0.3429
21867W        W37336  11.213  14.954  15.403 -0.2962  0.1723 -0.0909
21868W        W37337   0.805  12.927  13.839 -0.0960  0.0299 -0.3013
21869W        W37338   2.243  15.701   3.388  0.2575  0.0171 -0.0628
21870W        W37339  12.053   6.351   1.124 -0.0489  0.0575  0.0229
21871W        W37340  12.799  10.244  13.439  0.0836 -0.0337  0.2824
21872W        W37341   4.048  17.794   0.203  0.0935 -0.0529  0.0177
21873W        W37342   1.724   9.058   6.320  0.3341  0.0684 -0.3417
21874W        W37343  17.108   1.192   3.594  0.2489 -0.0369 -0.1830
21875W        W37344   5.330  18.015  15.153  0.0934  0.1213  0.1009
21876W        W37345   8.213   6.960  14.947 -0.0031 -0.3827 -0.0660
21877W        W37346  11.138  15.542   3.152  0.0477  0.0280 -0.2927
21878W        W37347   9.767   0.480   2.303  0.0403  0.2030 -0.2031
21879W        W37348   1.012  16.007   2.885 -0.0343 -0.1350  0.3951
21880W        W37349  16.156  16.545  12.757  0.2269  0.1608  0.0491
21881W        W37350  10.203  16.210  10.896  0.2372 -0.1336 -0.0069
21882W        W37351  15.927  13.331   5.203  0.1058  0.0585  0.1489
21883W        W37352  12.891  15.567   2.767  0.0222 -0.4629 -0.0664
21884W        W37353   1.748  12.784  11.251 -0.1142 -0.3687  0.1865
21885W        W37354   9.101   4.764   5.071  0.2051 -0.0341 -0.1829
21886W        W37355  10.471   4.282   1.297  0.0554 -0.1752 -0.2712
21887W        W37356   2.459  13.731  14.833 -0.0515 -0.1495  0.0263
21888W        W37357   0.142   1.661  11.517 -0.2775  0.0980  0.0794
21889W        W37358  10.344  17.481  14.868 -0.0968  0.0747 -0.1634
21890W        W37359   1.860   3.537  12.199  0.1015  0.0009 -0.0924
21891W        W37360  13.894   0.519  11.599 -0.3912 -0.1325 -0.1676
21892W        W37361   7.152   8.335  11.355  0.3432 -0.1139  0.1915
21893W        W37362   9.090  15.215   0.883  0.1334 -0.0051 -0.1815
21894W        W37363   6.833  10.433  11.349  0.0977 -0.1600  0.0736
21895W        W37364  12.531  16.803   2.124  0.0546  0.3423  0.0394
21896W        W37365  14.370   3.704   5.201  0.0491  0.0921  0.1035
21897W        W37366  17.356   6.978   1.708 -0.0399  0.1364 -0.1803
21898W        W37367   2.101  11.458  12.327 -0.3241  0.2775 -0.2563
21899W        W37368   0.553   4.405  12.137  0.2667  0.1994  0.0702
21900W        W37369  10.196   8.695  15.023  0.1172  0.2043  0.0629
21901W        W37370  13.149   6.008  12.546  0.3472  0.0189  0.0392
21902W        W37371   5.489  13.290  13.651  0.0602  0.0664 -0.2276
21903W        W37372  16.458  11.258  12.910  0.1102  0.0394  0.0199
21904W        W37373   8.815   4.872   4.057  0.1879  0.0160  0.0566
21905W        W37374   8.760  14.316  11.717 -0.0153 -0.0728 -0.1132
21906W        W37375  17.959  15.639   0.901  0.2273  0.4038 -0.2086
21907W        W37376   0.701  15.868   1.657  0.0089  0.1219  0.1587
21908W        W37377   2.208   9.029   0.879  0.1754  0.1339  0.2994
21909W        W37378  11.427   8.878   1.625  0.1078 -0.2481  0.0718
21910W        W37379   4.288   4.640  13.564  0.1743  0.1221 -0.2143
21911W        W37380   4.767  18.139   4.564  0.0361 -0.1388 -0.0240
21912W        W37381   9.286   5.360   1.869  0.2462  0.0811  0.4035
21913W        W37382   8.043  10.842   4.167 -0.1577 -0.0994  0.1859
21914W        W37383  15.764   8.115   4.241 -0.1096 -0.0506  0.0746
21915W        W37384   5.905  12.881  15.453 -0.0651  0.0589 -0.0453
21916W        W37385  11.550  11.781  14.377  0.2829  0.1411  0.4131
21917W        W37386  17.650   2.093   0.616 -0.0120  0.1454  0.3260
21918W        W37387   2.025   8.052   1.100  0.1360 -0.0022 -0.3541
21919W        W37388   0.392   1.424   4.945  0.1814  0.1475 -0.0268
21920W        W37389   6.370   1.960  10.710  0.0291  0.0566  0.0182
21921W        W37390  17.291   9.909  10.828 -0.0619  0.0133  0.0241
21922W        W37391  17.016  10.382  11.509  0.2895 -0.0949  0.0836
21923W        W37392   8.919  14.593   1.623  0.0376  0.0825 -0.0229
21924W        W37393  11.576   1.186   1.219  0.0207  0.2308 -0.1626
21925W        W37394   2.632   9.149   2.525 -0.0026 -0.0649  0.2307
21926W        W37395   4.193   4.129   1.950  0.1291  0.0229 -0.0306
21927W        W37396   7.197   9.988   3.111  0.0586 -0.0756 -0.0573
21928W        W37397   0.563   6.605  11.728  0.1701 -0.1047  0.1643
21929W        W37398   1.111  15.551   0.610 -0.1122  0.0333 -0.2505
21930W        W37399  15.961  11.797  11.440  0.0564  0.1962  0.1458
21931W        W37400   9.305  18.004  11.876  0.1327  0.4265 -0.1064
21932W        W37401  16.461  15.006   2.806  0.2088  0.0944  0.2887
21933W        W37402  15.433   4.075   0.713 -0.0039  0.0167 -0.2250
21934W        W37403   3.263   9.948   1.541  0.0583 -0.0397 -0.0870
21935W        W37404   2.033  15.416  15.134  0.1199 -0.4060  0.0620
21936W        W37405   9.139   9.607  15.346 -0.1140  0.0432  0.0047
21937W        W37406   5.617   9.544  14.102 -0.1046 -0.2128  0.1344
21938W        W37407  13.036   0.292  12.459  0.2024  0.0824 -0.0981
21939W        W37408   9.204  15.824  14.881 -0.0750 -0.0494 -0.3433
21940W        W37409   9.590  18.070  11.149 -0.0510  0.1785 -0.0005
21941W        W37410   7.981  16.212   2.445 -0.1305 -0.1323 -0.1314
21942W        W37411  10.496   1.993   1.981  0.2321 -0.3509 -0.0759
21943W        W37412   1.388   2.025   5.269 -0.0848  0.1452 -0.3237
21944W        W37413   2.493   1.893   0.161  0.1553  0.2240  0.1475
21945W        W37414  14.199   1.872  10.732  0.1845  0.4177  0.1353
21946W        W37415   1.322   7.004  13.056  0.0326 -0.1047 -0.0122
21947W        W37416  12.104   8.951   3.981 -0.0972 -0.0439 -0.1249
21948W        W37417   8.045  12.038  14.377 -0.1691 -0.0771 -0.3406
21949W        W37418  16.545   6.018   4.604 -0.0068  0.0647 -0.2167
21950W        W37419   2.744  17.092  14.365  0.0370  0.1723 -0.1066
21951W        W37420  13.578  14.537  14.474 -0.1383 -0.0278 -0.2913
21952W        W37421  13.916  11.548  12.012  0.1364  0.1528 -0.0558
21953W        W37422  11.264   1.957   2.046  0.0398  0.2085 -0.0844
21954W        W37423   0.047   9.138  11.251  0.1881  0.1253 -0.2671
21955W        W37424  11.038   3.506   3.210 -0.4025 -0.0062  0.0758
21956W        W37425  11.880  18.238  13.753  0.4036 -0.1261 -0.2682
21957W        W37426  11.919   8.768   3.189  0.3976  0.0006  0.0310
21958W        W37427   2.406  12.674  12.976  0.2288  0.1086  0.1642
21959W        W37428   7.957  13.822  13.213  0.3027  0.0434 -0.0971
21960W        W37429   2.144   2.975   2.379  0.1866  0.0803 -0.2769
21961W        W37430   2.094  17.562   2.217 -0.1528 -0.0616 -0.0222
21962W        W37431  13.695  15.748   2.044 -0.0226 -0.1107 -0.0674
21963W        W37432   7.243  10.136  13.125  0.4404 -0.2122 -0.3613
21964W        W37433   1.496  12.969  13.056 -0.1182  0.0273 -0.0532
21965W        W37434   8.467   9.577  13.668  0.1121 -0.2425 -0.0491
21966W        W37435  13.429  14.504  11.406  0.1261  0.0308 -0.0021
21967W        W37436  17.730   0.102  14.668  0.0353  0.2806  0.0142
21968W        W37437   7.636  14.906  12.327  0.0171 -0.3224  0.2232
21969W        W37438   5.131  13.009   4.584 -0.3137 -0.4077 -0.1045
21970W        W37439  12.792  15.838  14.260 -0.0307  0.0344 -0.1934
21971W        W37440  16.165   6.734   3.922 -0.3957  0.1155 -0.1403
21972W        W37441  11.783   8.431   1.116 -0.3276 -0.0877  0.2775
21973W        W37442   5.885   1.268   4.220  0.2493  0.6010 -0.1693
21974W        W37443  14.190  18.275   5.696 -0.1943 -0.1130 -0.0809
21975W        W37444   0.043   8.937  10.440 -0.1891  0.0356  0.0324
21976W        W37445  13.379  14.015  16.044 -0.1652 -0.1360 -0.2211
21977W        W37446   6.074   8.739  14.459  0.0646  0.0275  0.1044
21978W        W37447   7.952  10.886   3.621 -0.1817 -0.0912 -0.3721
21979W        W37448  13.257   2.291  12.903  0.0720  0.0363 -0.0784
21980W        W37449  14.369  15.823   0.873 -0.1255 -0.0818  0.1519
21981W        W37450  15.613  11.975   1.661  0.0782  0.4986  0.0544
21982W        W37451   7.292   5.436   4.569  0.1757 -0.1723  0.3008
21983W        W37452   1.811  13.812   2.293  0.3032  0.0648  0.3376
21984W        W37453   4.324  12.240   2.390 -0.2683 -0.0247  0.2538
21985W        W37454   6.083   2.852  14.638  0.2112 -0.0599  0.1057
21986W        W37455  11.272  12.966  14.818 -0.0094 -0.2322 -0.1119
21987W        W37456  14.190   9.784  13.541 -0.2944 -0.0852 -0.3543
21988W        W37457  13.489   8.181   4.886 -0.1416  0.1266 -0.0034
21989W        W37458   2.431  15.584  14.700  0.1722  0.1300 -0.0854
21990W        W37459  13.535  12.684   1.399 -0.0027 -0.0751  0.2146
21991W        W37460  15.364  14.954  15.613 -0.2110 -0.0342  0.3032
21992W        W37461   3.550  15.541  12.410  0.0037  0.0278 -0.0021
21993W        W37462  10.292   9.158  11.352 -0.3227  0.1290 -0.1552
21994W        W37463   2.130  10.527  12.516 -0.1372  0.0486  0.0426
21995W        W37464   4.433   4.300   3.968  0.2612  0.0586  0.1235
21996W        W37465   4.191  12.820   3.782 -0.0526 -0.1610 -0.1770
21997W        W37466  13.628   1.870  12.286  0.2766  0.0733 -0.2005
21998W        W37467  14.316  14.144  11.535 -0.1783  0.0375 -0.2521
21999W        W37468   6.067   2.753   5.511 -0.0302 -0.2016 -0.0212
22000W        W37469  15.013  14.389   0.081 -0.1975  0.0232  0.0046
22001W        W37470  11.688   1.894   3.146 -0.0440  0.0340 -0.2608
22002W        W37471  12.196  10.385   5.308  0.0541  0.0240  0.2078
22003W        W37472   7.460   3.008   2.176 -0.0135 -0.1199  0.1315
22004W        W37473  14.804   4.413   5.144  0.0273  0.0244 -0.1518
22005W        W37474   8.856   1.675  13.299  0.1470 -0.1964 -0.0789
22006W        W37475  14.277   4.350   4.924  0.3008  0.3922 -0.0851
22007W        W37476   4.007   8.546   5.339 -0.1630  0.0365  0.0860
22008W        W37477  12.573  12.205  13.826 -0.2723 -0.2760  0.0783
22009W        W37478  10.694  11.105   4.764 -0.1189  0.1104 -0.2849
22010W        W37479   8.497   5.493  10.587 -0.3421  0.0501 -0.1634
22011W        W37480  12.709   3.822  12.956  0.0431 -0.0495 -0.3722
22012W        W37481   7.007   1.984  12.118  0.2300 -0.0363 -0.0510
22013W        W37482  13.381  15.391  13.665  0.0398 -0.0533 -0.0655
22014W        W37483   6.125  14.115  13.892 -0.1225  0.1671  0.0286
22015W        W37484  14.612  13.567  14.603 -0.0911 -0.1722 -0.3000
22016W        W37485   4.852  14.168   0.426 -0.0121  0.5309  0.0017
22017W        W37486   0.883   7.940  14.951 -0.1619 -0.2805  0.0922
22018W        W37487   4.238  16.120   3.210  0.1643 -0.1534 -0.1610
22019W        W37488   0.801  15.811  16.072 -0.0472  0.2098 -0.0986
22020W        W37489  18.262   5.542   2.609  0.1242 -0.1550 -0.0373
22021W        W37490   3.406  12.739  13.826  0.2942 -0.4421  0.1830
22022W        W37491   3.634   2.870   3.068 -0.0692 -0.0266  0.0258
22023W        W37492  10.943  14.056  14.708  0.3425  0.1908  0.0688
22024W        W37493   8.217   4.140   1.199 -0.3437 -0.0960 -0.0404
22025W        W37494   7.404  11.623   0.277 -0.3314 -0.0414  0.0127
22026W        W37495   8.873  16.125   1.228  0.2044  0.0573  0.0042
22027W        W37496  10.296  15.412   2.760 -0.1163  0.0559  0.1078
22028W        W37497   3.549   7.609   3.795  0.1856 -0.0056 -0.0980
22029W        W37498   2.284  16.987   1.758  0.0577  0.0568  0.2080
22030W        W37499   5.652  17.369  11.830 -0.0675 -0.2162  0.0245
22031W        W37500  11.732   4.228   3.836 -0.0671 -0.0644 -0.1469
22032W        W37501   7.637  13.001  15.425 -0.2702 -0.0114 -0.1064
22033W        W37502   7.763   7.096   0.459  0.2082  0.3031 -0.0258
22034W        W37503  15.435   3.861  13.012 -0.0196  0.4289 -0.2385
22035W        W37504  17.049  17.008   1.197  0.0513  0.1417 -0.1422
22036W        W37505  14.240   3.526  15.627  0.3793 -0.0347 -0.2052
22037W        W37506  11.315   3.464   2.577  0.3433 -0.0907 -0.0580
22038W        W37507   2.079  17.386   2.690 -0.2859 -0.0517 -0.0509
22039W        W37508  13.693  15.589   0.014 -0.4897  0.2605  0.3337
22040W        W37509   5.793   2.809  15.871 -0.2561 -0.0510  0.1250
22041W        W37510   9.579  17.872   5.330 -0.1057 -0.2989  0.1148
22042W        W37511   9.246  16.794   3.800  0.0411  0.0652  0.0762
22043W        W37512   0.952   8.684   0.188 -0.5842 -0.0903 -0.1329
22044W        W37513   2.001   2.790  13.189 -0.1554 -0.2745  0.2974
22045W        W37514  12.929  16.171   1.830  0.0753 -0.0792  0.0115
22046W        W37515  13.748  16.459   1.094 -0.1391  0.1372  0.0013
22047W        W37516   7.844   2.586   4.203 -0.2904 -0.1526  0.2971
22048W        W37517   2.660   8.005  16.012  0.0731 -0.1647 -0.1970
22049W        W37518  11.938   5.847   2.833 -0.1472 -0.1066 -0.1751
22050W        W37519  15.077  14.326   0.611 -0.2940 -0.1112 -0.3946
22051W        W37520  17.597   2.498   0.368  0.0788 -0.0291  0.1372
22052W        W37521  12.534   7.078  15.228  0.0361 -0.2562  0.1156
22053W        W37522  11.677   0.356   1.706  0.1380 -0.1507  0.1090
22054W        W37523   5.438   6.745   4.305 -0.0053 -0.1018  0.3350
22055W        W37524   1.739  14.479   3.628  0.5129  0.0748  0.1285
22056W        W37525   2.995  12.076   4.369  0.2256  0.1921  0.5112
22057W        W37526   8.551   9.249   3.333 -0.1034  0.0153 -0.0181
22058W        W37527   7.433   9.369  13.240 -0.2641  0.0930 -0.2809
22059W        W37528   4.977   0.391   3.186 -0.0622 -0.2890 -0.0277
22060W        W37529   0.283   6.303   3.201  0.0320 -0.0216 -0.0009
22061W        W37530   3.093   5.216  13.379  0.0869  0.3779 -0.0004
22062W        W37531   9.931  10.604  13.278  0.1650 -0.0581 -0.0516
22063W        W37532   7.110   9.323   2.686 -0.0191 -0.1110 -0.1242
22064W        W37533  17.946   5.271  15.397 -0.1510 -0.4359  0.3456
22065W        W37534  14.730  16.466  14.900 -0.0997  0.1815  0.0361
22066W        W37535  18.280   8.494   5.257 -0.1648  0.3459 -0.1510
22067W        W37536  14.816  14.154  11.012  0.0633  0.1403 -0.0370
22068W        W37537   0.820   4.111   0.252 -0.1628  0.0079  0.2852
22069W        W37538   9.577   4.524  10.596 -0.1859  0.1685  0.3445
22070W        W37539   1.444   5.658  14.579 -0.3951  0.1487  0.2513
22071W        W37540   9.955   9.308  13.614  0.1466  0.1583 -0.1911
22072W        W37541   9.383   6.241  11.881  0.1293  0.0662  0.1226
22073W        W37542  11.883   0.943   3.674  0.1092  0.5177 -0.0436
22074W        W37543   9.232   0.354   5.137  0.0669 -0.0275 -0.2381
22075W        W37544   4.200   4.025  13.985  0.0844  0.1574 -0.0410
22076W        W37545  10.084  15.843  15.798 -0.3705  0.0906 -0.1093
22077W        W37546   9.496   9.088   2.049  0.0438  0.2972 -0.1028
22078W        W37547   3.749   2.793  10.682  0.1608  0.0232 -0.0255
22079W        W37548   6.195  12.851   2.983 -0.1602  0.1998 -0.0508
22080W        W37549   6.689  10.039   0.928 -0.0870  0.0935 -0.0664
22081W        W37550  17.264  16.072   0.771 -0.1442 -0.0063 -0.0164
22082W        W37551   2.931   3.794  14.540  0.3571  0.3096 -0.0786
22083W        W37552   5.797  15.266   4.400 -0.0238 -0.1231  0.0265
22084W        W37553   0.718  16.132  11.485  0.1961  0.2811  0.1278
22085W        W37554  15.826   6.017   1.584 -0.0386  0.1152  0.3276
22086W        W37555   8.393   1.090   4.946 -0.1551  0.2704  0.0208
22087W        W37556   0.061  17.718   4.587  0.1463 -0.1292  0.1092
22088W        W37557  13.508   9.741  11.958 -0.2280  0.0410 -0.0246
22089W        W37558   9.136   7.092  15.290 -0.0481  0.1797 -0.0150
22090W        W37559  15.027   5.499  13.548  0.3493 -0.1483  0.0601
22091W        W37560   3.171  16.154  10.560 -0.0161 -0.1219 -0.2187
22092W        W37561  11.077   2.799  13.314 -0.2533  0.0361 -0.0042
22093W        W37562   2.961  11.539   3.143  0.0981 -0.0592 -0.0273
22094W        W37563   4.050   4.813   4.662 -0.0423 -0.0209  0.2621
22095W        W37564  12.303   9.364   1.954  0.2613  0.3704  0.3011
22096W        W37565   3.797   4.741  12.184  0.3159 -0.1101 -0.0726
22097W        W37566  12.975   3.080   0.744 -0.3445 -0.2863  0.0966
22098W        W37567   5.477   4.513   0.535  0.1825  0.0023  0.2243
22099W        W37568  15.023   0.480  13.845 -0.1051  0.1243  0.1467
22100W        W37569  10.565  11.843  14.269  0.4442 -0.3236  0.2794
22101W        W37570   4.146  16.857   2.207 -0.1666  0.1829 -0.0017
22102W        W37571   9.210   1.971  14.131  0.3708  0.1560  0.0061
22103W        W37572   6.254  13.699  11.266 -0.2581  0.1141  0.2043
22104W        W37573  11.550  12.067   5.546  0.0816  0.2500  0.1829
22105W        W37574  13.478   3.139   0.736 -0.1443  0.1548  0.1954
22106W        W37575  17.645  17.403  14.018 -0.1274 -0.1119 -0.1294
22107W        W37576   3.746   4.273   1.184 -0.0541  0.2717 -0.1610
22108W        W37577   7.424   6.158  15.780  0.0420 -0.2157 -0.3447
22109W        W37578   8.567   8.248   3.139  0.0571 -0.3931 -0.1720
22110W        W37579   9.060   6.598  10.119 -0.0704 -0.1673 -0.2163
22111W        W37580   4.493   4.802  11.182 -0.1364  0.2059  0.0417
22112W        W37581   7.108   6.827  11.125  0.1507  0.0099  0.0533
22113W        W37582  10.689   7.202  15.349 -0.1414  0.1147  0.0329
22114W        W37583   3.808   7.318   2.120  0.1742 -0.3216  0.2802
22115W        W37584   8.464  11.275  14.807  0.2110 -0.1680 -0.0171
22116W        W37585   1.676   0.791  15.504  0.2749 -0.1566 -0.0177
22117W        W37586  10.706  13.427   4.650  0.1825  0.0999  0.0338
22118W        W37587   2.070   2.898  10.748  0.0528 -0.0950  0.1114
22119W        W37588   6.617  16.958   3.111  0.1519  0.1296  0.2165
22120W        W37589  12.815   1.429  14.390  0.1804 -0.0449 -0.3154
22121W        W37590  12.110   6.760   4.298  0.2020 -0.4216  0.1206
22122W        W37591  18.059  10.517  13.132  0.0477 -0.1301  0.0663
22123W        W37592   4.697   7.289   2.730 -0.1748  0.3539 -0.1018
22124W        W37593   8.130  14.704  12.046 -0.1860  0.0152  0.2803
22125W        W37594   7.126  11.413   1.940 -0.0892 -0.2555 -0.3261
22126W        W37595  13.560  10.375  13.553 -0.0276  0.0549 -0.1307
22127W        W37596   7.734   1.538   3.108  0.2684  0.0603 -0.0604
22128W        W37597  10.122  11.726   3.374  0.2258 -0.1734  0.0223
22129W        W37598   5.803   7.063   4.079  0.0415  0.2107  0.1698
22130W        W37599   5.965   6.799  14.380 -0.3466 -0.0965 -0.3185
22131W        W37600   4.061  14.963   2.348 -0.3292  0.3567 -0.1562
22132W        W37601   8.689  16.507  15.313 -0.1691 -0.0854  0.2665
22133W        W37602   8.775  14.413  15.471  0.0211 -0.0629 -0.0573
22134W        W37603  12.746  15.075   0.961  0.1070 -0.0312  0.4581
22135W        W37604   7.949   4.964   0.586 -0.0854 -0.4141 -0.3675
22136W        W37605  13.956  16.788   3.104  0.1932  0.4415  0.2251
22137W        W37606  18.076   1.653   1.124  0.2370 -0.0890 -0.0658
22138W        W37607  11.015  17.272   0.992  0.1130 -0.0672  0.3623
22139W        W37608  11.469   3.694  11.458  0.4036  0.1770  0.0732
22140W        W37609  10.309   1.808   2.488  0.1788  0.0191  0.0385
22141W        W37610  17.759   2.311  14.170 -0.0125 -0.1528  0.2037
22142W        W37611  11.936  13.506   3.160 -0.0488 -0.1374 -0.0514
22143W        W37612   6.643   1.793   2.677  0.0105  0.0069  0.0597
22144W        W37613   1.541   3.554   3.094  0.3527  0.2805  0.2383
22145W        W37614   3.137  13.180  12.698 -0.0437  0.0926 -0.3970
22146W        W37615  13.880  11.703  16.003  0.1366 -0.0488  0.0040
22147W        W37616   1.981  11.263  15.097  0.3072 -0.2300 -0.0878
22148W        W37617   5.643   7.883   1.213  0.1679  0.1588 -0.0141
22149W        W37618  13.163   7.915  13.597  0.6271 -0.2837  0.0198
22150W        W37619  14.418  12.088   6.028  0.3359  0.1709 -0.1777
22151W        W37620  10.562  12.018   0.247 -0.1208  0.2400  0.0557
22152W        W37621  12.343  10.291  16.047  0.0541  0.2833  0.0572
22153W        W37622   9.892   0.204  14.655 -0.0879 -0.1889  0.1374
22154W        W37623  17.764  13.290  13.248 -0.3067 -0.0455  0.1026
22155W        W37624   8.409   8.307  15.735 -0.1493 -0.0680 -0.0224
22156W        W37625   0.526  13.549   0.202 -0.2451 -0.1372  0.1081
22157W        W37626  16.503   6.795   3.109 -0.0022 -0.0063 -0.0978
22158W        W37627   7.619  11.712   3.620 -0.1420 -0.1915 -0.0539
22159W        W37628  16.296   9.769  13.964 -0.1445 -0.0772 -0.0717
22160W        W37629   6.874  10.921  12.686  0.0026 -0.0119 -0.0833
22161W        W37630   0.972   5.517  13.311  0.4159  0.0746  0.0646
22162W        W37631   2.445  14.198   0.074 -0.0780  0.4630 -0.0984
22163W        W37632  12.474  13.114   1.857  0.1265  0.1789  0.1796
22164W        W37633   5.862   0.980   5.825  0.0734 -0.1710  0.1450
22165W        W37634  15.759   0.956  11.849 -0.1921  0.2220  0.2794
22166W        W37635  18.016   3.269   0.943 -0.0172 -0.2089  0.0205
22167W        W37636  16.984  12.571  14.007  0.0809 -0.1052 -0.5323
22168W        W37637   1.077   4.400  16.042 -0.0244 -0.1321 -0.0880
22169W        W37638  14.321  11.909   0.082  0.0516 -0.0872 -0.1456
22170W        W37639   6.173   5.103   4.438 -0.1220 -0.2027 -0.1173
22171W        W37640  13.555   3.314  14.379 -0.0153  0.1108  0.0509
22172W        W37641  12.499  17.968   1.465 -0.0758  0.2406 -0.2324
22173W        W37642   0.324  18.172   2.745 -0.1350 -0.1320  0.1924
22174W        W37643  15.250  18.248  10.578  0.3247  0.1198  0.0650
22175W        W37644   8.985  13.381  15.448  0.0280  0.1057  0.0461
22176W        W37645   2.459   4.251   0.807 -0.0640  0.0572 -0.3397
22177W        W37646   3.973  10.192  14.863 -0.1933  0.1486 -0.0348
22178W        W37647   6.220  14.317   3.308  0.0085 -0.1229  0.0402
22179W        W37648   5.206   0.240  15.230  0.0982 -0.2188  0.0623
22180W        W37649   8.557  14.627   2.057 -0.0876  0.4827 -0.1814
22181W        W37650  14.334   8.218  12.106 -0.0901  0.0411 -0.2861
22182W        W37651  17.767   8.235   5.203 -0.0725 -0.0960 -0.0471
22183W        W37652   8.297  13.827   0.013 -0.3250 -0.0831  0.0452
22184W        W37653   5.537   3.740  12.649  0.1437  0.1269  0.1014
22185W        W37654  17.355  11.491   3.595 -0.0882  0.2606  0.1586
22186W        W37655  16.845   9.256   0.011  0.0077  0.3510 -0.4049
22187W        W37656   2.509  13.958   4.154 -0.0836  0.2103 -0.0520
22188W        W37657   7.677   7.133   2.779 -0.0964  0.0533 -0.1208
22189W        W37658  12.287  15.599   2.043 -0.2281  0.0161 -0.1958
22190W        W37659   5.006   2.855  14.536  0.3261  0.2650 -0.0940
22191W        W37660  16.686   5.510  13.397 -0.1412 -0.0208 -0.2331
22192W        W37661  10.921   6.070  13.391  0.0094  0.1411  0.1603
22193W        W37662   8.358  10.393  14.649 -0.3732  0.1257  0.2030
22194W        W37663  11.447   9.004   0.763 -0.0816 -0.0181 -0.2398
22195W        W37664   7.344  18.010   2.946  0.1133  0.1149  0.0821
22196W        W37665  16.255   0.440   1.903 -0.1480  0.2329  0.4124
22197W        W37666   7.386   5.300   3.874 -0.1577  0.0114  0.0835
22198W        W37667   9.027   6.232   4.954  0.1425  0.2333  0.3719
22199W        W37668  14.946  17.311   2.762  0.2634 -0.1491  0.1778
22200W        W37669  11.771  12.300  12.040 -0.1460  0.0151 -0.0849
22201W        W37670  17.170  16.118  12.810 -0.1231 -0.0997 -0.0802
22202W        W37671  14.157  13.425  10.716  0.0661 -0.0506  0.0738
22203W        W37672  12.638   3.315  11.787  0.0880 -0.2509 -0.0661
22204W        W37673   5.679   8.671  10.590 -0.4605 -0.1425  0.0619
22205W        W37674   6.186   6.951   9.751 -0.2727 -0.2179  0.1006
22206W        W37675  15.481  12.924   4.403 -0.0218  0.1424 -0.5140
22207W        W37676  12.093  14.471  13.468 -0.0902  0.0840 -0.0189
22208W        W37677  16.930   1.053   2.482 -0.1020 -0.3380  0.0022
22209W        W37678   1.679  14.822  15.615  0.1177 -0.2136  0.1514
22210W        W37679   1.414  14.267  14.629  0.0752 -0.0693 -0.0978
22211W        W37680  17.403   5.550   2.311  0.1238 -0.0774  0.0067
22212W        W37681   3.255   1.921  12.925 -0.3024 -0.0283 -0.2290
22213W        W37682   0.289  10.087   3.359 -0.1341  0.0075  0.1819
22214W        W37683   2.737   4.951   2.973  0.0259 -0.3042  0.1664
22215W        W37684  15.200   4.231   4.092 -0.2625 -0.0124  0.1650
22216W        W37685  10.775  17.760   1.081 -0.0149 -0.0539  0.0379
22217W        W37686  14.367   7.152  13.432 -0.0975 -0.0764 -0.2132
22218W        W37687  17.980   5.071  14.612  0.1747 -0.1234  0.0280
22219W        W37688   0.173  17.224   2.668  0.0569 -0.0553 -0.0273
22220W        W37689   5.087   0.779   0.460 -0.0205 -0.0965 -0.0991
22221W        W37690   9.375  15.325   4.181 -0.0232 -0.5509 -0.1644
22222W        W37691  16.334   9.004  14.149 -0.1148  0.0845  0.2529
22223W        W37692  13.446  16.643   5.918 -0.0357  0.0789  0.3010
22224W        W37693   3.075  17.508   0.214 -0.0826 -0.2045  0.1967
22225W        W37694   7.679   1.255   0.158 -0.1944  0.0069 -0.0567
22226W        W37695   3.484   1.734   0.200  0.2647  0.0607  0.2464
22227W        W37696  12.553   8.212  15.191  0.0498  0.0305  0.0423
22228W        W37697   0.760   4.000   4.475  0.2223 -0.3491 -0.2461
22229W        W37698  16.004   1.740  15.110 -0.0446  0.3041  0.2334
22230W        W37699  15.845   8.445   0.364 -0.2897 -0.0046 -0.2882
22231W        W37700  12.526   9.133   5.152  0.2292 -0.1709  0.0126
22232W        W37701  14.787  17.266   5.246 -0.0858 -0.1258 -0.3135
22233W        W37702  10.690  14.708   0.284  0.1564 -0.0478 -0.0941
22234W        W37703  12.609  16.648  15.335  0.0083 -0.2059  0.1573
22235W        W37704   2.231   4.060   3.680  0.1034 -0.0089  0.0475
22236W        W37705   0.792   6.814   1.527 -0.0639  0.1843  0.2687
22237W        W37706   6.911   4.385   2.729  0.0741 -0.3309 -0.1336
22238W        W37707  11.210  12.274  10.883  0.1048  0.0610 -0.0861
22239W        W37708   1.808  12.335   6.055 -0.2481  0.2513  0.0598
22240W        W37709  17.624   4.481   3.232 -0.0267  0.0274 -0.1259
22241W        W37710   2.340   9.186  12.705  0.0824 -0.0251 -0.0608
22242W        W37711  16.776  12.860   3.551  0.0135 -0.0236 -0.0097
22243W        W37712  18.106   4.273   1.189 -0.1211  0.1533 -0.0425
22244W        W37713   7.206   0.762  10.728 -0.0634 -0.1336 -0.0793
22245W        W37714   5.556   5.473  15.852  0.2870 -0.1441 -0.1232
22246W        W37715   3.655  10.457  16.025  0.1005 -0.0210 -0.0041
22247W        W37716   9.718  10.653   4.520 -0.2568 -0.2559  0.0724
22248W        W37717  16.504  10.429  15.473 -0.0517  0.2220 -0.0144
22249W        W37718  10.895  11.991  15.674  0.1284 -0.0115 -0.0316
22250W        W37719   6.307  13.082   4.466  0.2782  0.0178 -0.1030
22251W        W37720   6.880  12.945   4.394 -0.0367  0.0733  0.1971
22252W        W37721   3.521   4.783   5.594 -0.1107 -0.0670 -0.2019
22253W        W37722  12.364   3.934   4.526 -0.0455 -0.0705 -0.2535
22254W        W37723   6.131  15.337   0.947 -0.1276 -0.0213 -0.0781
22255W        W37724  17.915  18.233   0.060 -0.0339 -0.0422 -0.0214
22256W        W37725  13.940  10.371  13.232 -0.0735 -0.2413  0.0772
22257W        W37726  14.441   3.879   0.410  0.0051 -0.2793 -0.1584
22258W        W37727  17.663  15.509   1.327 -0.1000  0.2091 -0.1925
22259W        W37728   0.205   7.115  15.371  0.1251  0.0544  0.0904
22260W        W37729   7.873   0.023   4.235 -0.3072  0.0944  0.1644
22261W        W37730  14.706   8.927  13.680  0.0150 -0.1822  0.0953
22262W        W37731   8.507   3.745   2.807 -0.1280  0.2043 -0.1611
22263W        W37732   3.839  13.415   1.554 -0.4283  0.1346 -0.0319
22264W        W37733  15.044   5.490   0.259 -0.3282 -0.0039  0.0415
22265W        W37734   8.249  16.483  12.539  0.2103 -0.0478 -0.2570
22266W        W37735   8.999   4.549  15.862  0.1858  0.0006  0.0376
22267W        W37736  10.066   8.337   3.332  0.1846  0.0391  0.2072
22268W        W37737  11.411  14.010  14.529  0.1167  0.1888 -0.0985
22269W        W37738  16.014  14.053   4.817 -0.0059 -0.2282 -0.2554
22270W        W37739   1.203  17.440  13.936  0.2671  0.0091 -0.5278
22271W        W37740   7.697  15.061  15.874  0.0975 -0.3199 -0.0255
22272W        W37741  10.707   1.686  14.283  0.0666 -0.1941  0.0860
22273W        W37742  10.499  11.491  12.372  0.3195 -0.0671  0.1707
22274W        W37743   2.170  16.091   0.785  0.0661 -0.0452 -0.0170
22275W        W37744   3.204  13.158  14.766 -0.0083 -0.1108 -0.0104
22276W        W37745   8.415   6.279  15.497 -0.3554  0.0646 -0.1206
22277W        W37746  11.034   0.199  12.094  0.0517  0.1489  0.0269
22278W        W37747  12.679  10.665  14.701  0.0302 -0.0180  0.2083
22279W        W37748   6.201  16.190   3.144  0.1599  0.1255  0.1470
22280W        W37749   1.293   4.984   0.129 -0.0231  0.1429  0.2345
22281W        W37750  14.612   8.950  15.823 -0.0341 -0.2571  0.0943
22282W        W37751   9.190   6.741   3.490 -0.0293 -0.5133 -0.0376
22283W        W37752  17.261   7.056  13.952 -0.1018 -0.0319  0.0490
22284W        W37753  10.199  14.004  10.062 -0.1311  0.0249  0.1156
22285W        W37754   6.644   7.870   1.265  0.0409 -0.0478  0.4265
22286W        W37755   6.998   5.084  13.265 -0.0054 -0.0435 -0.3178
22287W        W37756   4.317  14.641   1.184  0.3059 -0.2508 -0.0650
22288W        W37757  17.719  14.697   1.547  0.1325  0.0786 -0.1461
22289W        W37758   5.591  12.428   0.607 -0.0332 -0.1024 -0.1652
22290W        W37759   6.920   6.226   2.445  0.1731 -0.2325  0.1685
22291W        W37760  14.493   0.675  15.768 -0.2323  0.0577  0.0794
22292W        W37761   9.579  10.960   1.341 -0.0627  0.0885  0.2032
22293W        W37762   1.478  12.063   4.371 -0.2200  0.1234 -0.2365
22294W        W37763  10.496   7.440  15.774  0.1166  0.1488 -0.0562
22295W        W37764   1.036  11.015   2.413 -0.0724 -0.1965 -0.2233
22296W        W37765   0.376   9.371   2.599  0.0284  0.2336 -0.0674
22297W        W37766  12.075   3.154  14.850 -0.0042  0.1605  0.1154
22298W        W37767   2.432   0.528   4.838  0.0297 -0.1147 -0.2683
22299W        W37768   8.251  14.429  10.649 -0.0818 -0.1630 -0.1206
22300W        W37769   5.579   6.258  11.503  0.3094  0.1847 -0.0073
22301W        W37770   7.095  11.835  14.973 -0.0197 -0.0806 -0.1611
22302W        W37771  16.464  16.933   6.145  0.0953 -0.0435  0.3117
22303W        W37772   5.163   9.203  14.071  0.0172 -0.2335  0.3213
22304W        W37773  10.977   6.265   2.535  0.1818  0.2390 -0.0366
22305W        W37774   4.157  15.387  11.093  0.1891  0.3478  0.0621
22306W        W37775  14.853   0.579   3.339 -0.0952  0.0894  0.1954
22307W        W37776  13.995   4.683   2.244 -0.0585  0.1645  0.0247
22308W        W37777   5.223   0.140   5.464  0.2585 -0.0587  0.1263
22309W        W37778   4.192   1.519  13.510  0.0211 -0.3025 -0.2417
22310W        W37779   2.884  17.991  13.214  0.0921 -0.2146 -0.1059
22311W        W37780   6.897   4.313  14.875 -0.0142  0.2700  0.0070
22312W        W37781  12.066  16.279   5.276 -0.0541  0.1818  0.0729
22313W        W37782   7.201   2.730   1.727  0.1758 -0.3697 -0.0924
22314W        W37783   4.169   3.323   0.209 -0.0748  0.2404 -0.1781
22315W        W37784   7.254  11.106   3.009  0.0515  0.0176  0.0093
22316W        W37785   3.171  14.280   5.436 -0.2913 -0.0866  0.0929
22317W        W37786  10.485   7.720  14.930 -0.1084  0.2896 -0.2009
22318W        W37787   2.933  13.720  11.251  0.4203 -0.1448  0.0206
22319W        W37788   4.367   5.061  15.031  0.2929  0.1325  0.0221
22320W        W37789   6.705   5.783  11.622  0.0247 -0.0793  0.0468
22321W        W37790  17.739   1.403  14.081  0.2785 -0.2445 -0.0879
22322W        W37791  10.780   1.655  11.805 -0.1741  0.0549 -0.1177
22323W        W37792   9.857   9.243  14.223  0.0445 -0.3237  0.1424
22324W        W37793  13.565   1.790  13.020 -0.0217  0.0655 -0.0528
22325W        W37794  10.167   0.083   1.008 -0.1321 -0.0457  0.0610
22326W        W37795   0.087  12.873   0.864  0.0585  0.2118 -0.0373
22327W        W37796  13.039   9.152   3.407 -0.1412  0.1887 -0.1432
22328W        W37797  10.505   0.733  12.395  0.2592  0.0178 -0.0843
22329W        W37798  10.183  17.618   4.744  0.0687 -0.2597 -0.0708
22330W        W37799  12.718   6.394   2.585 -0.0291  0.1446 -0.1518
22331W        W37800   3.388   6.047   1.670 -0.0399 -0.0919 -0.3396
22332W        W37801  13.189  14.832   3.272 -0.1102  0.1184  0.1457
22333W        W37802   7.004  17.570   4.563 -0.5579  0.0887 -0.2205
22334W        W37803   2.344   8.589  12.257  0.1145 -0.1671 -0.0154
22335W        W37804   2.456  11.597  13.861  0.0759  0.0702 -0.2769
22336W        W37805   3.735   3.146  12.693  0.0358 -0.1650 -0.2466
22337W        W37806   3.362   7.119  14.329 -0.1418 -0.1035  0.2311
22338W        W37807  11.879   6.893   1.522 -0.1312  0.2021  0.0818
22339W        W37808   2.001   6.874  14.345  0.2037 -0.0161 -0.1077
22340W        W37809   8.802   8.165   5.107  0.1611 -0.3581  0.3725
22341W        W37810  13.465  17.946   1.650  0.1202 -0.1484  0.3624
22342W        W37811  16.418  16.877   5.610  0.0044  0.0784 -0.3957
22343W        W37812  12.710  10.238  14.379  0.2599 -0.0916  0.2390
22344W        W37813   2.166  17.395   3.742  0.0869 -0.2067  0.1383
22345W        W37814   7.183  12.211  15.524  0.1370 -0.0693  0.2105
22346W        W37815  10.550   2.682   3.503 -0.2336  0.2074 -0.0104
22347W        W37816   7.390  11.044   0.737 -0.0460  0.0881  0.1896
22348W        W37817  18.070   9.000  13.748  0.2396 -0.2265  0.1999
22349W        W37818   6.286   9.330  15.643 -0.2237  0.0012 -0.0432
22350W        W37819   5.303   7.289   4.695  0.0959  0.0734 -0.1188
22351W        W37820   9.587   2.501   3.592 -0.0168 -0.0493 -0.0399
22352W        W37821   5.603   3.069   0.682  0.0166  0.1330 -0.0184
22353W        W37822   3.114   8.871  13.331  0.2017  0.0621 -0.0181
22354W        W37823   0.037  13.517  13.895  0.0243  0.1573 -0.0979
22355W        W37824   4.867   0.398  12.625  0.0392  0.0360 -0.0005
22356W        W37825   9.210   5.548   0.345 -0.1776  0.0369  0.0327
22357W        W37826   6.285   2.957  13.331 -0.2059 -0.1800  0.3851
22358W        W37827   3.834  18.099  12.302  0.1879  0.1087  0.2299
22359W        W37828  10.949  17.316   2.958  0.2907  0.1417 -0.0002
22360W        W37829   6.706  10.496  14.225  0.2627  0.0745  0.1491
22361W        W37830  10.403   5.231  13.856  0.1804  0.0401  0.0719
22362W        W37831  17.834  12.840   0.866 -0.2351  0.0302 -0.1816
22363W        W37832  10.815   0.834  12.745 -0.1093 -0.2615 -0.0608
22364W        W37833  17.349  10.522   2.897  0.1866 -0.3141  0.0336
22365W        W37834  13.222  13.842   3.058  0.2650 -0.0571 -0.0098
22366W        W37835  10.896   2.951  14.960 -0.1380  0.0020 -0.1953
22367W        W37836  18.185   3.104   5.509  0.2323 -0.1153 -0.0204
22368W        W37837   6.021   5.803  12.329 -0.4171 -0.3141 -0.0808
22369W        W37838   3.176   9.902  11.888  0.0482  0.1338  0.0122
22370W        W37839  16.067  17.235  12.692  0.1114 -0.0178 -0.1709
22371W        W37840  16.447   4.802  15.330 -0.4626 -0.1972 -0.1238
22372W        W37841   6.776  14.012  13.178  0.2991  0.0930  0.1502
22373W        W37842   4.607   1.383   4.545 -0.2099 -0.5598 -0.1951
22374W        W37843  11.327   7.467  13.530 -0.1349  0.0284 -0.2184
22375W        W37844   7.704  10.740  16.029  0.2462 -0.0479 -0.0154
22376W        W37845  16.809   2.391   4.316 -0.2366  0.0122  0.2535
22377W        W37846   6.336   4.796  15.459 -0.1512 -0.1249  0.0695
22378W        W37847   8.332   6.952  11.152  0.3337 -0.0433 -0.0084
22379W        W37848  11.796  14.232  14.154  0.0552 -0.1076 -0.3165
22380W        W37849   6.229   1.396  11.426  0.0456  0.0017 -0.0312
22381W        W37850  14.344  14.581  14.939 -0.3263 -0.2153  0.2736
22382W        W37851   2.775  15.525  13.633  0.0253 -0.0310  0.0926
22383W        W37852   3.935   9.028  11.328 -0.1642  0.2693 -0.0744
22384W        W37853  14.123   1.431  15.748 -0.0209  0.0770 -0.0859
22385W        W37854  15.304   4.593  13.794 -0.3691 -0.1199  0.0245
22386W        W37855   2.152  13.857  11.478 -0.2303 -0.1635  0.0459
22387W        W37856   3.263   4.217   1.963  0.1076 -0.3014 -0.2484
22388W        W37857  11.273  12.873   2.061  0.0042  0.0277  0.1102
22389W        W37858  10.226  13.046   4.129  0.2848 -0.3524  0.2591
22390W        W37859  10.469  10.175   3.943 -0.1560  0.1420 -0.1543
22391W        W37860   8.083  16.468   3.481 -0.1795 -0.0878  0.2110
22392W        W37861   4.893   3.348  16.102 -0.2388 -0.2989 -0.0657
22393W        W37862  15.688  17.829  12.435 -0.0427 -0.3268 -0.1049
22394W        W37863   0.530  15.580   5.424 -0.0850  0.0431 -0.0535
22395W        W37864  13.324   1.693   5.627  0.1687  0.1883 -0.1872
22396W        W37865  10.601   7.238  12.930 -0.0040 -0.0644  0.3350
22397W        W37866   6.932  14.725   0.690 -0.0589  0.1367  0.2936
22398W        W37867   9.301   5.769  12.633  0.2192 -0.0630 -0.0453
22399W        W37868  12.190   4.496   3.157  0.4255  0.1056 -0.0149
22400W        W37869   8.323  15.874  13.396  0.1091  0.2165 -0.1651
22401W        W37870   3.531  11.810   0.813 -0.1328 -0.1270 -0.1331
22402W        W37871   2.335   4.250   2.311 -0.1259 -0.2525 -0.1846
22403W        W37872   2.228   7.242   0.071 -0.3049 -0.0915 -0.0935
22404W        W37873   9.871   2.030  12.793 -0.1417  0.1304  0.2816
22405W        W37874  16.444   0.917   4.539  0.0154  0.2787  0.0226
22406W        W37875   3.942  10.764  13.830 -0.0197 -0.3172  0.2009
22407W        W37876   9.825   6.669   1.136 -0.0005 -0.1437 -0.1862
22408W        W37877  12.936   2.328  13.384 -0.0936  0.1805  0.2339
22409W        W37878  12.163   4.080  12.314  0.0534  0.0390 -0.1528
22410W        W37879   3.291  11.893  16.100  0.2086  0.0091  0.0296
22411W        W37880  16.777   8.561  11.899 -0.0487  0.0581  0.1924
22412W        W37881   0.146  15.447   0.586  0.0332 -0.0147 -0.0414
22413W        W37882   7.351  14.822   3.786  0.1452  0.0608 -0.2028
22414W        W37883  14.942  16.414   3.197 -0.0597  0.1336 -0.0864
22415W        W37884   8.050   7.368  14.198 -0.0921  0.1663  0.0286
22416W        W37885  13.293  10.320  13.130 -0.2389  0.0441 -0.0494
22417W        W37886   0.669   4.750  11.284  0.1677  0.1538 -0.0057
22418W        W37887  16.766   8.351   2.806 -0.2080 -0.0431 -0.0503
22419W        W37888  13.023  13.330   0.972 -0.1738  0.1232  0.0598
22420W        W37889  12.170   8.713   1.004 -0.2083 -0.0788 -0.1648
22421W        W37890   0.792   6.221   0.867 -0.1059  0.1130  0.0814
22422W        W37891  12.344  15.172  10.820 -0.2370 -0.0424 -0.2375
22423W        W37892  10.046   0.708   3.253 -0.2368  0.1335  0.0787
22424W        W37893  11.409   4.593   5.883 -0.3079  0.0602  0.0707
22425W        W37894   6.102  11.421   3.742 -0.1517 -0.1573  0.0995
22426W        W37895  17.349   2.683  15.595 -0.1508 -0.1300  0.0261
22427W        W37896  17.596  15.794   0.064  0.0456 -0.0761  0.0544
22428W        W37897  16.006   6.638  11.024  0.0168 -0.0089 -0.1541
22429W        W37898   4.768   2.990   1.599  0.1648 -0.2376  0.1335
22430W        W37899   5.735  11.878  11.657 -0.0165  0.1431  0.1409
22431W        W37900  15.903  14.080   3.410 -0.0473 -0.1933 -0.0658
22432W        W37901   0.806   9.014   1.254  0.3027 -0.0966  0.1754
22433W        W37902  11.243  17.140  12.027 -0.1896  0.1740 -0.1149
22434W        W37903  14.602  15.076   5.277 -0.2356 -0.0792  0.1585
22435W        W37904   3.406  10.096  14.255  0.1203  0.1903  0.1419
22436W        W37905   3.532  12.169   1.749  0.2179 -0.0661 -0.0939
22437W        W37906   7.400   3.144   2.913  0.1734 -0.3026 -0.2219
22438W        W37907  17.008   2.617   5.813  0.0155  0.4494 -0.0968
22439W        W37908  17.687   0.350  15.874 -0.0871 -0.0155 -0.1263
22440W        W37909   0.347   0.085   4.268 -0.1546 -0.1222 -0.1669
22441W        W37910   8.385  10.143   0.327 -0.2273  0.2350  0.0275
22442W        W37911   3.245   8.151  15.707 -0.1219 -0.1828 -0.2379
22443W        W37912   0.916  10.038  10.833  0.1993  0.2782 -0.1992
22444W        W37913  15.667   9.583  12.722  0.0072 -0.2360 -0.0334
22445W        W37914  17.810  17.784   0.380  0.0902 -0.2091 -0.1559
22446W        W37915   3.816   8.902   0.384  0.1883  0.2802  0.4012
22447W        W37916   2.433  17.747  13.748  0.0256  0.2012 -0.2904
22448W        W37917  11.239  11.496   2.527 -0.0491  0.4243 -0.0472
22449W        W37918  13.700   2.628  12.342  0.2110  0.0132  0.2119
22450W        W37919   6.365   9.950   2.535 -0.1411  0.1227 -0.2248
22451W        W37920   5.085  17.130  11.053  0.1754  0.0440 -0.2703
22452W        W37921  13.149   0.340   1.390  0.1418  0.3543 -0.0543
22453W        W37922  16.562  12.227  15.828 -0.0556 -0.1294  0.2051
22454W        W37923   6.866  17.320   2.831  0.1181 -0.0328 -0.0658
22455W        W37924   8.225  13.033   0.829 -0.2724 -0.0946 -0.1910
22456W        W37925   5.337  13.547   0.018  0.0803 -0.0972 -0.1305
22457W        W37926  10.717   3.463   4.544  0.1468  0.1319 -0.2279
22458W        W37927   6.087  15.860  11.139 -0.1189  0.2185  0.3723
22459W        W37928   4.796   0.311  10.300  0.2100  0.2781  0.2099
22460W        W37929  11.228  12.974   3.043  0.0124 -0.1789 -0.2007
22461W        W37930  18.164  10.870   0.232  0.0470 -0.3314  0.1007
22462W        W37931   2.336   8.059   5.188  0.2064  0.0514 -0.1427
22463W        W37932  10.340   0.541  14.265 -0.1074  0.1581 -0.0592
22464W        W37933   1.793  11.529  14.677 -0.2314 -0.0261  0.2093
22465W        W37934  12.994  16.531  13.643  0.2134 -0.4284  0.3697
22466W        W37935  12.823   2.797  11.908  0.2319  0.1256 -0.0238
22467W        W37936   2.449  12.319  16.032 -0.0771 -0.3154  0.0487
22468W        W37937  17.784   4.723   0.153  0.0424  0.1336 -0.3430
22469W        W37938  13.610  12.364   1.020  0.3160  0.2924  0.0879
22470W        W37939   0.428  11.586  10.936  0.0698 -0.1166  0.0484
22471W        W37940  14.811   6.386  12.429 -0.1160  0.1061 -0.1403
22472W        W37941   4.562   0.058   0.296 -0.0379 -0.4193 -0.1687
22473W        W37942   2.596   3.656  14.841 -0.0347  0.0723  0.2020
22474W        W37943  12.588   2.759  16.106  0.0898  0.0962  0.2073
22475W        W37944  15.129   2.617   5.683 -0.0271 -0.0310  0.2921
22476W        W37945  10.487   2.136  14.451 -0.1592 -0.3408 -0.0323
22477W        W37946   2.222   2.480  15.789 -0.0630  0.2721  0.1186
22478W        W37947   8.755  10.967   2.351  0.2558 -0.0255  0.2088
22479W        W37948   2.091   1.119   1.279  0.0845 -0.0969 -0.2009
22480W        W37949   1.732  11.147  13.691 -0.2938  0.2450 -0.1455
22481W        W37950  14.256   8.681  15.501  0.1289  0.1135  0.0084
22482W        W37951  17.138   2.318   5.277 -0.2082 -0.0802 -0.2099
22483W        W37952  15.192   7.587   4.953 -0.1520  0.2644  0.2741
22484W        W37953   3.222   6.709   1.197 -0.2149 -0.0532 -0.0262
22485W        W37954  13.709  10.848   3.799 -0.0458 -0.2276  0.0667
22486W        W37955  10.567   0.955  13.220 -0.1785  0.1372  0.2628
22487W        W37956   9.116  10.159   2.743 -0.2927  0.0930  0.0469
22488W        W37957  12.230   7.680   4.400  0.1312  0.2849 -0.1870
22489W        W37958   7.232   4.892   4.615  0.1563  0.0400  0.1387
22490W        W37959  10.816   0.061  13.006 -0.0840 -0.2200  0.0790
22491W        W37960  10.231   6.641  13.372 -0.1356  0.2419  0.2000
22492W        W37961  17.227   3.940  15.246 -0.0751 -0.1075  0.1230
22493W        W37962  13.331   1.506   3.044  0.1481 -0.2874  0.1526
22494W        W37963  18.209   8.471  13.552  0.1197  0.2350 -0.1065
22495W        W37964  15.042   0.032   4.520 -0.1172  0.2081  0.0694
22496W        W37965   0.507   7.765   0.056  0.1192 -0.0298  0.1259
22497W        W37966   1.981  12.156   4.465 -0.2735  0.4438 -0.0096
22498W        W37967  17.972  10.178   3.441 -0.4390 -0.0923 -0.2826
22499W        W37968   5.811   8.128  13.930 -0.0546 -0.2152  0.1698
22500W        W37969   6.494  13.627   1.280 -0.0847 -0.0073  0.0730
22501W        W37970  16.055  13.842  12.248  0.0327  0.1795  0.0332
22502W        W37971  14.054   3.390   5.444  0.3686  0.0364  0.1536
22503W        W37972  17.837   9.586   9.628  0.3650 -0.0225  0.2934
22504W        W37973  12.611   1.856  13.586 -0.2213  0.2049 -0.0482
22505W        W37974  15.080   6.186   2.858 -0.1612 -0.2252 -0.4391
22506W        W37975   2.242  15.180  13.318  0.0687  0.1090 -0.1353
22507W        W37976  13.642   2.517  14.241  0.3688 -0.0743  0.0625
22508W        W37977  13.573  12.426   9.723  0.0050 -0.0405 -0.2010
22509W        W37978  11.421  10.025   4.992  0.1724  0.0039  0.0026
22510W        W37979   9.525  17.408  11.301 -0.0607 -0.3588  0.0865
22511W        W37980  14.938   3.805  11.627  0.2025  0.2545 -0.0454
22512W        W37981  17.270  12.964  12.477 -0.1262  0.1485  0.3090
22513W        W37982  16.610   2.246   5.633  0.1355 -0.1836 -0.0661
22514W        W37983   1.880  15.001  13.069  0.3280  0.2031 -0.1719
22515W        W37984  17.161   6.974   2.204  0.2015  0.1574  0.3502
22516W        W37985   7.581   3.767  13.099  0.1647  0.1765 -0.1550
22517W        W37986  16.596   2.195   6.127 -0.0774 -0.2173 -0.1631
22518W        W37987   7.091   2.671   1.181 -0.0077  0.1576  0.4551
22519W        W37988  18.018   9.644  14.243  0.0674 -0.0758 -0.0784
22520W        W37989   9.788   6.586  15.876  0.0775  0.2350  0.0791
22521W        W37990   3.723   0.487  13.364  0.0141  0.3067  0.1796
22522W        W37991  17.693   0.284   3.861  0.2472 -0.1691  0.0984
22523W        W37992  15.747   1.553  13.805  0.1404 -0.0556  0.1031
22524W        W37993   6.267   6.912   0.106 -0.3349 -0.0061  0.0378
22525W        W37994  12.068  13.220  14.775 -0.0379  0.0388  0.2841
22526W        W37995   0.545   1.283   4.159 -0.0871 -0.0291 -0.0317
22527W        W37996  11.216   1.442  14.394  0.0600 -0.0756 -0.1308
22528W        W37997   3.184  17.267  13.830 -0.1740 -0.1332  0.0121
22529W        W37998   4.339   8.146   4.679 -0.1811  0.1690 -0.0173
22530W        W37999   4.349  16.904   1.216  0.1763  0.0243  0.0328
22531W        W38000   9.562   3.557  11.137 -0.0197  0.1429 -0.0237
22532W        W38001  16.050   4.470  14.412 -0.0304  0.0982  0.0615
22533W        W38002  11.490  10.114  14.737 -0.0126 -0.3324  0.1899
22534W        W38003   8.729   7.503  11.211  0.0929  0.0699 -0.3675
22535W        W38004  15.154   1.798   2.141  0.0128  0.1127  0.2595
22536W        W38005   7.947   5.119  14.873 -0.1386  0.2975  0.4369
22537W        W38006   9.828  11.214   2.186  0.2201  0.1602 -0.0378
22538W        W38007  14.915  13.540   3.621 -0.2553 -0.3271  0.2890
22539W        W38008   5.419   8.739   3.637 -0.1646 -0.0529  0.0591
22540W        W38009   2.064  14.729   3.898 -0.0944 -0.1248  0.2906
22541W        W38010   0.724   1.360  12.752  0.1844  0.0090 -0.1069
22542W        W38011  13.965   0.965  12.509  0.0349 -0.2390 -0.1306
22543W        W38012  15.519   6.492   1.013  0.0302 -0.0399 -0.1203
22544W        W38013  17.641  16.516   0.763  0.2034 -0.0727 -0.2500
22545W        W38014  17.710   8.674   1.192 -0.2376 -0.4326 -0.0008
22546W        W38015  11.222   1.745   3.386 -0.1052  0.3072 -0.3461
22547W        W38016   6.589   0.581   0.614  0.2577 -0.3197 -0.1635
22548W        W38017  15.235   7.835  15.079 -0.0253  0.2199  0.1410
22549W        W38018  13.248  15.157   4.498 -0.0538  0.0828  0.0712
22550W        W38019  11.454  17.358  15.456 -0.0358 -0.2172 -0.1931
22551W        W38020   9.855  16.274   4.475 -0.0084 -0.0184  0.0575
22552W        W38021   9.022   5.190  11.326  0.2848 -0.0575 -0.1439
22553W        W38022   8.866   8.195  11.812  0.1797 -0.0738  0.2589
22554W        W38023   5.582   2.943   3.860  0.1148 -0.1595 -0.0694
22555W        W38024   4.432   6.713   3.595  0.0818  0.3665  0.1573
22556W        W38025   2.239  12.352   4.024 -0.1174 -0.1176  0.3397
22557W        W38026   4.048  12.827   4.924  0.0696 -0.0823 -0.3199
22558W        W38027  17.231   9.551  10.457  0.0354  0.2731 -0.0654
22559W        W38028   3.950   1.965  13.550 -0.0617  0.0538 -0.0091
22560W        W38029  12.842  10.931  12.078 -0.0013 -0.0986  0.1084
22561W        W38030   3.183   5.960   5.225 -0.0161  0.3547 -0.1289
22562W        W38031   9.136   7.440  10.775  0.1554 -0.1837 -0.3418
22563W        W38032  12.290   2.639   4.187  0.1585 -0.0996 -0.1922
22564W        W38033   2.694   0.618   2.371  0.0729 -0.1146 -0.1221
22565W        W38034   9.667  14.236  14.506 -0.2556 -0.1714 -0.3936
22566W        W38035  18.083  11.666  15.373  0.3822  0.2482 -0.0171
22567W        W38036  10.354   8.743   2.297  0.1200 -0.0234 -0.0537
22568W        W38037  12.720  14.675  14.264 -0.2411 -0.1407  0.1962
22569W        W38038   2.450  10.361   0.379 -0.1210 -0.1141 -0.1617
22570W        W38039   3.930  17.565   0.913 -0.0577 -0.1404 -0.0772
22571W        W38040   6.722  17.355   1.633 -0.1646  0.2591  0.1928
22572W        W38041   3.090   2.780  15.700 -0.0012 -0.0731  0.2439
22573W        W38042   0.031  15.575   5.525  0.1264  0.1591 -0.1348
22574W        W38043   0.912  13.731   3.270 -0.0991  0.0935 -0.0379
22575W        W38044   6.859  15.204   0.463 -0.0288 -0.0578  0.0909
22576W        W38045   7.035  13.288   2.116 -0.1013 -0.0451 -0.0310
22577W        W38046  14.983  13.982  14.658  0.0440 -0.4199 -0.1580
22578W        W38047  17.131   8.165  12.229 -0.0133 -0.0246 -0.3818
22579W        W38048  12.032   9.943  13.717 -0.0471 -0.1757  0.1238
22580W        W38049  12.972  13.560   1.639  0.3006  0.3000  0.0833
22581W        W38050   7.769  17.021  12.218  0.3197  0.1877  0.0888
22582W        W38051  17.424   0.773  15.716  0.0932  0.2236 -0.0767
22583W        W38052  12.430  17.760  14.991  0.0834  0.1351 -0.4040
22584W        W38053   4.557  13.143  13.191  0.1847  0.1141  0.2007
22585W        W38054   6.455   7.952   4.313 -0.1562  0.0859  0.2007
22586W        W38055  17.577   1.879   6.075  0.0342 -0.0491 -0.2157
22587W        W38056   4.746   3.885   1.019  0.0469 -0.0990  0.2339
22588W        W38057  14.262   5.091  14.467 -0.2147  0.2337  0.2771
22589W        W38058   1.477  12.528   5.252  0.2782 -0.0794 -0.0932
22590W        W38059  10.877   4.645  15.777  0.3289  0.0072 -0.0922
22591W        W38060   0.061   9.721  15.580  0.1151 -0.0200 -0.0923
22592W        W38061  12.492   1.658   3.283 -0.4797 -0.0538 -0.1500
22593W        W38062   8.276   2.201   4.288 -0.2400 -0.2163 -0.0426
22594W        W38063   2.924   9.825   1.097 -0.1405  0.0597  0.0714
22595W        W38064  17.821   2.930   3.279  0.1334  0.3575  0.0554
22596W        W38065  14.847   3.029  13.749  0.0009 -0.1179  0.0492
22597W        W38066  16.902  15.233  12.719  0.2676 -0.1276 -0.0441
22598W        W38067   9.930  12.798   2.501 -0.1387  0.0194  0.1061
22599W        W38068   0.096  16.530  13.157  0.0492 -0.0014  0.0761
22600W        W38069  15.022  10.269  14.284  0.3287  0.2018 -0.0045
22601W        W38070   9.913   5.548  14.903  0.3777  0.1964 -0.1555
22602W        W38071   1.991  12.262   2.504  0.0495  0.2337  0.0382
22603W        W38072   9.480   9.351   4.287 -0.1858  0.1009 -0.0193
22604W        W38073   1.984  13.545  14.655 -0.0535  0.2389 -0.0695
22605W        W38074  16.295  11.867   3.246  0.2045  0.0424  0.4432
22606W        W38075  11.758  16.637   5.071 -0.0339 -0.1063  0.2370
22607W        W38076  15.941  17.600  11.483  0.0762  0.0724  0.0061
22608W        W38077   6.456  18.144   3.840  0.0172  0.0041  0.0045
22609W        W38078   1.771  11.714   2.171  0.0447  0.0342  0.2869
22610W        W38079   4.248  15.871  11.347 -0.2291 -0.1095 -0.1649
22611W        W38080  14.296  10.626  16.017 -0.2091 -0.0787  0.2144
22612W        W38081   8.346   5.658   3.634 -0.0680  0.0834  0.3459
22613W        W38082   5.585  11.021  15.073 -0.1574  0.3144 -0.0129
22614W        W38083   4.040   3.250  11.416 -0.2796  0.0888 -0.2061
22615W        W38084  14.792  14.708   1.635  0.2487  0.0282  0.0469
22616W        W38085   5.316  15.884  12.650 -0.1670 -0.1240 -0.0354
22617W        W38086  11.287  15.989   2.885  0.0957  0.2611 -0.3220
22618W        W38087  11.704   5.025  12.804 -0.1730  0.0131 -0.3244
22619W        W38088   9.678   1.606  10.978  0.1036 -0.0480 -0.2260
22620W        W38089  17.143   5.638  14.702 -0.1866  0.0623  0.2834
22621W        W38090   1.661  15.332  15.537 -0.3311 -0.0657  0.0096
22622W        W38091  14.533   8.414   0.693  0.4180 -0.0939  0.0088
22623W        W38092  11.190   8.259  14.087  0.0512  0.0063 -0.1362
22624W        W38093  14.238  15.534   0.420  0.0920 -0.1527 -0.3016
22625W        W38094   0.169  13.843  15.335  0.0546 -0.0531  0.0281
22626W        W38095  11.966  10.921   0.539 -0.1579 -0.1223 -0.0632
22627W        W38096  14.300   4.462  12.118  0.2435  0.2163  0.0876
22628W        W38097   1.496  16.975   5.270 -0.1291  0.0733  0.0234
22629W        W38098   4.159   2.263  11.203 -0.4027 -0.0334  0.0131
22630W        W38099   2.503   2.005  12.848  0.2614  0.1559  0.0032
22631W        W38100   3.655   8.355   0.506 -0.0006  0.0938 -0.1347
22632W        W38101   7.745   2.616   1.788  0.0585 -0.2996  0.2378
22633W        W38102  12.995  11.373   4.938  0.0048  0.1046 -0.1500
22634W        W38103  17.140  12.147  13.852 -0.3208 -0.0819 -0.0253
22635W        W38104   8.756  13.429  13.697  0.2854 -0.0104 -0.1584
22636W        W38105   4.545   2.690  13.826 -0.0019  0.1373  0.4341
22637W        W38106   6.684   5.043   5.168 -0.2571  0.1850  0.1181
22638W        W38107  18.211   5.154   2.977 -0.0567  0.2061  0.2249
22639W        W38108  12.853   3.025  12.720 -0.1021  0.0351 -0.0180
22640W        W38109  10.789   7.175   2.224  0.2423 -0.2384  0.1405
22641W        W38110   4.659   2.239   1.624  0.2174 -0.1487  0.2623
22642W        W38111   6.011  14.077  10.975 -0.2884 -0.1457 -0.1088
22643W        W38112  17.049  10.450   3.374 -0.1009  0.2258  0.0794
22644W        W38113  15.357  11.796   3.887 -0.1436 -0.0298 -0.0853
22645W        W38114  10.698  16.306   1.988  0.0740 -0.2498  0.3585
22646W        W38115   6.779   1.949  11.570  0.2046 -0.2056  0.0982
22647W        W38116  11.004   6.235   0.314 -0.1051  0.1195  0.0677
22648W        W38117   2.173  14.212   3.460 -0.3420  0.4651 -0.1505
22649W        W38118   1.091  11.851  15.346 -0.0893 -0.0440 -0.0663
22650W        W38119   7.719   6.023   5.611 -0.0241  0.1141  0.1026
22651W        W38120   9.397  14.520   0.731  0.3192 -0.0212  0.1150
22652W        W38121  10.824   9.965  11.009  0.0899 -0.1283  0.0514
22653W        W38122  12.608  10.134  12.088  0.4868 -0.0495 -0.0530
22654W        W38123   9.115  11.870  13.399 -0.0787  0.1621  0.2817
22655W        W38124  16.463  16.025   2.603 -0.2274  0.0350  0.1600
22656W        W38125   3.103  10.830  13.559 -0.2357  0.1549 -0.0200
22657W        W38126   6.522   0.724   1.259 -0.0042 -0.0605  0.1706
22658W        W38127   7.523   8.705  11.331  0.3682  0.1110 -0.1508
22659W        W38128   0.129   9.564  15.132 -0.1449 -0.0679  0.2326
22660W        W38129   6.709  13.693  12.784 -0.1891  0.0515 -0.0409
22661W        W38130  12.131  15.062  12.743 -0.3927 -0.1967  0.2677
22662W        W38131   1.835   7.184   1.220  0.2800  0.1628 -0.0761
22663W        W38132   4.625  14.999   2.153  0.2586  0.0759  0.0763
22664W        W38133   1.013   0.231   5.604 -0.0910  0.0717 -0.0441
22665W        W38134   5.192  11.667  13.992 -0.3067  0.2636 -0.2668
22666W        W38135  14.035  12.222   1.250 -0.1157  0.1341  0.1482
22667W        W38136   3.188  10.116   0.355  0.2640 -0.1647 -0.1036
22668W        W38137  12.625  10.160   0.344 -0.1783  0.2544  0.1398
22669W        W38138   5.312  17.135   3.543  0.1236  0.0805  0.0530
22670W        W38139  11.123   1.578  15.060 -0.1889  0.1366 -0.0098
22671W        W38140   5.507   2.799  12.095 -0.2524  0.0759 -0.1062
22672W        W38141   9.505  13.668   0.484  0.0526 -0.3212 -0.0829
22673W        W38142  13.677   9.494   5.693 -0.1246 -0.2975 -0.0857
22674W        W38143   8.169  15.150  15.748  0.0436  0.2888 -0.2307
22675W        W38144  16.927  11.492  15.082  0.0611 -0.1882 -0.0811
22676W        W38145  10.879   9.662   1.258  0.1055 -0.1418  0.1056
22677W        W38146  10.884  11.685  16.046 -0.0579  0.1593  0.0045
22678W        W38147  12.323   2.712   2.306  0.0351 -0.2708  0.1306
22679W        W38148  17.083  12.653   1.182 -0.0289  0.1646 -0.0808
22680W        W38149   9.211  11.840  12.659 -0.1005  0.3500 -0.0472
22681W        W38150  12.868   5.050   5.195 -0.1558 -0.0184 -0.2197
22682W        W38151  16.366  13.651   0.520 -0.0825 -0.2009  0.0952
22683W        W38152  17.349  16.489   4.098 -0.0374 -0.3225  0.2024
22684W        W38153   9.709   7.145   4.742  0.1440  0.3161  0.0901
22685W        W38154   2.027   6.153  11.125 -0.2771  0.0686  0.0480
22686W        W38155  14.008   2.155   2.692 -0.1880 -0.2678 -0.1515
22687W        W38156  11.779   7.583   3.864  0.0669  0.1885 -0.0631
22688W        W38157  17.388   8.880   0.726 -0.3059  0.0426 -0.1664
22689W        W38158   7.996  13.970  12.280  0.0774 -0.4500  0.0704
22690W        W38159   7.050   5.703   4.179 -0.0251  0.0025 -0.0884
22691W        W38160   3.507  16.760   2.908 -0.0485 -0.1734 -0.2584
22692W        W38161  10.063   3.759   1.412 -0.0385  0.1284 -0.0305
22693W        W38162   6.653   2.162  13.262 -0.1690 -0.0248  0.2335
22694W        W38163   3.038   6.393  12.833 -0.2588  0.0650 -0.1613
22695W        W38164   8.755   8.623   9.728 -0.1521 -0.0860 -0.2258
22696W        W38165   5.990  14.847   1.821 -0.0993  0.1354  0.2010
22697W        W38166  17.050   4.840  15.922  0.0995 -0.5742 -0.0024
22698W        W38167   8.355   5.576   5.219  0.1236  0.0497  0.0341
22699W        W38168  14.759  14.893   9.975  0.0490 -0.0286 -0.0888
22700W        W38169   9.888  11.486  13.193 -0.0652 -0.0765 -0.1140
22701W        W38170  14.577  10.443  14.137 -0.2255 -0.0655  0.1119
22702W        W38171   1.444   9.675   5.423 -0.1858 -0.3584  0.0334
22703W        W38172   9.334   2.736   2.182  0.3396 -0.1002 -0.0999
22704W        W38173  14.267   5.922   4.315  0.1422  0.1557  0.0344
22705W        W38174  12.281  14.764  14.812 -0.0547 -0.1092 -0.2495
22706W        W38175  12.228   0.320  15.262  0.1048  0.2075  0.1425
22707W        W38176   6.174   6.141  12.717  0.0365 -0.1333 -0.3260
22708W        W38177   5.601  11.482   2.412  0.0032  0.1000 -0.1761
22709W        W38178   3.679  10.143  13.229 -0.2112  0.1464  0.3999
22710W        W38179  14.363  15.727  11.540 -0.2482  0.1215  0.1413
22711W        W38180   0.586  14.783   3.261  0.0344 -0.2044  0.0797
22712W        W38181   2.877   6.215   1.883  0.1172 -0.3922 -0.2107
22713W        W38182  14.842  10.943   0.968  0.1163  0.0186  0.2227
22714W        W38183  16.500  16.671  11.334 -0.0473  0.1852  0.0833
22715W        W38184   7.100   1.079   2.283  0.2492 -0.2227 -0.1696
22716W        W38185   6.778  12.779   4.887  0.0205  0.1736 -0.1118
22717W        W38186   2.034   9.298   1.237 -0.0709  0.1696  0.0152
22718W        W38187   1.052  16.423   6.583  0.2146  0.1959 -0.2600
22719W        W38188   8.169   4.843  15.270 -0.0508 -0.0142  0.1383
22720W        W38189   3.971  15.839   3.745 -0.1694  0.1747 -0.0767
22721W        W38190   9.754  10.155   3.240  0.1010  0.2162  0.2313
22722W        W38191  15.365   7.345   4.497  0.0695 -0.1749  0.1966
22723W        W38192   0.497   3.568   5.796  0.1154 -0.0898  0.0060
22724W        W38193   0.079   8.061   0.186 -0.1159 -0.2489  0.0958
22725W        W38194  15.745   5.036   6.133  0.2755  0.2928  0.1206
22726W        W38195  12.666   4.924  15.547  0.0550 -0.2595 -0.4235
22727W        W38196   8.321  12.214   2.154 -0.2790 -0.0951  0.1496
22728W        W38197  13.359   2.625   6.379  0.1051  0.2046 -0.4049
22729W        W38198  15.942  14.106   0.939  0.0677  0.1197 -0.0638
22730W        W38199  18.155  17.362   1.132 -0.0723  0.1018  0.1300
22731W        W38200   3.055  17.883  11.573  0.1091 -0.1857 -0.1755
22732W        W38201   4.591   7.143  11.891 -0.0989  0.0787  0.0899
22733W        W38202  12.727   9.376   2.267 -0.1560 -0.1343  0.2354
22734W        W38203  13.503  12.738  15.368 -0.0569 -0.1847  0.1915
22735W        W38204  12.918   2.102   4.819  0.0769 -0.4230  0.1385
22736W        W38205  15.414   8.562  11.886  0.2195 -0.0963  0.5720
22737W        W38206  15.986   1.385   2.180 -0.1720 -0.2498  0.1807
22738W        W38207   6.248  17.760   5.853 -0.0484 -0.2089 -0.0461
22739W        W38208   1.946   8.817  12.516  0.1145  0.0317 -0.2687
22740W        W38209   6.173  14.456   3.970 -0.0943  0.0235  0.3887
22741W        W38210   9.427  10.876  13.041  0.2273  0.0536 -0.0550
22742W        W38211   4.660   5.228  12.317 -0.0220  0.2168  0.0590
22743W        W38212  13.434   4.371  13.267 -0.0195  0.1359 -0.2558
22744W        W38213   2.765   3.518  11.886  0.1898 -0.1344 -0.0325
22745W        W38214  17.193   6.065   3.192 -0.0711 -0.4598 -0.1834
22746W        W38215   2.608  14.380  13.684 -0.0151 -0.0059 -0.2103
22747W        W38216  16.249   1.375   0.352 -0.2179  0.0927 -0.0552
22748W        W38217  11.575  11.547  13.894 -0.1032 -0.0056 -0.1705
22749W        W38218  10.145   8.186   1.555 -0.0280  0.0561  0.0094
22750W        W38219  13.067  15.800  10.978  0.1239 -0.0019 -0.1739
22751W        W38220   8.663  11.667   1.678 -0.2557  0.2372  0.0250
22752W        W38221   7.047   2.251   4.815 -0.0974  0.0239 -0.1779
22753W        W38222   6.125   5.160  14.994 -0.0338 -0.1963 -0.1958
22754W        W38223  17.243  10.761   4.769  0.1224 -0.0427 -0.0204
22755W        W38224  14.446  12.678   2.338 -0.2251 -0.2380  0.0486
22756W        W38225  17.385   6.511   1.360 -0.0471 -0.1093  0.1925
22757W        W38226   3.361   2.469   6.051  0.1071 -0.4662 -0.1124
22758W        W38227  12.602   8.908  14.518  0.1069 -0.1652 -0.2526
22759W        W38228  14.074  13.082  13.985  0.0378  0.2543  0.1504
22760W        W38229   8.756  16.355   2.139  0.0938  0.2735  0.2987
22761W        W38230   2.897   2.624   1.325 -0.0510  0.3373  0.1675
22762W        W38231  12.350   8.432   2.835 -0.3529 -0.1071 -0.1039
22763W        W38232  16.311  13.716   3.624  0.1040 -0.0661 -0.0095
22764W        W38233   6.734  16.777  15.908  0.1583  0.1189  0.0429
22765W        W38234   9.626   0.605  14.575 -0.1483 -0.1478  0.1410
22766W        W38235  12.535   9.536  15.453 -0.1039  0.2936  0.1627
22767W        W38236   1.067  11.772   1.989 -0.0829 -0.2815 -0.1703
22768W        W38237   6.193   7.794   0.629 -0.3630  0.0878 -0.2539
22769W        W38238   4.643   4.149  14.528 -0.2112  0.0362  0.3083
22770W        W38239  12.779  13.994  13.211 -0.3200  0.0933  0.0465
22771W        W38240   5.216   9.666   3.323 -0.0071  0.4217 -0.1838
22772W        W38241  11.757  17.112   3.430 -0.1355  0.0777 -0.4395
22773W        W38242  13.161  12.128   0.177  0.2367  0.0963  0.4484
22774W        W38243   2.099   2.463   1.041 -0.1773  0.1060 -0.0157
22775W        W38244   8.010   1.979   2.336 -0.0210 -0.0221  0.2082
22776W        W38245   5.871   5.254   1.066  0.0192 -0.1188  0.1372
22777W        W38246  12.612   5.977  15.483 -0.2765 -0.1315 -0.0418
22778W        W38247   9.322   2.463   0.846 -0.1285  0.1479 -0.1727
22779W        W38248   7.691  14.120   5.328  0.2430  0.2481 -0.3229
22780W        W38249  10.428   9.203  14.140 -0.0066  0.2444  0.1203
22781W        W38250  14.315   6.143  12.496 -0.0472 -0.1348  0.1110
22782W        W38251  12.476   1.773   4.625  0.0620  0.3258 -0.2838
22783W        W38252  15.331  10.342  13.851 -0.3081  0.0941 -0.0845
22784W        W38253   5.349   9.333   2.952 -0.1167 -0.1218 -0.1965
22785W        W38254  17.778  15.596   6.394  0.2219  0.0772 -0.0341
22786W        W38255  11.571  15.257   1.624  0.4051  0.2128 -0.4127
22787W        W38256   2.668  12.719   4.170  0.0718  0.1447 -0.0077
22788W        W38257  15.769   7.405  11.399  0.2237  0.0079  0.0462
22789W        W38258   5.758  12.543   3.139 -0.2420  0.1315 -0.1280
22790W        W38259   8.241   3.425   5.489  0.2845 -0.0603  0.2635
22791W        W38260  16.482   8.630  13.227  0.1371 -0.0446 -0.0158
22792W        W38261  17.189  10.169  15.169  0.0890  0.2224  0.4066
22793W        W38262  16.878   2.855   2.133 -0.3101 -0.0544  0.0627
22794W        W38263   8.900  15.822   5.214  0.1425  0.3612  0.3382
22795W        W38264   1.399   4.097   1.309  0.0005  0.1891  0.1323
22796W        W38265  17.496   2.374   4.264 -0.0575  0.1919  0.0289
22797W        W38266  10.145  18.250   4.132 -0.0468  0.1702 -0.3535
22798W        W38267   7.476   6.763   0.854  0.0217 -0.1658  0.2429
22799W        W38268   9.486  17.739   2.369  0.1533  0.1435 -0.0141
22800W        W38269   2.220   4.758   2.250  0.0359 -0.2721  0.2827
22801W        W38270   8.716  15.434  12.497 -0.0681 -0.0195 -0.0552
22802W        W38271   5.842  13.262   1.014  0.1823 -0.1064 -0.0802
22803W        W38272  14.609  17.805  13.364 -0.2087  0.2442  0.1563
22804W        W38273  15.341   8.667   2.980 -0.2370  0.0753 -0.1762
22805W        W38274   2.603   3.728   3.947  0.2004 -0.3109  0.1928
22806W        W38275  13.469   2.394  14.792 -0.0930 -0.3623  0.1217
22807W        W38276   8.339   5.938  13.181 -0.0788  0.2976 -0.2274
22808W        W38277  16.493   9.720  10.982  0.0662 -0.0618  0.1415
22809W        W38278  14.356   2.601   1.684  0.0185 -0.1655  0.1645
22810W        W38279   6.572   7.881  12.357 -0.2112 -0.3838 -0.1631
22811W        W38280  16.739  15.751  15.285 -0.1417 -0.1832 -0.2470
22812W        W38281  18.065   5.840  15.637 -0.2255 -0.0814 -0.0136
22813W        W38282   6.110  16.841  13.572  0.4108 -0.0130 -0.0573
22814W        W38283  10.042  17.240   5.461  0.1113  0.1255  0.1169
22815W        W38284   5.891   8.716   3.825  0.0052 -0.3601 -0.0395
22816W        W38285   4.329   6.499  10.718 -0.0537 -0.0872 -0.1568
22817W        W38286   6.120   5.090  15.796  0.4524  0.2457 -0.1691
22818W        W38287   2.122  14.713  12.267  0.2796 -0.2620  0.1892
22819W        W38288   2.860   0.700  13.875  0.0766 -0.0335  0.1106
22820W        W38289   8.049   1.387   2.075  0.1909  0.1494 -0.3610
22821W        W38290   3.644   8.343  13.516  0.0845 -0.2453 -0.1150
22822W        W38291  10.539  13.362  13.134  0.1698  0.1914  0.0181
22823W        W38292  10.105  12.648  14.717  0.2780  0.1147 -0.0823
22824W        W38293   1.137  16.833  14.301  0.1593 -0.0995 -0.1504
22825W        W38294   5.728  10.323   0.211 -0.1824  0.1564 -0.1096
22826W        W38295  17.635  12.050   5.615  0.0326 -0.2786 -0.1267
22827W        W38296  17.393  16.862   0.434  0.0765  0.1700 -0.0126
22828W        W38297   6.404   7.060   2.584  0.0280 -0.2265  0.0570
22829W        W38298  17.340   7.177  11.782 -0.0135 -0.1802  0.0058
22830W        W38299   4.045  10.587   5.288  0.0601 -0.2241 -0.0040
22831W        W38300  11.760  15.022  14.618 -0.2386 -0.1295 -0.2088
22832W        W38301   0.500   1.153  13.965 -0.0126  0.0636  0.0093
22833W        W38302   5.807   5.233  10.739  0.0935 -0.0985 -0.0380
22834W        W38303   9.673  12.721  14.987 -0.3882 -0.0231 -0.2454
22835W        W38304   3.682   7.315   4.255 -0.1648 -0.2150 -0.0100
22836W        W38305   4.250   1.110   3.236 -0.3481  0.0993  0.5456
22837W        W38306   1.557   6.294  12.029  0.4153  0.0230  0.2269
22838W        W38307  16.962  18.216   2.912  0.1084  0.1416 -0.0035
22839W        W38308   7.161  17.046  13.863  0.1804 -0.3166  0.0097
22840W        W38309  15.237  11.227  15.490  0.1460 -0.0030 -0.0676
22841W        W38310   0.513   0.386   1.707 -0.2834 -0.1400  0.0705
22842W        W38311   7.970  10.299  11.083  0.0284  0.1998  0.0150
22843W        W38312  18.033   9.809   0.940  0.0183  0.2973  0.2489
22844W        W38313   4.865   1.079  16.095  0.1864 -0.1662 -0.1119
22845W        W38314   8.343   4.974   2.022  0.0047 -0.0476  0.1038
22846W        W38315  13.267  15.296   4.033  0.1462  0.2165 -0.2142
22847W        W38316   0.643  10.318  10.479  0.2284  0.3462 -0.1600
22848W        W38317   4.086   4.239   4.891 -0.0877  0.2486 -0.2805
22849W        W38318   3.160  14.522  14.322 -0.3915 -0.1689 -0.0566
22850W        W38319   0.450  14.174   4.042 -0.1510  0.2485 -0.1465
22851W        W38320   7.991   0.023   0.469  0.5779 -0.2080 -0.2999
22852W        W38321   8.927  17.494  15.188  0.1457 -0.1293 -0.0658
22853W        W38322   7.094   9.031  11.127  0.0974  0.0029 -0.0019
22854W        W38323  10.201  16.965  14.278  0.1205 -0.0807 -0.3301
22855W        W38324   9.271  12.560   2.158  0.0197  0.0769 -0.0753
22856W        W38325   0.437  17.931   3.209 -0.2699  0.0537  0.3546
22857W        W38326  15.140  12.266   4.861  0.3053 -0.0663 -0.1067
22858W        W38327  18.089  12.363  12.674 -0.3504  0.0850 -0.1558
22859W        W38328   5.371   3.154   0.242  0.3189 -0.1367 -0.1792
22860W        W38329  18.004   2.455  13.255  0.0654 -0.2746  0.0376
22861W        W38330   5.382   9.888   1.481  0.0880  0.1723 -0.2560
22862W        W38331  13.719  17.012  14.958 -0.0826 -0.1124 -0.1643
22863W        W38332   1.667  12.303  16.054 -0.1684 -0.4722 -0.2563
22864W        W38333   0.081   2.705   4.101  0.0057 -0.2787  0.2165
22865W        W38334  12.029   8.046  15.123  0.2933  0.1737  0.2703
22866W        W38335   7.223  10.471   2.963  0.2744 -0.2084  0.0030
22867W        W38336  14.822   5.413   1.368 -0.0680 -0.0016  0.1841
22868W        W38337   7.985  12.036   3.046  0.0858  0.0807  0.3328
22869W        W38338   2.475   6.751   4.097  0.0765  0.0706  0.1619
22870W        W38339   9.489  17.815   0.152  0.1139  0.0733 -0.2122
22871W        W38340  17.081   9.722   3.519 -0.5140 -0.0047  0.1449
22872W        W38341   7.552   6.316  12.618  0.1743  0.1597  0.2458
22873W        W38342   8.742   3.631  15.535 -0.0205 -0.1250  0.3526
22874W        W38343   2.434  12.578   2.468 -0.2515 -0.0477  0.1175
22875W        W38344   3.001   7.831  12.462  0.2023  0.0270  0.0208
22876W        W38345  16.020  11.562   1.141  0.1657  0.2261  0.0372
22877W        W38346   1.196   3.983  10.778 -0.1304  0.4164  0.1221
22878W        W38347   8.955   5.282   1.510  0.1013  0.0699 -0.0515
22879W        W38348  11.705  12.136   1.471 -0.0482 -0.0137  0.1970
22880W        W38349   2.750   3.737   1.409  0.2261  0.1685 -0.0076
22881W        W38350   1.898   3.565   4.601 -0.1095  0.1220  0.1156
22882W        W38351  17.833   5.899   0.604 -0.1259 -0.0515 -0.3271
22883W        W38352   2.826  14.225  11.569 -0.1063 -0.1194  0.0964
22884W        W38353  10.566   5.065   2.249 -0.0466  0.1840  0.1346
22885W        W38354   3.139  12.589  10.396 -0.3682  0.2147 -0.1304
22886W        W38355   4.732   4.456   0.180 -0.0625 -0.1551  0.3266
22887W        W38356  12.206  14.435  15.659  0.1928  0.0550  0.1186
22888W        W38357  10.155  11.182   2.576 -0.0800 -0.1468 -0.1821
22889W        W38358   8.892   7.152   3.764  0.0029  0.3868 -0.1208
22890W        W38359  14.871   7.224  15.301  0.0042  0.0900 -0.0922
22891W        W38360   9.639  15.776  12.370  0.0484  0.2674  0.0394
22892W        W38361   1.258  11.309   3.632  0.3375  0.0400  0.0629
22893W        W38362  17.102   7.363   3.064 -0.0969 -0.1178  0.0734
22894W        W38363   3.669   3.466   2.907  0.1290  0.0937  0.0863
22895W        W38364   6.236   9.720   5.103 -0.2323 -0.1778  0.0721
22896W        W38365  13.459   9.224   1.776  0.1406  0.1196 -0.2150
22897W        W38366   9.715  17.612   2.928  0.2567 -0.0457  0.1975
22898W        W38367  15.277   4.091  15.472 -0.0942 -0.0128 -0.0903
22899W        W38368  18.196  11.636   0.921  0.1015 -0.1653 -0.0761
22900W        W38369  15.821   4.179  11.306 -0.0280  0.0487  0.1386
22901W        W38370  11.147   7.123   3.209  0.0924 -0.3645  0.0152
22902W        W38371  11.101   6.114   3.494 -0.2885  0.2777 -0.0280
22903W        W38372   0.999   1.590  13.198 -0.4317  0.0753 -0.2921
22904W        W38373   4.807   6.961  13.620  0.1993  0.1149 -0.1554
22905W        W38374  10.341  16.905   3.928  0.2062  0.0336  0.1063
22906W        W38375   6.471   6.506   0.868  0.0716  0.2096  0.2138
22907W        W38376  17.862  10.986  14.139 -0.1407 -0.0331  0.0689
22908W        W38377   0.442   8.175  14.891 -0.1323  0.2228  0.1284
22909W        W38378  14.840   9.833   5.593  0.1428  0.1819  0.1863
22910W        W38379   6.150  17.265   3.438  0.0416  0.0274 -0.0638
22911W        W38380  12.924   2.669  15.672 -0.3590  0.2124  0.0752
22912W        W38381  17.972  12.369  12.173  0.0385  0.2019  0.2131
22913W        W38382   0.492  14.240   5.016  0.0376  0.0443 -0.3138
22914W        W38383  18.179   7.620   5.585  0.2941 -0.2197 -0.0153
22915W        W38384  13.518   0.379   0.641 -0.3278 -0.0281 -0.1400
22916W        W38385   1.603   4.857   2.231 -0.1971 -0.0065  0.0504
22917W        W38386   7.404   0.138  12.829 -0.1570 -0.0183  0.1246
22918W        W38387   4.274   6.960   1.882  0.1443  0.1195 -0.0849
22919W        W38388   0.532   0.062   5.574 -0.1077  0.2636 -0.1541
22920W        W38389  17.458   1.394   4.714  0.2544  0.0464  0.1204
22921W        W38390   3.139  17.955  15.357 -0.1536  0.0946 -0.0746
22922W        W38391   9.112   9.597   0.068 -0.2684 -0.1354  0.1267
22923W        W38392  13.301   2.295   0.499  0.2207 -0.0766 -0.3212
22924W        W38393   1.003  13.763  12.334  0.3427 -0.2544 -0.0894
22925W        W38394   0.641   1.682  14.585  0.0606 -0.1401 -0.1474
22926W        W38395  10.051  16.006  12.575  0.2301 -0.0483  0.1364
22927W        W38396   4.317   3.782   0.686  0.2185  0.2345 -0.0884
22928W        W38397  10.985   4.177   1.093  0.3019  0.0508  0.0515
22929W        W38398   5.111   9.966   1.848  0.5336  0.1650  0.2681
22930W        W38399   8.874  10.620   3.175 -0.0426  0.1923 -0.2383
22931W        W38400  17.810   2.931  13.690 -0.2013  0.2164 -0.0224
22932W        W38401   1.959   3.317  11.772 -0.2119 -0.0462  0.1027
22933W        W38402  12.115   0.101  11.169  0.0335  0.3624  0.3121
22934W        W38403   9.736  10.431   1.602 -0.3092 -0.1235 -0.0168
22935W        W38404  10.948   6.799  10.873  0.1222 -0.0528 -0.2180
22936W        W38405   0.958   0.682  13.460 -0.1912 -0.1502 -0.3094
22937W        W38406  16.806   0.355  13.148 -0.0080 -0.0199  0.2368
22938W        W38407  15.773   2.778   3.477 -0.0235  0.2900  0.0016
22939W        W38408   4.650   6.542   3.158  0.1242  0.1744  0.1012
22940W        W38409   6.832  11.791   4.511  0.1446  0.4598 -0.0339
22941W        W38410  13.517  17.417   4.676 -0.1093  0.0319  0.3189
22942W        W38411   6.075  18.265  11.029  0.2415  0.0909 -0.0201
22943W        W38412  10.025  16.865  12.563 -0.0026  0.1313  0.0699
22944W        W38413   8.477  18.266   2.210 -0.0734 -0.1966  0.0914
22945W        W38414   5.819  11.236  15.589  0.3023 -0.2766 -0.2844
22946W        W38415   3.349   8.658  12.028  0.0732 -0.4455 -0.1061
22947W        W38416   9.956  13.571  12.278  0.1507  0.0538 -0.0518
22948W        W38417   5.972   3.990  12.220 -0.1040 -0.0158 -0.1050
22949W        W38418  15.794  15.309   2.718 -0.0585 -0.0093 -0.1637
22950W        W38419   1.819   9.561  14.877 -0.2025  0.2956  0.0729
22951W        W38420   0.923  10.269   3.159 -0.1925  0.3391 -0.0660
22952W        W38421  16.787   5.980   3.611  0.0085 -0.0274 -0.0053
22953W        W38422  17.055  10.752   1.098 -0.1977  0.1017  0.2144
22954W        W38423   0.400   0.976  12.662  0.0518 -0.3251 -0.0215
22955W        W38424   7.987  10.686   0.940 -0.1366 -0.3221  0.3313
22956W        W38425   6.326  15.890  13.538 -0.2876  0.2396 -0.2332
22957W        W38426   0.141   4.145  16.009 -0.0759  0.0258  0.0420
22958W        W38427   0.237  12.757   0.354 -0.1069 -0.1054  0.2006
22959W        W38428  15.746  13.226   4.030 -0.0591 -0.1124 -0.0896
22960W        W38429   6.263   4.133  14.706  0.0833 -0.0847 -0.2579
22961W        W38430   5.724   0.066  13.541 -0.0670  0.1176 -0.1465
22962W        W38431   6.315  16.602  11.371  0.0001  0.0324  0.1411
22963W        W38432  12.715  14.505   4.943  0.2918  0.0384 -0.1011
22964W        W38433   8.922  11.505  15.360  0.0339 -0.1519 -0.1589
22965W        W38434  11.512  10.539   2.195 -0.1722 -0.2699 -0.0566
22966W        W38435  13.012  17.255   0.833  0.3674 -0.1335 -0.0037
22967W        W38436   5.732   5.327   4.587 -0.0065 -0.1312  0.0198
22968W        W38437  13.033   7.630   3.852 -0.0840  0.4134  0.2120
22969W        W38438   0.574   6.976   0.729  0.1671  0.0268 -0.0816
22970W        W38439   9.568  10.108  14.015 -0.0034  0.0118 -0.0185
22971W        W38440   8.373   5.010   0.290 -0.1989  0.0386 -0.3219
22972W        W38441   1.537  16.308   6.306  0.0633 -0.1274 -0.0354
22973W        W38442   0.560   5.858  11.153  0.1561 -0.1583  0.2790
22974W        W38443   7.406   8.973  11.797 -0.3149 -0.2411 -0.2148
22975W        W38444  16.134  12.092   1.917  0.0981 -0.0660  0.2764
22976W        W38445   1.482   6.338   3.711 -0.0605  0.0676  0.0676
22977W        W38446  14.350   9.551  15.123 -0.1718  0.1666 -0.2370
22978W        W38447  11.952  16.141   1.928  0.1101 -0.0174  0.1514
22979W        W38448  13.479   1.150  15.009 -0.0027 -0.2777  0.0050
22980W        W38449  11.259   4.483  15.991 -0.0805  0.0699 -0.3203
22981W        W38450   0.294   0.801   1.800 -0.3358 -0.1623 -0.1300
22982W        W38451   0.314  11.208   0.414  0.3165  0.2942 -0.1233
22983W        W38452  13.244   4.943  15.725  0.1564 -0.3418 -0.0014
22984W        W38453   3.540  12.821   2.354  0.2774  0.2560 -0.2243
22985W        W38454   0.662   0.186   0.343 -0.1788 -0.3641  0.2903
22986W        W38455  13.269  12.035  14.621  0.0796  0.4811 -0.1328
22987W        W38456   7.503  10.952  10.823 -0.1064  0.1739  0.0659
22988W        W38457  17.118   7.250  14.809  0.0276  0.0944 -0.3672
22989W        W38458   9.246  13.771   3.589 -0.1098 -0.0685 -0.2718
22990W        W38459   8.620   3.794   3.761  0.2889 -0.1887 -0.1949
22991W        W38460   1.640  18.006   1.226 -0.0282  0.1906  0.4819
22992W        W38461   6.050   4.130   2.245  0.1786 -0.2150  0.0263
22993W        W38462   4.419   5.396  15.988 -0.1247 -0.2668  0.3733
22994W        W38463   9.722  16.516   4.892  0.1835 -0.2097  0.0635
22995W        W38464  17.622   4.690  12.548 -0.1430 -0.1931 -0.4451
22996W        W38465   6.369   7.481   0.304 -0.2495  0.2523 -0.4727
22997W        W38466   9.671   4.668   2.362  0.1103 -0.0492  0.0504
22998W        W38467  14.316   9.877  10.584  0.1268  0.1430  0.3543
22999W        W38468   0.562   9.411  14.913  0.0714 -0.0204 -0.0437
23000W        W38469   7.953   2.686  15.606  0.0164  0.1915 -0.2590
23001W        W38470   0.992  12.436  12.509 -0.2038 -0.1917  0.3419
23002W        W38471   0.123  16.065  13.284  0.0771  0.1210  0.5641
23003W        W38472   9.529  10.821   1.921 -0.0779 -0.1143 -0.2113
23004W        W38473  10.751  16.592   2.415 -0.0975 -0.1403  0.0208
23005W        W38474  13.847   8.910  13.486 -0.4271  0.3052 -0.1787
23006W        W38475  15.942   1.651  12.471  0.1093  0.2906 -0.0630
23007W        W38476   6.373  13.501   3.911 -0.1949  0.2938  0.2139
23008W        W38477   7.269  15.658  10.627 -0.0802  0.1396  0.0713
23009W        W38478   5.113   7.213  10.565  0.4188  0.0835  0.1959
23010W        W38479   1.114  17.748  15.260  0.0052 -0.0960 -0.1591
23011W        W38480  17.494  11.139  12.537 -0.1297 -0.0578  0.1344
23012W        W38481   3.758  16.110   4.154 -0.1082 -0.3029 -0.1064
23013W        W38482   6.499   8.865  15.804 -0.2083 -0.0405  0.0930
23014W        W38483  17.262  15.652  12.118 -0.1737  0.3630 -0.0105
23015W        W38484   9.256   3.950   4.533 -0.0256 -0.2111  0.2553
23016W        W38485   3.452  10.687   5.020 -0.4295 -0.0036 -0.2754
23017W        W38486   8.327  12.921  14.193  0.0743 -0.1853 -0.0250
23018W        W38487  18.039   0.697   1.061  0.1209 -0.1025  0.4341
23019W        W38488  13.615   1.463   3.935 -0.0983 -0.0335 -0.3045
23020W        W38489   5.210   4.037   4.259 -0.1046  0.0643 -0.2232
23021W        W38490  16.367  16.103  13.000 -0.1282 -0.0829 -0.0209
23022W        W38491   2.629   4.904   2.017 -0.1026 -0.0413  0.0114
23023W        W38492   0.594  10.997  13.157 -0.0745  0.1671 -0.1815
23024W        W38493   5.768  14.016  14.217  0.1731 -0.1352 -0.0191
23025W        W38494   3.390  10.074  13.702 -0.0243  0.0018 -0.0854
23026W        W38495   3.451   3.981  12.296  0.1368 -0.2313 -0.3704
23027W        W38496   9.643  17.438   0.459 -0.1547  0.0907 -0.2845
23028W        W38497  11.026   3.936   5.220 -0.0377 -0.1111 -0.1837
23029W        W38498  15.502  14.206   0.157 -0.0319 -0.1308 -0.1113
23030W        W38499   3.845   4.033  14.820  0.2302 -0.1519  0.0086
23031W        W38500   9.506  10.093  15.348 -0.3150 -0.0655 -0.0539
23032W        W38501   2.557   0.286  11.610 -0.1409 -0.1683  0.3057
23033W        W38502   4.385   6.794  11.668  0.1719  0.1449  0.0808
23034W        W38503  16.009  11.307  11.522 -0.0302  0.2160  0.0106
23035W        W38504   4.158  14.568   5.317  0.0396 -0.2052 -0.0529
23036W        W38505  17.420   8.133  15.983  0.1497  0.1710 -0.1384
23037W        W38506  13.708   0.106  11.826 -0.0103 -0.1048  0.2464
23038W        W38507   0.673  14.469  12.966  0.0071 -0.0903  0.1899
23039W        W38508   6.935  12.803   2.305 -0.0012 -0.1329 -0.0392
23040W        W38509  14.430  14.705  11.633 -0.0861 -0.0397 -0.0822
23041W        W38510   7.620   1.479   1.127  0.0561  0.3222 -0.2498
23042W        W38511  16.390   8.190   3.168 -0.0735 -0.0705  0.0691
23043W        W38512   7.029   7.919   1.681 -0.1155 -0.0564  0.2089
23044W        W38513   3.847   2.098   6.064 -0.0380  0.0131  0.3683
23045W        W38514   5.630   5.460   2.459 -0.0404  0.1516 -0.1332
23046W        W38515   7.011   4.375   2.175 -0.0010 -0.0472  0.4350
23047W        W38516   1.823   4.355  13.998  0.1743  0.2584 -0.2063
23048W        W38517  12.745   7.428   4.764 -0.2313 -0.2031 -0.1998
23049W        W38518   3.120  10.889   2.890  0.0908  0.4414  0.1359
23050W        W38519  15.803   9.577  14.013 -0.0951  0.1697  0.3014
23051W        W38520   2.549   3.327   2.388 -0.1300 -0.0368 -0.1323
23052W        W38521   9.014  15.076  12.215 -0.1666  0.0178 -0.3189
23053W        W38522  14.116  18.041  12.003 -0.1444 -0.1012 -0.1058
23054W        W38523   6.104  15.684   1.694 -0.0668  0.0543  0.0151
23055W        W38524  11.595  10.607   3.633 -0.3901 -0.0184 -0.1321
23056W        W38525  10.564  14.414   1.869 -0.1352 -0.1603 -0.2439
23057W        W38526  16.368   0.002   2.665  0.2691 -0.1754  0.1319
23058W        W38527   9.614   8.643  13.477 -0.1600  0.3937 -0.0267
23059W        W38528  15.116   0.951  12.630 -0.0030 -0.2738 -0.1591
23060W        W38529   0.976  16.140  13.526 -0.2019 -0.2909 -0.1304
23061W        W38530  13.220   9.670  14.891  0.1150  0.2024 -0.3340
23062W        W38531   7.615   8.153   1.948  0.0582 -0.1053  0.0212
23063W        W38532   0.435   0.639   2.325  0.1286 -0.1232 -0.0774
23064W        W38533   1.935   4.272  15.675 -0.2756  0.1313 -0.0617
23065W        W38534   3.233  10.292   0.792  0.3516 -0.0160 -0.3428
23066W        W38535   1.290  12.501   0.229  0.1497  0.0026  0.1030
23067W        W38536   5.347   1.424  13.038 -0.0614  0.1367 -0.1090
23068W        W38537   7.912  14.908   1.496  0.0757 -0.0937 -0.1499
23069W        W38538  14.406  17.621   2.979 -0.3774 -0.0792  0.0210
23070W        W38539  18.287  13.179   4.031 -0.0122 -0.0982 -0.0118
23071W        W38540   8.144  13.428   2.017  0.0544 -0.2207 -0.0966
23072W        W38541  14.197  10.906   2.262  0.2545  0.3759  0.3455
23073W        W38542   1.968  14.573  15.248  0.4085 -0.2043  0.0955
23074W        W38543   7.527   5.389  10.619 -0.1065 -0.2432 -0.1599
23075W        W38544  11.646   6.561   0.802  0.1007 -0.1462 -0.1618
23076W        W38545  17.152   3.873   5.254 -0.0318 -0.1005 -0.0409
23077W        W38546   4.457   9.323   5.829 -0.2374  0.1030  0.0248
23078W        W38547   6.496  12.100  12.360 -0.1956  0.0419 -0.2889
23079W        W38548  11.431   8.321   5.392 -0.1731  0.0413 -0.3293
23080W        W38549   5.986  17.962   0.120 -0.1715 -0.0005  0.2480
23081W        W38550   1.092   8.666  14.158 -0.0340  0.0631 -0.1446
23082W        W38551   6.932   0.261  15.380  0.0875 -0.2564 -0.2529
23083W        W38552   4.932   7.755   3.438  0.1173 -0.0546  0.2802
23084W        W38553  14.540  12.866   0.271  0.1281  0.0544  0.0208
23085W        W38554  15.437   9.087   1.758  0.0850  0.1936  0.3287
23086W        W38555   2.887  17.619   5.386 -0.1265 -0.3454  0.3762
23087W        W38556   0.109   0.578   2.930 -0.0844  0.0902  0.0018
23088W        W38557   1.572  13.348  14.410 -0.1645  0.0751 -0.0681
23089W        W38558  15.861  12.268   0.314 -0.0713  0.2278  0.0099
23090W        W38559  17.060  15.245  12.229  0.0412  0.2332 -0.1181
23091W        W38560   0.247   3.256   4.063  0.1631  0.1646  0.3053
23092W        W38561  13.860  14.070  15.109 -0.0090 -0.0601 -0.0183
23093W        W38562  13.367   6.483  10.965  0.0034  0.3542 -0.2422
23094W        W38563  14.631   5.542  13.126 -0.3935  0.1077 -0.2520
23095W        W38564  15.006  14.164   2.387 -0.2463 -0.1625  0.0978
23096W        W38565   7.776  16.074   3.509 -0.2201 -0.1866  0.0285
23097W        W38566  10.387  16.169   3.271 -0.1211 -0.0840 -0.1348
23098W        W38567   7.085  16.082  12.901 -0.2146 -0.2612 -0.0988
23099W        W38568   2.292  17.483   1.546 -0.1423  0.0883  0.0062
23100W        W38569   3.566   0.627   0.737 -0.0552  0.2162 -0.2501
23101W        W38570   3.713   6.031  13.737  0.1478 -0.1135  0.1621
23102W        W38571  10.603   8.649   3.384 -0.1462  0.1175 -0.0571
23103W        W38572   3.548   7.765   4.593 -0.4791  0.0308 -0.0984
23104W        W38573   6.869  13.991  14.900  0.3077 -0.0691  0.0400
23105W        W38574  13.347   6.996   4.913 -0.0828 -0.0650  0.2555
23106W        W38575   5.524   7.888   9.690 -0.2492  0.0311  0.1889
23107W        W38576   8.000  16.184   4.920  0.2737  0.0339 -0.0809
23108W        W38577  12.708   5.631  14.993  0.1607  0.2790  0.4263
23109W        W38578  17.113   9.228  12.878 -0.2889 -0.0684  0.2755
23110W        W38579   1.773  10.366  10.947 -0.1246  0.1756  0.0670
23111W        W38580   6.001  17.391  10.510 -0.4140 -0.1728 -0.1304
23112W        W38581   2.177   2.590   3.903 -0.1690 -0.3114  0.0738
23113W        W38582  11.267   3.410  12.933  0.0186  0.3576  0.0751
23114W        W38583  14.259   0.819  15.310 -0.0665  0.1326 -0.0613
23115W        W38584   2.874   6.658   3.398  0.0731 -0.0715 -0.3207
23116W        W38585   9.171   0.623  11.053  0.1048  0.2421  0.2653
23117W        W38586  13.207  11.352   1.239  0.0198  0.2344 -0.0882
23118W        W38587  12.927  14.231   0.915 -0.1837 -0.1912 -0.1130
23119W        W38588   2.354   1.277   3.782 -0.2313 -0.0413  0.0464
23120W        W38589  12.186  10.058  11.624 -0.0108  0.0244  0.2299
23121W        W38590   8.770   7.008  14.843 -0.0308  0.0311  0.0714
23122W        W38591  11.389   2.836   1.194 -0.2694 -0.0515 -0.0925
23123W        W38592  12.198  10.723  14.767  0.2209 -0.1396 -0.1005
23124W        W38593  10.579   8.081  11.816  0.0304  0.1424  0.1811
23125W        W38594  15.626  16.564   3.747  0.0586  0.3419  0.2904
23126W        W38595  15.699  16.408   5.597 -0.2018 -0.2677  0.0387
23127W        W38596   4.268   9.892  13.018  0.1159 -0.1931 -0.1557
23128W        W38597   1.177  10.620   1.893  0.3289  0.1336 -0.0516
23129W        W38598   3.567   1.598   1.970 -0.1830  0.1958  0.0211
23130W        W38599   6.510   5.313  13.316 -0.0520  0.0235  0.0463
23131W        W38600  11.586   1.459  13.985  0.0509 -0.2507  0.0100
23132W        W38601  12.179   5.775  15.745  0.0292  0.0539  0.1603
23133W        W38602  16.203   5.169   0.985 -0.1558  0.0699  0.0198
23134W        W38603  13.532  17.220  13.442  0.1848 -0.0658  0.0309
23135W        W38604  13.681   3.970   5.642  0.1442 -0.2806 -0.1233
23136W        W38605  11.390   6.147   5.573  0.1775  0.2704 -0.2512
23137W        W38606   8.491   5.810   3.124  0.3509  0.1935  0.0702
23138W        W38607   2.000   5.936   2.955  0.1756 -0.0411  0.1042
23139W        W38608  12.834  12.806   0.872 -0.0348  0.1260 -0.4491
23140W        W38609  11.063  10.881   0.835 -0.0389 -0.3572  0.2099
23141W        W38610  15.656   4.485  10.758 -0.2210  0.0767 -0.2820
23142W        W38611  13.155   3.388   6.099  0.2987 -0.2513  0.2790
23143W        W38612   8.391   8.368  11.619  0.0681  0.0197  0.0020
23144W        W38613  14.056   0.309  15.312 -0.0607  0.0059  0.0701
23145W        W38614   3.374   1.408   2.926 -0.1094 -0.0292 -0.0392
23146W        W38615   2.692  14.254   2.672 -0.2260 -0.2272 -0.0708
23147W        W38616  13.624  10.537  14.529 -0.1879  0.0121 -0.2298
23148W        W38617  15.157  17.486  13.553 -0.2708  0.0533  0.1881
23149W        W38618  10.431   2.379   2.349  0.0402 -0.4381 -0.0013
23150W        W38619  12.018   6.674   3.398  0.3812  0.1858 -0.0311
23151W        W38620  15.370  15.950  10.679 -0.1511 -0.0257 -0.0165
23152W        W38621  16.488  16.791  14.406 -0.0257  0.1091  0.1271
23153W        W38622   8.414  16.253  12.104 -0.1463 -0.1755  0.0633
23154W        W38623  12.150  17.379   0.469  0.1995  0.3366 -0.1352
23155W        W38624   8.929  16.758  15.673  0.0641  0.1690 -0.2420
23156W        W38625  17.189   2.754  16.109 -0.2071  0.0242  0.0971
23157W        W38626  14.815  14.182   1.456 -0.3293 -0.1981 -0.0995
23158W        W38627   0.961  13.083   0.665 -0.1536 -0.1454 -0.2296
23159W        W38628   8.383  13.539  11.777 -0.0149 -0.0989 -0.1197
23160W        W38629  15.620  14.457   1.907  0.1322  0.3590  0.1394
23161W        W38630   2.857  17.991   0.174 -0.0795  0.0101 -0.1085
23162W        W38631   9.914  18.249  12.474 -0.0090  0.1718  0.1643
23163W        W38632   7.273   8.631   1.227 -0.0795  0.0389 -0.0253
23164W        W38633  15.069  16.776  15.992  0.1841  0.2519  0.3840
23165W        W38634   5.773  10.525  14.362  0.0749 -0.0160 -0.1806
23166W        W38635   6.328   1.590  14.424  0.1782 -0.1661 -0.0207
23167W        W38636   4.968  12.051   4.617 -0.0297 -0.2066  0.1446
23168W        W38637   8.323  16.349  10.684  0.2939 -0.1152 -0.1684
23169W        W38638   6.099   9.175   3.830 -0.0174 -0.0836 -0.1172
23170W        W38639   6.079   1.633   5.684  0.2643  0.3471 -0.2125
23171W        W38640  16.336  17.324   3.338  0.0393 -0.0133 -0.1243
23172W        W38641   6.474  17.185  13.452  0.3658 -0.1308  0.2438
23173W        W38642  10.940  12.962  13.327  0.0412 -0.0381  0.1730
23174W        W38643   0.665   5.804  14.428 -0.2149 -0.1951 -0.3120
23175W        W38644  11.925   9.835  14.607  0.2488  0.1374  0.1744
23176W        W38645   3.420  16.396   0.103  0.0172  0.2161 -0.0587
23177W        W38646   7.686   7.637  15.906  0.0019  0.2580  0.4238
23178W        W38647   9.855  11.133   4.642 -0.3010  0.0699  0.0902
23179W        W38648   5.471  14.198   3.517  0.2087  0.1190 -0.0424
23180W        W38649   1.655   9.726   0.455  0.2401 -0.0332  0.1735
23181W        W38650  10.887   4.750   1.943 -0.0115  0.2314  0.2447
23182W        W38651  10.223   5.838   3.995 -0.0898  0.3109  0.3061
23183W        W38652   9.946  14.713  11.540  0.1229 -0.0061  0.0824
23184W        W38653   7.560   5.264  12.504 -0.0292 -0.0786 -0.1484
23185W        W38654  15.029  14.262  14.247  0.2037 -0.3294 -0.1719
23186W        W38655   2.079   3.869  10.848  0.1318 -0.1985 -0.1126
23187W        W38656  17.354   8.707  15.078 -0.3059 -0.1323 -0.1594
23188W        W38657  16.912   0.899  14.422  0.3612  0.1017 -0.0516
23189W        W38658   2.079  10.598  16.043 -0.0307 -0.1508  0.2661
23190W        W38659   3.865   5.598  14.850 -0.3165  0.0423 -0.1568
23191W        W38660   8.259   9.878  13.997 -0.1168 -0.1626  0.3336
23192W        W38661  13.699  15.680   0.486 -0.1155  0.0972  0.2979
23193W        W38662   2.781   0.371   1.392  0.2547 -0.0622 -0.0577
23194W        W38663  10.465   0.251   4.661 -0.2836 -0.0497  0.0228
23195W        W38664   8.880  12.238   5.223 -0.2239 -0.0689 -0.0983
23196W        W38665  14.763  11.358  14.951 -0.2160  0.2965  0.1896
23197W        W38666   7.731   2.348   3.687 -0.1937  0.3064  0.0428
23198W        W38667  11.269  15.883   0.126  0.2303  0.0607  0.1096
23199W        W38668  15.238  12.564  11.366  0.0512  0.2898 -0.1930
23200W        W38669  13.853   9.166   0.207  0.0073 -0.1033 -0.0417
23201W        W38670   5.082  15.223  12.125 -0.1682  0.0484  0.1431
23202W        W38671  10.398  16.279   2.460 -0.2583  0.1010 -0.1981
23203W        W38672  13.372  13.218  15.479  0.1724 -0.0248 -0.3060
23204W        W38673   6.098  17.570  14.634 -0.2000 -0.0636  0.0501
23205W        W38674   1.752  10.559  15.667  0.0849  0.0890 -0.2570
23206W        W38675   2.950  14.222   3.967  0.2081 -0.1202 -0.0676
23207W        W38676  16.108   9.742   1.657 -0.0030 -0.1331  0.0455
23208W        W38677  12.905  10.004   4.844 -0.0837  0.1360  0.0076
23209W        W38678   1.530   7.496   1.460 -0.0038 -0.2028 -0.0688
23210W        W38679  18.058  13.839   4.727 -0.0393  0.1349 -0.2463
23211W        W38680   8.725  13.203  10.982  0.2810 -0.3415  0.0316
23212W        W38681   0.980   2.509   4.690  0.0245 -0.0929 -0.0583
23213W        W38682  16.733  10.679  14.543 -0.0347  0.0597  0.1508
23214W        W38683   2.120  16.931  11.391 -0.1666 -0.1414 -0.2560
23215W        W38684   6.281   0.231  12.288  0.0593 -0.4863 -0.3206
23216W        W38685  14.439  17.046  12.949  0.2762 -0.1180 -0.2780
23217W        W38686   9.907  18.040   1.444 -0.1414 -0.2592 -0.3380
23218W        W38687  16.458  18.287   2.187  0.0745 -0.4143  0.2615
23219W        W38688   3.036  12.757  13.066  0.1385  0.1969  0.2317
23220W        W38689   6.544   1.148   3.858 -0.1820  0.2214 -0.0311
23221W        W38690   5.626   3.754   1.147 -0.2117  0.0858  0.0167
23222W        W38691   6.759   7.635   4.558 -0.1226  0.0955 -0.2616
23223W        W38692   4.491  14.296   4.769  0.1034 -0.2146 -0.2075
23224W        W38693  14.436   3.489  15.156  0.1832  0.0552  0.0302
23225W        W38694   8.572  11.922   0.145  0.1539  0.3872  0.0572
23226W        W38695  12.695   7.448  12.561 -0.0999  0.0116 -0.3532
23227W        W38696  11.413  16.055  10.334  0.0221 -0.2531  0.2011
23228W        W38697  13.825  13.511   3.193 -0.1998  0.3376  0.0985
23229W        W38698   6.079   6.397  16.034 -0.1725 -0.0433  0.0409
23230W        W38699   3.773   4.643  12.667  0.1262 -0.2140  0.0916
23231W        W38700   9.190   2.727   2.711 -0.1804  0.1902 -0.1992
23232W        W38701   4.512   8.486   0.764  0.0510 -0.0898  0.0287
23233W        W38702   0.719  12.062  15.578 -0.0879 -0.0835 -0.1700
23234W        W38703   5.784  16.989   0.253  0.3977 -0.3075 -0.0045
23235W        W38704  16.007  18.194   2.382 -0.1291 -0.4155 -0.4548
23236W        W38705  14.017  11.766   5.987 -0.2413  0.2368  0.1149
23237W        W38706  15.352   3.501  11.681 -0.2098 -0.0205 -0.2639
23238W        W38707  17.387   4.660   2.444 -0.1242 -0.0500 -0.1865
23239W        W38708   1.586   1.907  12.623  0.1117 -0.0825 -0.1274
23240W        W38709   6.797   1.786   3.616 -0.2268  0.3911  0.1007
23241W        W38710   5.487   6.143   2.983  0.0336 -0.4183  0.0290
23242W        W38711  10.112   8.186  15.584 -0.0743 -0.2480 -0.0687
23243W        W38712   2.662   9.991  13.078  0.0628  0.1502 -0.2723
23244W        W38713   0.464   6.394   2.727  0.0093 -0.0165  0.0215
23245W        W38714  10.856  15.496   3.997  0.1042  0.0873 -0.1360
23246W        W38715   0.439   9.748   3.745  0.1170 -0.1227  0.2733
23247W        W38716   2.173  16.347   3.717 -0.1861 -0.0678 -0.0467
23248W        W38717  15.950  13.549   2.466 -0.2881  0.1190 -0.2843
23249W        W38718  10.120   4.096  14.535 -0.0377  0.0993 -0.0298
23250W        W38719   8.944   3.317   5.243 -0.0845  0.0433 -0.1920
23251W        W38720   0.653  15.435  12.966 -0.1369 -0.0638  0.0150
23252W        W38721   0.100  10.106  11.344  0.1721 -0.5336  0.0755
23253W        W38722   3.205  13.634   2.034  0.1814 -0.0562 -0.0976
23254W        W38723  18.190   5.761   4.528 -0.2521 -0.2295 -0.0041
23255W        W38724   9.260   6.975   1.033  0.0357 -0.1971  0.1838
23256W        W38725  11.055  10.453  15.920 -0.0442 -0.1284  0.2538
23257W        W38726   4.572  10.364   4.335 -0.0760  0.1957  0.0587
23258W        W38727   9.966   5.178   4.759  0.1749 -0.1913  0.3919
23259W        W38728  10.393  15.671   4.006  0.2085  0.0012 -0.2550
23260W        W38729  10.520   1.733  13.435  0.1738  0.1923 -0.0881
23261W        W38730  11.335   2.259  11.723 -0.1359 -0.0021 -0.1698
23262W        W38731   9.315  16.310   4.654 -0.0854  0.0732 -0.2216
23263W        W38732   7.654   8.303  14.939 -0.1517  0.0265 -0.0283
23264W        W38733   4.887   8.688  12.756  0.1337 -0.4101 -0.0346
23265W        W38734  16.156  16.247  14.702  0.0557 -0.0230  0.0917
23266W        W38735   4.861  11.464  15.312 -0.2332 -0.1422  0.2999
23267W        W38736   0.961  11.942  14.795 -0.0721  0.1522 -0.2336
23268W        W38737  12.812  13.657  13.748 -0.1609 -0.2527 -0.0668
23269W        W38738   7.093  17.141   3.211 -0.0950  0.1389 -0.1026
23270W        W38739  13.472   7.935   2.142 -0.0995  0.2139  0.1449
23271W        W38740   3.250  12.378   0.274  0.1949  0.1164  0.0915
23272W        W38741  14.388   8.249   5.026  0.0802  0.2479 -0.0280
23273W        W38742  12.593  16.057  14.649  0.0229 -0.2156  0.0139
23274W        W38743   6.302   0.895  13.693 -0.1131 -0.1326 -0.1026
23275W        W38744  18.171  16.857   2.168  0.0346 -0.0247 -0.1294
23276W        W38745  10.363  10.185   0.871  0.1053 -0.1544 -0.3672
23277W        W38746  17.948   5.119   3.796 -0.1782 -0.0765 -0.1146
23278W        W38747  14.888  17.835   5.455  0.0113  0.1829 -0.0621
23279W        W38748  10.238   6.484  14.229 -0.1612  0.0228  0.3100
23280W        W38749   9.727  10.987   2.761  0.1197  0.0717 -0.0164
23281W        W38750  12.046  14.021  11.803 -0.0348  0.0538  0.0475
23282W        W38751   0.416  16.544   0.356  0.1384 -0.1666  0.0149
23283W        W38752  17.779   0.551  15.425  0.2466 -0.1100  0.0565
23284W        W38753   7.366   5.967  11.293  0.1387 -0.2843  0.0144
23285W        W38754  11.411   0.207   2.661 -0.1735 -0.0321  0.2677
23286W        W38755   9.139   1.632  14.583  0.0329  0.4782 -0.1966
23287W        W38756  13.038  10.664   0.400 -0.0044 -0.1176  0.0734
23288W        W38757  16.609   5.197  10.964  0.1997  0.0972 -0.0413
23289W        W38758  12.684   1.996  14.114 -0.0824 -0.2373  0.1376
23290W        W38759   9.462   9.773  14.862  0.0823  0.0352 -0.2604
23291W        W38760  16.852  10.269  14.841  0.3354 -0.2766 -0.0218
23292W        W38761  17.197   1.057  12.692  0.2855  0.2974 -0.0861
23293W        W38762   9.270   0.823   4.808  0.0200 -0.1208  0.1684
23294W        W38763   6.020  15.180   0.511 -0.0076  0.0411  0.2040
23295W        W38764   5.332   5.320   2.020  0.0392  0.2995  0.0295
23296W        W38765  15.118   5.298  11.241 -0.0536 -0.0036 -0.1632
23297W        W38766   8.072  12.477  14.099  0.1417  0.1899 -0.1665
23298W        W38767   0.869  10.346   6.020  0.0721  0.0460  0.0001
23299W        W38768  11.734  14.170  12.193  0.0794  0.3078 -0.0711
23300W        W38769   4.492   0.624  13.344 -0.2948  0.0929  0.0612
23301W        W38770  13.448   0.183   3.733  0.2627  0.1644 -0.5152
23302W        W38771   4.621   3.767   5.772 -0.0608  0.0708 -0.0490
23303W        W38772  12.632   3.390   2.154  0.2842 -0.0406 -0.1470
23304W        W38773  10.066   0.145   2.554 -0.3196  0.2026 -0.2189
23305W        W38774   9.479  11.573   0.647  0.0318 -0.0984  0.0528
23306W        W38775   0.997  12.059   3.790 -0.0122 -0.2945 -0.3543
23307W        W38776   2.037  13.769   3.254 -0.1224  0.1261 -0.1859
23308W        W38777   6.419  16.516   0.886 -0.3440  0.3974 -0.0291
23309W        W38778   8.092   6.539  14.728 -0.0695 -0.2329 -0.2651
23310W        W38779   2.234   1.776   2.918 -0.2595 -0.1020  0.2487
23311W        W38780   8.984   1.301  16.099 -0.0971 -0.3518 -0.1422
23312W        W38781  15.110   8.312   2.695 -0.1557  0.1192 -0.1263
23313W        W38782  18.173  15.045   4.894  0.0468 -0.1153 -0.3439
23314W        W38783  10.723  11.259  14.908  0.0353  0.0888 -0.0885
23315W        W38784  12.593   7.749   0.190  0.0731  0.1054  0.2123
23316W        W38785   1.903  13.196  15.293  0.0668 -0.1153  0.0732
23317W        W38786   2.192  15.045  14.887  0.0709 -0.1867  0.1136
23318W        W38787  14.370  11.954   4.428 -0.0051  0.2111 -0.1578
23319W        W38788  14.420   5.805   3.748 -0.1019  0.3480  0.1651
23320W        W38789  13.719   7.551  11.792  0.2417 -0.0454  0.2741
23321W        W38790   3.888   6.317  12.638  0.0963 -0.2042  0.0132
23322W        W38791  10.995   9.405   2.612  0.2375 -0.0960 -0.0743
23323W        W38792   1.875   9.916  14.229  0.0879  0.0179  0.0830
23324W        W38793   1.021   4.008  14.887 -0.0736 -0.1503  0.4390
23325W        W38794   6.113  15.008   2.404  0.1628  0.2387  0.1457
23326W        W38795  15.791   9.779   4.331 -0.0032  0.3262 -0.0866
23327W        W38796  13.453   9.636   4.242  0.0705 -0.1318 -0.0359
23328W        W38797  18.145   0.709  11.542 -0.0177 -0.1139 -0.1612
23329W        W38798   1.377   7.388   4.321  0.0142 -0.1302 -0.1288
23330W        W38799  12.759   1.957   3.895  0.1507  0.0034 -0.0819
23331W        W38800   6.615   7.436  13.801 -0.1370 -0.1603 -0.1755
23332W        W38801   6.463  10.644  15.537 -0.1946  0.4211 -0.1405
23333W        W38802  12.007  16.517  12.395 -0.2389  0.1114 -0.0295
23334W        W38803   1.390  11.783   3.933  0.0705 -0.0311 -0.1290
23335W        W38804   2.641  13.024   5.141 -0.1744 -0.1061 -0.1645
23336W        W38805   7.599  18.273  14.566  0.2413  0.1927  0.1584
23337W        W38806  17.897  12.153   2.430  0.0091  0.0180  0.1420
23338W        W38807  12.145   3.079  11.291 -0.0381  0.2985 -0.1585
23339W        W38808  14.602   0.530   3.807  0.6315 -0.0530 -0.1241
23340W        W38809  17.593   2.541   5.372  0.2171  0.1790 -0.0370
23341W        W38810   5.118  15.838   0.226  0.4093 -0.0698 -0.1671
23342W        W38811   5.055   2.918   1.107  0.0788 -0.2782 -0.3044
23343W        W38812  10.663   6.286  15.589  0.1834  0.3163 -0.1729
23344W        W38813   7.066   7.773   2.487  0.0921 -0.0619  0.1992
23345W        W38814   3.033   4.236   1.526 -0.0617 -0.1425 -0.0761
23346W        W38815   5.307   8.607  15.712  0.2067  0.1277 -0.0647
23347W        W38816   4.438   9.399   1.355 -0.1109  0.0027  0.0095
23348W        W38817   3.286   0.004   0.017 -0.0769  0.0573  0.3039
23349W        W38818  15.143  17.383   4.359  0.2256 -0.1264 -0.0268
23350W        W38819   3.197  10.589  14.314 -0.1486  0.0713 -0.1647
23351W        W38820   9.403   6.518  15.438  0.2418 -0.0345 -0.0281
23352W        W38821   0.125  11.860  14.234 -0.1159 -0.0538 -0.0275
23353W        W38822   0.189  11.940   1.269  0.1709 -0.1447 -0.2342
23354W        W38823  10.068   1.757  13.631  0.0142  0.0250 -0.5467
23355W        W38824   1.366   4.043  14.443  0.0158  0.2387  0.1569
23356W        W38825   5.556   1.335   1.205  0.0701 -0.1232 -0.0184
23357W        W38826   4.290  17.751  12.422  0.2116  0.0520 -0.0544
23358W        W38827  11.116   6.192  14.314  0.0983  0.0806 -0.0326
23359W        W38828   9.735   3.047   3.616 -0.1482  0.1035  0.2330
23360W        W38829  15.610  11.559   0.850  0.3111  0.0744  0.2165
23361W        W38830  12.275   8.002  12.904 -0.0299 -0.3216 -0.1128
23362W        W38831   2.203  16.107  10.955 -0.2347 -0.0333  0.0769
23363W        W38832  16.991   6.624   1.714 -0.0377 -0.0404 -0.1111
23364W        W38833  15.374   0.509   4.672 -0.0517  0.0687 -0.1690
23365W        W38834   3.436   1.319  13.962  0.1596 -0.1534  0.0239
23366W        W38835  13.844   3.865  13.517 -0.3149 -0.0338 -0.1884
23367W        W38836   4.391   0.120   0.790  0.0485 -0.0040  0.0412
23368W        W38837   1.196  17.321   1.795  0.4125  0.1139 -0.3730
23369W        W38838  17.294  12.125   0.461 -0.1649  0.1665 -0.1438
23370W        W38839   5.137  14.166   1.633  0.0485  0.0538  0.0524
23371W        W38840   8.007   0.332  11.472  0.1599  0.0379 -0.1669
23372W        W38841  12.546   5.410  14.364 -0.0445  0.1573  0.1481
23373W        W38842  13.368  17.373  11.688  0.0828  0.1584  0.1910
23374W        W38843   3.409   9.472  11.533 -0.0508  0.1648  0.1440
23375W        W38844  15.034  17.027   5.684  0.0800  0.1204  0.0397
23376W        W38845  16.599   7.015   4.671  0.4686 -0.1722 -0.3219
23377W        W38846  12.189  10.255   2.141 -0.3767 -0.3218 -0.2680
23378W        W38847  17.299  15.928  13.990 -0.2334 -0.2004  0.1361
23379W        W38848  11.641  12.608   0.717  0.2698 -0.0667  0.0759
23380W        W38849  14.792   0.832  15.389  0.1801  0.1268 -0.1842
23381W        W38850   0.042   0.497  12.046  0.2107  0.3235 -0.2383
23382W        W38851   1.587   6.158   2.083 -0.0735  0.1395  0.0208
23383W        W38852   6.637  17.711   4.187 -0.3263  0.1399 -0.1207
23384W        W38853   4.292  17.489   4.995 -0.2803 -0.2623  0.2154
23385W        W38854   4.854  11.957   3.352 -0.1695  0.0866  0.0913
23386W        W38855  17.733   2.905   0.689  0.1442  0.2572 -0.3238
23387W        W38856  15.336  13.279  15.218 -0.0226  0.1223  0.0343
23388W        W38857  14.246  15.476  12.946 -0.0995  0.2277 -0.0749
23389W        W38858   9.679   7.846  11.813 -0.2240 -0.2992  0.1488
23390W        W38859   8.423  11.678  14.289  0.2857  0.2456 -0.0580
23391W        W38860   6.448  12.936   5.244  0.1639 -0.2836 -0.2979
23392W        W38861   0.670  14.007   2.523 -0.1708  0.3053 -0.1670
23393W        W38862   0.480  10.266   0.530 -0.2560 -0.1005  0.2771
23394W        W38863   1.633   1.165   1.072  0.2584  0.0444  0.3200
23395W        W38864   9.250   6.662  11.226  0.0205 -0.2625  0.1570
23396W        W38865   4.995  18.124  10.034  0.3240  0.2513  0.0631
23397W        W38866   1.103  18.000   3.960  0.0262 -0.1589  0.3059
23398W        W38867   5.947   1.653  12.115  0.0099 -0.0880 -0.0736
23399W        W38868   4.854   1.904   0.155  0.1375 -0.1169  0.0555
23400W        W38869   7.337  15.545   1.268  0.2937  0.1036 -0.0418
23401W        W38870  10.125  10.347  13.736  0.3615  0.3737  0.0056
23402W        W38871  10.835  16.894   5.093 -0.3523  0.4092  0.0327
23403W        W38872   9.066  15.457  14.424  0.0570  0.1252 -0.3487
23404W        W38873   4.758  12.663  12.943  0.1169 -0.1053 -0.0451
23405W        W38874   9.193   1.364  13.336  0.0889  0.0107 -0.0814
23406W        W38875   5.690  12.854   4.245 -0.1607  0.0309 -0.1884
23407W        W38876  11.286  16.952   4.222  0.2121 -0.2708 -0.0145
23408W        W38877   6.936   9.214  14.499  0.0903  0.2059 -0.1486
23409W        W38878   5.304   9.923   0.186 -0.1595  0.1549 -0.1926
23410W        W38879   8.255  12.515   0.612 -0.0580 -0.2182 -0.2154
23411W        W38880  15.422  17.922   3.377 -0.0639 -0.2679 -0.2233
23412W        W38881  12.030  13.834   4.743 -0.1486 -0.1451  0.0718
23413W        W38882   9.220  12.028   4.803  0.0023  0.2057 -0.0774
23414W        W38883  13.533   8.344  11.304  0.1473  0.0339 -0.1064
23415W        W38884   1.676   1.150   1.633 -0.1517 -0.0083 -0.1615
23416W        W38885  10.935   5.908  13.920 -0.0031 -0.0849  0.2174
23417W        W38886   5.818  16.109   2.555  0.0796  0.1283 -0.1155
23418W        W38887  17.386   1.758  15.897  0.2947  0.3542 -0.0652
23419W        W38888  15.534  11.144  13.086 -0.0862  0.1745  0.2932
23420W        W38889  15.187  12.210   1.871 -0.0951 -0.0984  0.0966
23421W        W38890  16.056   8.633   3.829  0.0620 -0.0264 -0.0632
23422W        W38891   1.465   3.204   1.162 -0.1141  0.1705 -0.0013
23423W        W38892  15.506   1.270  11.025  0.3543 -0.0036 -0.1113
23424W        W38893   7.666  10.608  13.662 -0.0202 -0.0774 -0.1328
23425W        W38894   0.760  16.855   3.875 -0.1079  0.3516  0.0805
23426W        W38895   6.430   5.998   2.900 -0.0157  0.1384 -0.1474
23427W        W38896  14.466   7.400  11.212  0.0259 -0.0256 -0.0950
23428W        W38897  17.610  15.281  12.313 -0.2417 -0.0891 -0.1203
23429W        W38898   0.780  18.175  12.366  0.0750 -0.1959 -0.0785
23430W        W38899   3.171   5.231   2.978 -0.1235 -0.1387 -0.1072
23431W        W38900   8.867  16.400   4.962  0.3152 -0.0395  0.2439
23432W        W38901   6.887  15.456  10.896 -0.0683 -0.0020  0.0007
23433W        W38902   4.584   6.934   2.288 -0.2823  0.1062 -0.2271
23434W        W38903  10.996  14.302   6.031 -0.0454 -0.2187 -0.0945
23435W        W38904  12.575   7.298  13.438 -0.3121 -0.1506 -0.0960
23436W        W38905  14.965   5.575  14.860 -0.0157  0.0293  0.1936
23437W        W38906  11.212  14.478  14.584 -0.1476  0.2436  0.3733
23438W        W38907  15.472   4.556  15.222  0.0796  0.1488 -0.0931
23439W        W38908  12.581  14.183  11.900 -0.1252  0.3068  0.2019
23440W        W38909  11.801  11.014   3.345 -0.1900  0.0252  0.1398
23441W        W38910   7.883   7.469   9.765 -0.0346 -0.2308  0.2178
23442W        W38911   0.531   8.362   2.508  0.0471  0.0692  0.2877
23443W        W38912  12.415   4.002  13.372  0.2093 -0.0131 -0.2985
23444W        W38913  14.472   8.540   3.838 -0.0451 -0.0373 -0.2951
23445W        W38914  14.596  18.272   3.305 -0.1029  0.1483  0.1493
23446W        W38915  14.037  10.283   6.284 -0.1190  0.1093  0.5331
23447W        W38916   8.916  14.870  15.742  0.0294 -0.1894 -0.1443
23448W        W38917   4.020  12.623  11.802  0.2187 -0.0125 -0.0015
23449W        W38918  14.091  14.174  13.711 -0.0035 -0.0703  0.0514
23450W        W38919  15.797   2.402   1.515  0.0783 -0.0540 -0.0428
23451W        W38920  11.278   4.635  11.033  0.0762 -0.1596 -0.1253
23452W        W38921  10.618   9.856  15.800  0.1584  0.1948  0.2976
23453W        W38922   7.849  11.573  13.773  0.0923 -0.1969  0.2463
23454W        W38923   8.284  14.214  13.383 -0.3734 -0.1019  0.2384
23455W        W38924  15.288  15.893  12.904  0.2396 -0.1456 -0.2230
23456W        W38925  12.297   1.657  10.329 -0.1231 -0.2595  0.0860
23457W        W38926   5.750   9.078  13.872  0.0279 -0.2787  0.0920
23458W        W38927  16.241   0.623   0.082  0.1640 -0.4387  0.1123
23459W        W38928   8.531   3.437  13.887 -0.1129 -0.2089  0.1314
23460W        W38929   7.302  11.597  13.295 -0.1424  0.0222  0.2001
23461W        W38930   2.883   2.454  11.174  0.0270 -0.0588  0.1171
23462W        W38931   5.305   1.178   0.159  0.2465  0.1369 -0.0569
23463W        W38932  11.798  17.797   3.323  0.2689  0.0301  0.1306
23464W        W38933   6.175   5.886   1.931 -0.1620 -0.0657 -0.2084
23465W        W38934   9.139   2.860   5.769 -0.0287  0.2265  0.2765
23466W        W38935  11.891  14.026  13.614 -0.1119 -0.0585 -0.0928
23467W        W38936  12.523  12.249  11.518  0.0621 -0.1342 -0.0260
23468W        W38937   0.965   1.112  11.799 -0.1819  0.2412 -0.0735
23469W        W38938   8.721   5.047  10.903  0.2023  0.1160  0.4631
23470W        W38939   8.639   6.888   5.223 -0.0547  0.3268 -0.3239
23471W        W38940  11.410   1.091   2.571 -0.1644 -0.1305 -0.1033
23472W        W38941   6.313   5.704  15.118  0.1959  0.2080  0.1244
23473W        W38942   3.427  15.776   4.850  0.0547 -0.0122  0.0471
23474W        W38943  12.140   4.595  15.416 -0.3112  0.0493 -0.1002
23475W        W38944   1.638   5.228  15.407  0.2073  0.4213 -0.0209
23476W        W38945   8.289   2.311  12.173 -0.0166 -0.0709 -0.0996
23477W        W38946   3.490   2.663  11.437  0.1522 -0.2152  0.1317
23478W        W38947   9.972   2.449   3.204  0.1961  0.0046  0.3039
23479W        W38948   4.555   7.902  12.618  0.0400 -0.2432 -0.2904
23480W        W38949   5.572   5.705  10.626  0.0440  0.1316  0.3521
23481W        W38950  18.211  17.455  14.631 -0.1444  0.0449  0.2298
23482W        W38951  17.892  17.034   2.510 -0.1720  0.0233 -0.1779
23483W        W38952   1.535   9.487  13.493 -0.0393  0.3526 -0.4604
23484W        W38953   4.445  14.997  13.167  0.0473  0.3121 -0.1983
23485W        W38954   7.772   2.313  12.143  0.2555  0.3485 -0.1544
23486W        W38955   0.849   1.949   1.112  0.0962 -0.0987 -0.0649
23487W        W38956   2.006   7.717  14.874 -0.2013 -0.0086 -0.0135
23488W        W38957  15.952  15.020   4.908  0.1219  0.0704 -0.3039
23489W        W38958   9.558   2.200  10.904  0.0559  0.0566  0.2554
23490W        W38959   5.484   9.063   2.076  0.0550 -0.0009 -0.2157
23491W        W38960  14.362  13.663   2.027 -0.0837  0.0644  0.3300
23492W        W38961  11.884   7.726  11.691  0.2332  0.1454  0.2052
23493W        W38962   3.401  14.483   1.960  0.1114 -0.0275 -0.0188
23494W        W38963   2.495  12.097  13.076  0.0112  0.1557 -0.0719
23495W        W38964   0.104  15.377   2.120 -0.3369 -0.1233  0.0315
23496W        W38965  14.103  10.099  10.995 -0.1125  0.0092 -0.3584
23497W        W38966  16.036   8.211   5.168 -0.0455 -0.1849 -0.1932
23498W        W38967  16.448  13.488  12.896 -0.3089 -0.2027 -0.2025
23499W        W38968  18.134  14.498   2.831 -0.1406 -0.0304 -0.1813
23500W        W38969  17.118   4.046  11.846 -0.0501 -0.1582 -0.0901
23501W        W38970   4.602   3.912  11.698  0.0724 -0.1386  0.0091
23502W        W38971  10.207  11.003  11.117  0.0771 -0.2009  0.0619
23503W        W38972   6.292  13.318  11.644  0.4581 -0.2602 -0.2936
23504W        W38973  16.586   3.893  13.400  0.0403 -0.2228  0.0784
23505W        W38974  14.541  13.820   4.959 -0.1319  0.0803  0.0122
23506W        W38975  15.242  17.084   1.867  0.2677 -0.4063 -0.0476
23507W        W38976   0.718   5.857  12.666  0.1892 -0.1590  0.1011
23508W        W38977  17.313   8.355  13.658  0.2202  0.0238  0.0150
23509W        W38978  12.973   5.907  13.732 -0.1254  0.0999 -0.3421
23510W        W38979   2.031   3.116  14.043  0.1444  0.0219 -0.0642
23511W        W38980  15.153   3.127   0.382 -0.1564  0.2545 -0.2611
23512W        W38981  17.935  16.742   1.725 -0.1059  0.1278  0.4892
23513W        W38982  10.009  10.346   2.771  0.0330  0.2637  0.0494
23514W        W38983  16.396   5.400   3.102 -0.0764  0.0292  0.2762
23515W        W38984   1.960   7.754   2.118 -0.1469  0.0862  0.0320
23516W        W38985  14.362   1.504   4.912  0.1979  0.0374 -0.0303
23517W        W38986  12.630   8.714  15.326 -0.1026  0.1909  0.2947
23518W        W38987  17.582  17.679  16.075 -0.0443  0.1347  0.3302
23519W        W38988  11.383  14.177  10.281 -0.1418 -0.0942  0.1475
23520W        W38989   7.117   4.401   3.681 -0.0230 -0.1434 -0.1621
23521W        W38990   4.473   1.141   0.363 -0.2275  0.3792 -0.0918
23522W        W38991   2.821   7.713  14.824 -0.3076  0.2663  0.0728
23523W        W38992  10.885   8.860  13.004  0.1761  0.0039  0.3032
23524W        W38993   0.179   8.381  13.145 -0.2961  0.0844 -0.2140
23525W        W38994  13.866  16.077   2.383 -0.0969  0.0159  0.2177
23526W        W38995   4.373  16.927   0.569  0.1784 -0.1090  0.1944
23527W        W38996  13.661   7.884  15.626  0.1735  0.2559 -0.1181
23528W        W38997   4.450  11.946   1.134 -0.0546  0.2251 -0.1632
23529W        W38998   1.394   9.799  11.737  0.0343  0.1561  0.2402
23530W        W38999  13.911   2.887   4.717  0.1458 -0.0379  0.2016
23531W        W39000   0.386   1.792   1.241 -0.0075 -0.1239  0.1998
23532W        W39001   4.787   1.428  15.689 -0.2387 -0.0026 -0.0409
23533W        W39002   3.264   5.695  11.424 -0.1183 -0.0322  0.2726
23534W        W39003  14.162   8.679   4.909 -0.0180  0.0114  0.0349
23535W        W39004   4.836   6.179  15.667  0.1698  0.2235  0.0977
23536W        W39005   5.100  10.618  11.628 -0.3273  0.1760  0.0665
23537W        W39006   4.577  10.545  14.596  0.3320 -0.4257 -0.1612
23538W        W39007   4.280  11.836   1.599 -0.2737  0.1261  0.2415
23539W        W39008  11.474   2.278  10.389  0.0490 -0.3698  0.0539
23540W        W39009   7.156  15.238  12.019 -0.0409  0.1031 -0.5205
23541W        W39010   7.848   0.325   3.825  0.3122 -0.4307 -0.1345
23542W        W39011   1.145   0.398  13.824  0.1960  0.1574  0.1028
23543W        W39012  10.792   5.860   6.165 -0.1840 -0.2904  0.2323
23544W        W39013  10.188  10.942  14.428  0.0425  0.0930  0.0037
23545W        W39014  17.766   9.740   4.384  0.0696 -0.1200 -0.0108
23546W        W39015  15.430  12.248  12.343  0.0810  0.2093  0.0164
23547W        W39016  14.210   0.430   6.061 -0.0368  0.1464  0.1995
23548W        W39017  14.209   2.873   2.065  0.1478 -0.1455 -0.3536
23549W        W39018   6.517  14.116   1.373  0.2281 -0.1256  0.0438
23550W        W39019  11.684  16.927  13.265  0.2640 -0.2429  0.2629
23551W        W39020   4.011   4.551   3.911 -0.0439 -0.0066  0.1733
23552W        W39021   1.805  10.843  11.082 -0.0784  0.0682 -0.2698
23553W        W39022   5.611   6.155  13.925 -0.1628  0.0690  0.3984
23554W        W39023   7.867   8.937   4.488  0.0908  0.1134  0.0615
23555W        W39024  15.853   3.497  12.711 -0.0540 -0.2003  0.1691
23556W        W39025   5.667  15.792   5.049 -0.1699 -0.2114  0.1461
23557W        W39026   1.636  12.925   5.438 -0.1423  0.0240  0.1358
23558W        W39027   4.863  10.939  13.718  0.1281  0.1019 -0.2540
23559W        W39028  10.777   6.680   0.533  0.2187  0.0322 -0.2275
23560W        W39029  15.407   3.914   2.648  0.1825  0.0766 -0.0654
23561W        W39030   5.311   4.099  12.970  0.0293 -0.0808 -0.1190
23562W        W39031   6.439  17.276   6.024 -0.4620  0.0437  0.1782
23563W        W39032   1.744   1.464  14.856 -0.3259 -0.1984 -0.2324
23564W        W39033  14.148   7.439  14.055 -0.0186  0.0435 -0.1170
23565W        W39034  17.165  10.710  12.475  0.1569  0.0252  0.0574
23566W        W39035  17.358  10.857  14.159 -0.3139  0.0117  0.0791
23567W        W39036   6.857  16.082  12.140  0.1266  0.2148 -0.2226
23568W        W39037  16.781   8.869   5.046 -0.3137 -0.0905 -0.0424
23569W        W39038  10.701  11.308  13.507 -0.2142 -0.0670 -0.4597
23570W        W39039  16.082  15.342  15.258 -0.2419 -0.3312 -0.1337
23571W        W39040   1.356  17.526  11.743 -0.1945 -0.4355 -0.2143
23572W        W39041   4.826   2.763  11.186  0.1413 -0.2851  0.0922
23573W        W39042  14.552  17.803   1.998  0.3401  0.0968  0.2440
23574W        W39043   8.395   2.821   0.806 -0.0947 -0.0315 -0.2600
23575W        W39044  13.126   4.877   1.146  0.0858 -0.2283 -0.0559
23576W        W39045   8.475  12.508   5.477 -0.0106 -0.1323 -0.1022
23577W        W39046   6.162   2.948   2.722  0.0619  0.1614  0.0536
23578W        W39047   9.929  16.474   3.455 -0.2434  0.3320  0.0771
23579W        W39048  13.311   3.074   3.349 -0.3028 -0.0679  0.1257
23580W        W39049  15.986  13.227  11.639  0.0754 -0.1961 -0.1705
23581W        W39050  15.106  11.584  12.951  0.0001  0.2773 -0.2449
23582W        W39051   4.132   8.635   1.855 -0.0284  0.0008  0.2741
23583W        W39052   0.365  13.679   2.285 -0.1969  0.2195  0.1120
23584W        W39053  11.867  16.323   0.789 -0.1245 -0.0540 -0.1806
23585W        W39054  12.948  17.482  13.627 -0.1774 -0.2067 -0.1364
23586W        W39055   9.788   7.024   1.960 -0.0744  0.2867  0.0566
23587W        W39056  10.276  11.994  13.020  0.0288 -0.3154  0.2236
23588W        W39057   6.207   7.536  11.365  0.1142 -0.1086 -0.1386
23589W        W39058  16.125  12.016  13.991  0.0819  0.0262  0.0401
23590W        W39059  16.781   9.513  11.946  0.0884  0.1950  0.1576
23591W        W39060  14.937  16.365  15.343 -0.1675 -0.1425  0.1982
23592W        W39061   4.088   3.190   3.081  0.1852  0.3474  0.1368
23593W        W39062   4.275   5.957  14.850  0.0094 -0.2544  0.2082
23594W        W39063  16.103  13.175  13.739  0.0138  0.0709  0.0375
23595W        W39064   0.199  17.929  14.864 -0.0317 -0.2832 -0.1581
23596W        W39065   9.901   4.491  13.757  0.2180 -0.0038  0.0809
23597W        W39066   6.046   0.232  10.606 -0.2972 -0.1861  0.0753
23598W        W39067  14.481   5.367  15.622  0.1774 -0.0052 -0.1615
23599W        W39068  10.062  14.289   2.102 -0.0205  0.0300  0.3913
23600W        W39069  14.217   4.794   3.867  0.3946 -0.2370  0.1743
23601W        W39070   1.562   5.606   2.811  0.1127  0.0298  0.0991
23602W        W39071  16.405   2.585  11.538 -0.0477  0.1223  0.0619
23603W        W39072   2.470  10.917  11.547  0.1044 -0.1278  0.3079
23604W        W39073  13.996   7.375   5.494 -0.0565 -0.0439 -0.4312
23605W        W39074   5.838  17.643   1.840  0.0937  0.0531 -0.2363
23606W        W39075  13.599   3.571   5.126  0.2144  0.3446 -0.2456
23607W        W39076  15.133   2.640   3.578 -0.1308 -0.1052 -0.1675
23608W        W39077   8.695   5.060   2.506 -0.0942 -0.1710  0.1380
23609W        W39078   2.301   9.993  14.446  0.2924 -0.0949 -0.0636
23610W        W39079   4.298  12.047   3.254 -0.1910  0.0830  0.1001
23611W        W39080  15.645   9.020   2.614 -0.4989 -0.2501 -0.0223
23612W        W39081  17.222  17.342  15.723 -0.1213  0.0978 -0.1208
23613W        W39082   9.461  17.278  16.060  0.2053  0.0799 -0.1930
23614W        W39083  10.831   2.546  10.663  0.0346  0.1915 -0.0761
23615W        W39084   7.627   9.564  16.103  0.0501 -0.0783 -0.0918
23616W        W39085  12.050   4.060   5.309  0.1545 -0.1062  0.0467
23617W        W39086  14.362   3.883   3.964 -0.2680 -0.1207  0.1006
23618W        W39087  15.568  10.821  14.010  0.0739 -0.1113  0.2553
23619W        W39088   3.702  12.722  12.186  0.1027  0.1771 -0.1358
23620W        W39089   9.916   0.076   3.227  0.0538  0.0835 -0.1967
23621W        W39090   5.256   3.094   1.582 -0.0439  0.0091 -0.0997
23622W        W39091   1.150  14.787   1.661 -0.1600  0.1018 -0.1795
23623W        W39092   9.416  16.007   0.392 -0.1471 -0.3574  0.0657
23624W        W39093   4.741   8.068   0.874  0.1117  0.1791 -0.2197
23625W        W39094   2.272  16.352   1.682  0.0867 -0.2542  0.0291
23626W        W39095   2.838  12.404  12.764 -0.1035  0.0194 -0.0803
23627W        W39096  12.425   3.665  12.162 -0.1523  0.0157 -0.4038
23628W        W39097  11.052  13.688  12.457  0.0290 -0.1350 -0.0349
23629W        W39098  11.330   0.615  14.072 -0.0002 -0.0901  0.2071
23630W        W39099   7.178   5.679  15.996  0.1627  0.1806 -0.1053
23631W        W39100   0.628   0.857  14.848 -0.1855 -0.0825  0.1052
23632W        W39101   9.227   5.210  14.538  0.1465  0.0331 -0.1718
23633W        W39102  12.349  11.444   5.524  0.0661  0.1621 -0.1367
23634W        W39103   7.864  18.212  15.610  0.1440 -0.0370 -0.0454
23635W        W39104   7.715  13.158   4.304 -0.1504  0.0382  0.0747
23636W        W39105  14.589   0.767  11.786  0.2163  0.2501 -0.0621
23637W        W39106  13.739  18.189  15.302  0.0974 -0.1324 -0.3759
23638W        W39107   9.070   6.082   2.549 -0.0199  0.0013  0.2537
23639W        W39108  11.359   3.435  15.838  0.0955  0.0497 -0.2024
23640W        W39109   5.803  10.554   1.210  0.1350 -0.0216  0.0690
23641W        W39110   4.466  17.486   2.982 -0.0129  0.1754  0.2084
23642W        W39111  10.556   0.327  15.070  0.1130  0.0076 -0.2250
23643W        W39112  17.466  15.104   4.092 -0.0617 -0.0395  0.4284
23644W        W39113   8.817   1.550  14.135  0.0197 -0.0366 -0.0231
23645W        W39114  16.562  14.596   3.680  0.3284 -0.1712 -0.2305
23646W        W39115   0.269  12.503   4.702  0.0786 -0.0336 -0.2122
23647W        W39116   6.509   3.037  15.253  0.1038 -0.1712  0.0357
23648W        W39117  14.573  14.445   3.075 -0.3561  0.0164  0.2922
23649W        W39118  18.113   9.883   0.371  0.1772 -0.1303 -0.0274
23650W        W39119  11.758   5.852  13.876 -0.2573  0.2094  0.2723
23651W        W39120   5.103   2.081   1.852  0.0773 -0.0149  0.1161
23652W        W39121  10.133  11.039  13.108  0.2079 -0.0206  0.0333
23653W        W39122   6.496   5.253  11.475 -0.0472  0.1199  0.1414
23654W        W39123   2.477  10.478   1.425 -0.0079 -0.0805  0.2216
23655W        W39124   5.471   5.331  11.567  0.1264 -0.1711 -0.2771
23656W        W39125  10.664  17.634  11.684  0.3958  0.2694  0.2780
23657W        W39126   6.416   0.283   4.082  0.0545  0.1373  0.1461
23658W        W39127  18.125  12.666   5.275  0.0179 -0.2521  0.0886
23659W        W39128   9.950  15.304  14.310  0.2849 -0.1492 -0.2033
23660W        W39129  15.166  10.816  13.663 -0.1295  0.5486  0.1227
23661W        W39130  13.583   4.476   5.492  0.3160 -0.1125  0.1662
23662W        W39131   5.401   1.726  14.355  0.4242 -0.1760  0.1685
23663W        W39132  12.368  17.981   2.623 -0.0648  0.1327 -0.0913
23664W        W39133   2.845   5.507   5.273 -0.1825 -0.0560  0.1338
23665W        W39134  10.196   1.757   0.302 -0.0763  0.2645  0.1390
23666W        W39135   3.243   3.397  10.240  0.1178  0.1341  0.1921
23667W        W39136  10.502  10.698  13.715 -0.3140 -0.1161 -0.0917
23668W        W39137   7.896   8.190  14.104 -0.1150  0.1341 -0.2113
23669W        W39138  13.938   1.233   1.765  0.0072 -0.0339 -0.1311
23670W        W39139  15.020  12.163  11.556  0.0028  0.0626 -0.1069
23671W        W39140   2.862   6.000  15.983  0.1571  0.2373 -0.0873
23672W        W39141  16.199   1.259  15.451 -0.0104 -0.1135  0.2809
23673W        W39142  16.248   2.550  11.079 -0.0300  0.2265 -0.1913
23674W        W39143   4.097  14.419  14.083  0.2207  0.0714  0.1912
23675W        W39144   0.077   3.116   5.009  0.0936 -0.2704 -0.0165
23676W        W39145  11.812  17.563  15.774 -0.0703 -0.0440  0.1031
23677W        W39146   6.479  16.664  15.006 -0.0202 -0.1293 -0.1572
23678W        W39147  11.013   5.266   1.999  0.2083 -0.0102  0.1695
23679W        W39148   9.009  14.071   1.680 -0.1271 -0.0642  0.3604
23680W        W39149   7.403  11.322   4.913  0.3058  0.1347  0.2753
23681W        W39150  16.248  14.074   2.529 -0.0851 -0.2043  0.1255
23682W        W39151  17.237   6.378  12.938  0.0192  0.0439 -0.3018
23683W        W39152   4.125  13.815  12.059 -0.1502  0.2359 -0.0328
23684W        W39153   3.532   1.841  13.384 -0.0708  0.0216  0.0699
23685W        W39154   2.466  10.363  12.153 -0.0889 -0.0077 -0.2327
23686W        W39155   3.548  12.081  13.292 -0.3009  0.1487  0.1029
23687W        W39156   7.146  12.907  10.831 -0.1711 -0.0044 -0.1349
23688W        W39157   8.252   0.134  10.021 -0.1229 -0.1104 -0.1279
23689W        W39158   5.600   0.704   0.313  0.0014 -0.0521  0.0387
23690W        W39159  14.780  12.507   2.656 -0.0984 -0.2742  0.1050
23691W        W39160  15.067  10.869   6.001  0.0276  0.1748 -0.2990
23692W        W39161   5.533  15.327   4.861 -0.1511 -0.0287  0.1360
23693W        W39162   5.772  11.619  11.064  0.2020  0.0367  0.1069
23694W        W39163  16.580   8.391  14.669  0.0439 -0.2578 -0.0823
23695W        W39164   9.644   4.310  14.198 -0.1850  0.1199 -0.2407
23696W        W39165   4.672  10.852  11.542  0.1850  0.0874  0.0276
23697W        W39166  11.143  14.950  11.254 -0.1677  0.0788  0.1576
23698W        W39167   6.681   3.053  14.394 -0.2433  0.1932 -0.0512
23699W        W39168   0.387  14.628   4.194  0.1731 -0.0485 -0.3674
23700W        W39169   2.420   8.790   1.332  0.1947 -0.1826  0.1023
23701W        W39170   6.913   0.663   3.341 -0.0090 -0.2911  0.2217
23702W        W39171   8.906  14.172  12.183  0.2686 -0.0062  0.0540
23703W        W39172   5.928  13.692   3.896  0.1019  0.1069 -0.2061
23704W        W39173   3.155  15.494   3.059 -0.0725  0.0442 -0.0964
23705W        W39174  10.178  10.496  14.616 -0.0412  0.1964 -0.1100
23706W        W39175   4.965   8.214  12.618  0.0443  0.0324  0.0405
23707W        W39176  11.046   1.188  13.016  0.1987  0.1387 -0.1424
23708W        W39177  17.720   8.189   3.100 -0.1687  0.0137  0.0705
23709W        W39178   9.181   5.128   3.788 -0.1846  0.2731 -0.2149
23710W        W39179  12.452  14.142   1.083  0.0695  0.0081  0.0020
23711W        W39180  13.518  12.132   1.468  0.1140 -0.0312  0.3784
23712W        W39181  12.588   3.088  12.294  0.0150 -0.1091 -0.0056
23713W        W39182   7.331  17.718   6.205  0.2253 -0.0772  0.0710
23714W        W39183  16.641   0.549  12.178  0.2172  0.0723 -0.0675
23715W        W39184   9.811   6.932  13.137 -0.2262  0.3400  0.3290
23716W        W39185   1.161  13.658  15.957 -0.1484  0.3823  0.0310
23717W        W39186  18.043   9.680   2.389  0.1497 -0.2516 -0.0117
23718W        W39187   7.879  11.303   0.106 -0.1231  0.1261  0.1798
23719W        W39188  15.895   9.834  10.613 -0.0082  0.3636 -0.3366
23720W        W39189  17.145  13.232   3.661  0.0136  0.1575  0.4381
23721W        W39190   7.185   8.405  14.577  0.1117  0.1496  0.4476
23722W        W39191   7.046   2.885  15.475  0.2955 -0.0396 -0.1179
23723W        W39192   4.206   9.304  10.886 -0.1413  0.1488 -0.4099
23724W        W39193  16.831  11.089   2.991  0.0172 -0.1758 -0.0354
23725W        W39194  13.652   9.445   3.839  0.2338 -0.1428  0.0972
23726W        W39195  12.263  12.737  14.929 -0.0262 -0.2150 -0.2090
23727W        W39196   5.000  16.289   0.474 -0.1798 -0.1758  0.1040
23728W        W39197  15.213   5.112  16.077 -0.0841  0.1282  0.1103
23729W        W39198   9.776  12.775   4.116 -0.0757 -0.1823 -0.1125
23730W        W39199  10.096   5.284  12.285  0.1915  0.3940 -0.0207
23731W        W39200   9.813  11.659   1.873 -0.0288 -0.0312 -0.3076
23732W        W39201   5.683  17.073  15.330 -0.1262  0.0264 -0.0173
23733W        W39202  15.823   9.555  11.589  0.0526 -0.0967 -0.0356
23734W        W39203   3.714   3.010   4.010  0.3668 -0.2094  0.0401
23735W        W39204   9.084   1.854   3.481  0.1818 -0.4485 -0.1144
23736W        W39205   4.698   4.168  13.989  0.0923  0.3659 -0.0363
23737W        W39206   1.052  13.941  14.711  0.1683  0.1609 -0.1663
23738W        W39207   1.768   2.655  14.210  0.0611  0.2303  0.1165
23739W        W39208   7.831   5.505   0.876  0.1132  0.2641  0.1862
23740W        W39209  16.343  10.413   4.668 -0.1399 -0.2392 -0.0692
23741W        W39210  14.361  12.586  15.964  0.2879  0.0504  0.0294
23742W        W39211   8.289   1.816   1.896  0.4218 -0.0093  0.1341
23743W        W39212   1.955  18.091  13.747  0.2684  0.0138  0.1950
23744W        W39213   1.616   0.366  15.960 -0.1469  0.1074 -0.0721
23745W        W39214  15.804   3.340   3.533  0.2319  0.0105 -0.1280
23746W        W39215   0.312   7.583  11.271  0.0392 -0.0374 -0.0098
23747W        W39216   6.950   2.535  13.510 -0.2916  0.2398 -0.1577
23748W        W39217   8.669   0.153  13.132  0.1149 -0.1238  0.1886
23749W        W39218  12.555   9.505  13.877 -0.1056  0.1862 -0.2737
23750W        W39219  10.803  10.497  12.474  0.1401 -0.1530  0.2391
23751W        W39220   8.078   9.371  14.923  0.0357  0.0897  0.1395
23752W        W39221   9.125  15.665   0.205  0.3469 -0.0284  0.0033
23753W        W39222   0.911   8.381  11.229  0.0468 -0.0577 -0.0350
23754W        W39223   2.532  13.892   4.967 -0.0956 -0.1888 -0.2210
23755W        W39224   1.111   3.618  11.228  0.1993 -0.0116 -0.2433
23756W        W39225   9.464   3.115  12.393  0.2558  0.0111  0.0485
23757W        W39226  15.580   7.656  13.717  0.1579  0.0337 -0.3040
23758W        W39227  16.322   1.973  12.259 -0.1843 -0.0391  0.1029
23759W        W39228   1.235   1.367  12.233  0.1778 -0.1848 -0.2557
23760W        W39229  16.407   3.114   2.049 -0.2524  0.2084  0.2810
23761W        W39230  14.519  13.575  15.142 -0.2423  0.3363 -0.0895
23762W        W39231  10.978   6.934   4.815 -0.1267  0.3318  0.1347
23763W        W39232   5.955  16.568   5.418  0.3197 -0.1706  0.1078
23764W        W39233  16.143   3.790   2.738 -0.2120  0.0728  0.0074
23765W        W39234  14.963   8.383  12.069  0.0893  0.2775 -0.0413
23766W        W39235  10.068  15.123   4.805 -0.0030  0.1119 -0.2951
23767W        W39236  16.311   0.764   3.673  0.1380  0.1700 -0.1675
23768W        W39237  14.999  16.955  11.022 -0.0321 -0.2666 -0.0556
23769W        W39238  17.674   5.547  14.498 -0.0191  0.2378 -0.1177
23770W        W39239   5.836   6.572   3.234 -0.2551  0.3249 -0.4630
23771W        W39240   5.483   7.394  13.760  0.1020 -0.3193 -0.0230
23772W        W39241  16.869  13.224  12.550  0.0598 -0.1335  0.0486
23773W        W39242  11.350  14.244   2.417 -0.0125 -0.2013 -0.2519
23774W        W39243  13.135  17.459   3.627  0.1034 -0.0742  0.2029
23775W        W39244   2.517  14.505   3.668 -0.4414  0.0927  0.2112
23776W        W39245  15.547  17.885  13.827 -0.0873 -0.3602 -0.2035
23777W        W39246   9.801   0.537  14.119 -0.2096 -0.1227  0.1001
23778W        W39247   3.072   4.602   5.988  0.0279  0.0209  0.2206
23779W        W39248   5.270   9.684  14.429  0.0679 -0.1242  0.1043
23780W        W39249  17.428   0.889  14.587 -0.1416 -0.0226 -0.1239
23781W        W39250   1.011   9.841   5.270  0.0130 -0.1836 -0.1008
23782W        W39251  16.176   5.528  12.291  0.0730 -0.1047 -0.0271
23783W        W39252   0.598   5.349  12.042 -0.1633 -0.1315  0.0863
23784W        W39253  16.169   9.255  15.269  0.1455 -0.2380  0.3744
23785W        W39254   1.332  10.002   3.276  0.0185  0.1267  0.2669
23786W        W39255   1.844  16.114   1.740  0.0005  0.1407  0.0009
23787W        W39256   9.360  10.274  14.912  0.3895 -0.1797 -0.2050
23788W        W39257   9.435   9.332  13.547  0.1137 -0.0559 -0.2749
23789W        W39258  11.955   9.757   2.164  0.0854 -0.0495  0.1367
23790W        W39259  12.628   1.000   2.215  0.1443  0.0182 -0.0185
23791W        W39260   1.173   9.839  14.450  0.4058  0.0051 -0.3979
23792W        W39261  17.461  16.026  12.437 -0.1405  0.1189  0.1566
23793W        W39262  17.885  14.727   3.245 -0.2319  0.0773 -0.3304
23794W        W39263   8.658   6.870   3.247 -0.1214 -0.1720  0.2734
23795W        W39264   3.453   7.908   2.807 -0.0091 -0.1552 -0.1375
23796W        W39265   0.561   6.550   3.509  0.2954  0.0369 -0.0420
23797W        W39266  18.162   0.891  11.031 -0.1877 -0.0999 -0.2249
23798W        W39267   1.942  11.586  13.741  0.1503 -0.1507 -0.1359
23799W        W39268   5.568  12.911   2.320 -0.0171 -0.1810 -0.3141
23800W        W39269  14.250   9.807   4.557 -0.0640 -0.0397 -0.1518
23801W        W39270  13.847  14.617  14.064 -0.0670 -0.1982 -0.2730
23802W        W39271   2.713   6.448   2.948 -0.0106  0.2511  0.1868
23803W        W39272   6.706  13.849   0.806 -0.2339  0.5312 -0.0678
23804W        W39273  16.107   1.645  11.573 -0.1989 -0.2963 -0.0630
23805W        W39274   6.139   0.050   3.513 -0.2288  0.1820 -0.0620
23806W        W39275   1.373  15.834  14.620  0.1688 -0.1521  0.1090
23807W        W39276   7.446  17.371   0.993  0.0859 -0.0944  0.0288
23808W        W39277   8.369   7.565   2.489  0.2283 -0.2946 -0.1713
23809W        W39278  14.356  11.004  12.590 -0.1893 -0.0659 -0.0165
23810W        W39279   0.630  13.660  14.531 -0.0544 -0.1481 -0.0915
23811W        W39280  17.265   4.824  14.881  0.2894  0.2157 -0.1236
23812W        W39281   5.753  17.013   5.480  0.1331 -0.1676 -0.2265
23813W        W39282   4.528   1.442  10.983  0.0793 -0.0593  0.1379
23814W        W39283   1.807   3.046   0.622 -0.1002 -0.0576  0.0248
23815W        W39284  17.572   7.464  10.653 -0.3863 -0.1080 -0.2398
23816W        W39285   6.187   0.925  11.666  0.0223 -0.0007  0.2049
23817W        W39286   3.775   8.052   3.274  0.0398  0.1801  0.0718
23818W        W39287  10.100   8.027  11.053  0.0406  0.0143  0.2097
23819W        W39288  14.984  17.775  12.590 -0.0957 -0.0385 -0.2279
23820W        W39289  14.929   6.988  12.539 -0.0103 -0.0783 -0.2512
23821W        W39290   6.029   6.812  15.768  0.1930  0.0071  0.2315
23822W        W39291   0.345  11.141  11.445 -0.1269  0.1024  0.1699
23823W        W39292  14.791  13.442  13.964  0.0843 -0.0751  0.1350
23824W        W39293  17.071   4.549   4.632 -0.1951  0.0213 -0.0644
23825W        W39294   3.838   9.237   3.358  0.1186  0.0069  0.2683
23826W        W39295   9.473  16.386  14.206  0.4049  0.0250 -0.2478
23827W        W39296   3.132   5.164   1.863 -0.1391  0.0492 -0.3108
23828W        W39297  11.810  15.309   1.205 -0.1147  0.1101  0.0121
23829W        W39298  16.121  11.392  14.268  0.2252 -0.0140 -0.0322
23830W        W39299  14.492   1.711   0.846 -0.0220 -0.0204  0.0821
23831W        W39300  11.262  10.361   0.728 -0.0079  0.2922 -0.1369
23832W        W39301   4.955   7.177  11.399  0.1652 -0.1715  0.0740
23833W        W39302   2.121   4.875   3.837 -0.0530  0.1981  0.0141
23834W        W39303  14.655  10.112   4.237  0.0110  0.0373  0.0634
23835W        W39304  16.538   2.298   0.948 -0.0621  0.1837  0.0118
23836W        W39305   0.803   5.575  11.576 -0.0156  0.0042 -0.4736
23837W        W39306   2.866  13.959  13.487 -0.0192 -0.3254 -0.0780
23838W        W39307  12.883   5.490   5.703  0.1862  0.2162 -0.3595
23839W        W39308   2.151  15.062  11.146 -0.1747 -0.2060  0.0332
23840W        W39309   8.772   1.430   2.625  0.0155 -0.1723  0.0812
23841W        W39310  12.387  14.102   2.739  0.1300 -0.1020  0.3596
23842W        W39311  17.897   6.041  13.498  0.1150  0.1139  0.0005
23843W        W39312   4.902  14.025   3.118  0.0249  0.0167 -0.0676
23844W        W39313   1.677   7.693   2.731 -0.0402  0.2873 -0.1680
23845W        W39314   0.484   3.497  11.906 -0.2242  0.2717 -0.0041
23846W        W39315   3.359   0.944  15.741  0.2254  0.1614 -0.4252
23847W        W39316   9.818  15.385  11.509 -0.0623  0.1332 -0.0793
23848W        W39317   4.429  14.504  11.650  0.1801  0.2052 -0.1003
23849W        W39318  17.685   6.567  10.210  0.0964  0.1274  0.1044
23850W        W39319  17.898   9.185   4.463  0.1258 -0.1263 -0.2989
23851W        W39320  12.391   4.589  14.064 -0.2972  0.0198 -0.0489
23852W        W39321   7.253  11.927  10.792  0.1745  0.4479  0.1620
23853W        W39322  10.184  14.127   0.733 -0.2711 -0.1893  0.0111
23854W        W39323   5.241   5.998  13.525  0.1948 -0.2158  0.0261
23855W        W39324  16.516   1.380  14.805 -0.2179 -0.0780  0.2219
23856W        W39325  18.122   8.347  14.515 -0.1884  0.1073 -0.2883
23857W        W39326   4.260   6.276  13.025  0.1754 -0.4846 -0.2337
23858W        W39327   6.724   2.736   3.311 -0.2272  0.1446 -0.0742
23859W        W39328   5.607   7.072  11.283  0.0522 -0.0627  0.4120
23860W        W39329  16.577  15.926  14.824  0.1338 -0.0352 -0.3811
23861W        W39330  18.148  13.269  11.498 -0.0642 -0.0450 -0.0901
23862W        W39331  10.117   8.261   2.530 -0.1190 -0.3836 -0.0477
23863W        W39332   1.783   5.160  14.431  0.2260 -0.0352  0.1369
23864W        W39333   4.448  14.630  14.459  0.0773  0.1046  0.3134
23865W        W39334   9.544  11.881  14.332  0.0244 -0.1706 -0.0127
23866W        W39335  15.015  13.388  11.398 -0.1558  0.3837 -0.2997
23867W        W39336   0.039  15.634   3.738  0.2831  0.2542 -0.0203
23868W        W39337  12.297  10.322  13.499  0.2099  0.1255 -0.0814
23869W        W39338   3.674   4.930   3.074  0.3747 -0.0098  0.3089
23870W        W39339  17.595  12.551   1.244 -0.1532  0.0868  0.2568
23871W        W39340   8.348  14.981  13.731 -0.3027  0.0392  0.0021
23872W        W39341  15.915  10.553  13.776 -0.0292  0.0740  0.0854
23873W        W39342  18.208   8.743   4.431 -0.4718  0.0821  0.3245
23874W        W39343   1.659   0.401   3.864 -0.1595  0.2649 -0.0057
23875W        W39344   8.204   0.786   3.122 -0.0381  0.0553  0.0570
23876W        W39345  10.371  15.077  14.077  0.1772  0.1435 -0.0831
23877W        W39346   1.988  12.150  14.620 -0.1732  0.1844  0.0367
23878W        W39347   2.214   4.186  11.726 -0.1030  0.0319  0.1304
23879W        W39348  14.464   5.293  12.663 -0.0973 -0.0883  0.1779
23880W        W39349   4.273   9.721  14.897  0.1353  0.0964 -0.4244
23881W        W39350   2.179  13.758   3.866 -0.0541  0.0591 -0.0249
23882W        W39351  16.649   2.862   1.699  0.0420  0.0667  0.1510
23883W        W39352   6.586   3.274   2.539  0.0078  0.0045 -0.0785
23884W        W39353   1.005   9.462  13.211  0.2138 -0.0817 -0.0059
23885W        W39354   2.449   7.310   0.537  0.0681 -0.1408  0.1490
23886W        W39355  17.723   3.567  15.736 -0.0737 -0.1566 -0.0044
23887W        W39356   3.134   8.290  13.337 -0.1011  0.0771  0.0926
23888W        W39357   0.277   4.345   3.637  0.1573  0.0041 -0.0659
23889W        W39358   7.530  11.523   3.140 -0.0823 -0.2143 -0.2611
23890W        W39359   0.481   7.995  13.918  0.1088  0.1373  0.1783
23891W        W39360   2.557  16.462   0.546  0.1497 -0.2085  0.0450
23892W        W39361   7.412   4.013   3.026  0.1046 -0.0676 -0.5365
23893W        W39362   0.566   6.855   0.214  0.1730  0.0925  0.1155
23894W        W39363   6.796  10.334  10.870  0.0261  0.0222 -0.0758
23895W        W39364   9.294  14.430   3.028  0.1439  0.2776  0.1288
23896W        W39365  18.222  11.620   2.992  0.2445 -0.0140 -0.3359
23897W        W39366   3.533   7.394  13.404  0.2802  0.1294  0.0513
23898W        W39367   8.309  13.278  16.019 -0.0316  0.1898 -0.0426
23899W        W39368   1.820  15.255  14.128  0.0506  0.1364 -0.0068
23900W        W39369  11.810   9.711   3.664  0.3005  0.0366 -0.1908
23901W        W39370   4.079  15.805  12.209 -0.3665 -0.1151  0.1575
23902W        W39371  16.820  10.741  10.817 -0.4514 -0.3617 -0.2360
23903W        W39372  13.168  10.422   1.562  0.1496 -0.2470  0.0341
23904W        W39373   4.931  17.439  13.064 -0.0828  0.0847  0.0088
23905W        W39374   6.936   3.872  12.370 -0.1123  0.1835 -0.1282
23906W        W39375  11.022   0.503   3.783 -0.1527  0.0674  0.0158
23907W        W39376   0.431  12.395   6.510 -0.0743  0.0175  0.3276
23908W        W39377  18.034  17.589   5.421 -0.0300 -0.0386 -0.0701
23909W        W39378  11.867   9.599   6.376  0.0433  0.2245 -0.3378
23910W        W39379  10.676  10.520  11.858 -0.0640 -0.1379 -0.0754
23911W        W39380   8.181  14.999   1.897 -0.2235  0.3132  0.1765
23912W        W39381   1.606  13.315   0.116  0.0658 -0.0924  0.1517
23913W        W39382   5.896  18.280   0.972 -0.4861 -0.0911  0.3183
23914W        W39383   4.934  11.366   5.419  0.0728 -0.1664 -0.0056
23915W        W39384  10.774  10.698   3.490 -0.1131  0.0949 -0.0477
23916W        W39385   2.491  11.381   3.251 -0.0416  0.2075  0.0220
23917W        W39386  15.045   9.022   5.538 -0.0230 -0.0596  0.0497
23918W        W39387   3.293  15.841   0.884 -0.0425 -0.0413 -0.2194
23919W        W39388   1.006   7.618  14.176  0.0689 -0.1391  0.0190
23920W        W39389  17.701  17.209   3.002  0.2354 -0.1300  0.5735
23921W        W39390   6.453  14.927   2.053 -0.0078 -0.0967  0.2007
23922W        W39391   3.560   2.231   2.256  0.2761  0.0358 -0.0269
23923W        W39392  12.568  10.582  12.382  0.0676  0.0105 -0.3729
23924W        W39393   9.117   3.180   2.585 -0.0227  0.0050 -0.2042
23925W        W39394   7.945  17.932  13.345  0.0136 -0.0872 -0.1556
23926W        W39395   5.877  10.594  11.816  0.0088 -0.2693  0.0474
23927W        W39396   0.137  14.332   0.093 -0.1514  0.0883 -0.0187
23928W        W39397  14.037   2.653  10.944  0.1719  0.2837  0.0430
23929W        W39398   8.424   8.418   1.950 -0.0928 -0.1956  0.3039
23930W        W39399   5.852   1.411  14.999  0.2404 -0.4604 -0.1765
23931W        W39400  10.659  14.098   4.991  0.1130  0.3204 -0.0847
23932W        W39401   2.368   2.985   0.456  0.0947  0.2375 -0.1023
23933W        W39402   0.100  11.301  16.093  0.0303 -0.1772  0.2081
23934W        W39403  16.251   8.753  10.595  0.3007  0.1781  0.2355
23935W        W39404   3.445   4.673   1.741  0.0379 -0.0651 -0.0706
23936W        W39405  17.845   2.992   1.968  0.1240  0.1160 -0.0735
23937W        W39406  10.690  10.224   3.533  0.4503  0.2414 -0.0276
23938W        W39407  16.400  10.250  12.618  0.2765  0.0209  0.1786
23939W        W39408  16.760   6.927  11.243  0.0510  0.2069  0.4306
23940W        W39409   6.731  10.799   1.285  0.0999 -0.1146 -0.0186
23941W        W39410   7.792   3.219  13.146 -0.2082 -0.0167  0.1633
23942W        W39411  10.556  17.793  11.196  0.1704  0.3199  0.0126
23943W        W39412   4.519  15.301   3.057 -0.2603  0.1733  0.0389
23944W        W39413  11.371  14.181   4.251 -0.0904  0.2585  0.3249
23945W        W39414   8.239   2.927  13.924  0.2749 -0.0384  0.1449
23946W        W39415  16.106  11.473  10.555  0.1775 -0.2875  0.4150
23947W        W39416   4.056  18.076  11.135 -0.3255  0.0863  0.0354
23948W        W39417  14.672  16.107  11.316  0.0694  0.0697  0.4811
23949W        W39418   3.394   6.057   4.786  0.0292  0.1231  0.2875
23950W        W39419  10.504   7.179   1.325 -0.0602  0.0371 -0.2111
23951W        W39420  15.967   5.715  10.353 -0.2548  0.1201 -0.0981
23952W        W39421   6.031  14.255   1.210  0.1065  0.2132  0.0935
23953W        W39422   3.974   3.934   1.489 -0.1248 -0.3459  0.1253
23954W        W39423   0.757   4.303   0.739 -0.1226 -0.1232 -0.0278
23955W        W39424  16.745  11.797   4.329 -0.1896 -0.1176 -0.4341
23956W        W39425   8.962   7.691   1.764 -0.1735 -0.0907 -0.2845
23957W        W39426   0.851   2.446  15.302  0.1573 -0.5976 -0.0373
23958W        W39427   7.115   0.587   2.480 -0.2512 -0.2751  0.1263
23959W        W39428  10.945   6.985   1.738 -0.0023  0.0145  0.1178
23960W        W39429  11.592   0.543   1.229 -0.0979 -0.1014 -0.0859
23961W        W39430   4.986   8.430   0.576  0.1141  0.5737  0.1468
23962W        W39431   7.878   6.745  12.624  0.0323 -0.1199 -0.1840
23963W        W39432  13.774  17.092   4.273  0.0573 -0.1576  0.0081
23964W        W39433  13.087  15.577   4.783 -0.0746 -0.2158 -0.2825
23965W        W39434  15.916   7.214   4.032 -0.0268  0.3106 -0.0481
23966W        W39435   1.094  16.329  14.790 -0.0201 -0.0624 -0.0142
23967W        W39436  16.622  14.731   1.821  0.0191  0.1367 -0.0706
23968W        W39437  17.956   1.491   4.268  0.0620  0.0725 -0.1930
23969W        W39438  16.735  11.816  10.251 -0.0951  0.0519  0.1715
23970W        W39439   1.218   7.918  13.056  0.2216 -0.1469  0.1050
23971W        W39440   9.302  15.673  10.870 -0.1199 -0.0947  0.0419
23972W        W39441   2.037   6.528  14.719 -0.2267  0.0894  0.1478
23973W        W39442   8.168   5.656  15.566 -0.0812 -0.1055 -0.4287
23974W        W39443   2.245  12.029   3.321 -0.4216 -0.0320  0.1348
23975W        W39444  14.725  18.009  15.662 -0.1580 -0.1412 -0.0902
23976W        W39445  17.908   2.142  12.723  0.0929 -0.2928  0.2221
23977W        W39446  16.334  12.432  10.739  0.0680 -0.1599  0.1680
23978W        W39447  13.331   9.164   5.355  0.1394 -0.1530 -0.2012
23979W        W39448   1.034   3.954   1.666  0.2889 -0.2657 -0.1906
23980W        W39449   4.118   6.324   0.101 -0.2511 -0.1648  0.0163
23981W        W39450   2.228  16.388   2.781  0.1978 -0.0169 -0.0746
23982W        W39451   8.587   6.467   3.674  0.2492 -0.0142  0.0435
23983W        W39452   9.502  15.249   3.431  0.0503  0.1333 -0.1871
23984W        W39453  17.652  13.446  14.076  0.1728  0.0225  0.2821
23985W        W39454   2.453  16.044  14.325  0.0407 -0.2568 -0.1115
23986W        W39455   3.434   2.577  14.865  0.0510  0.0844  0.2699
23987W        W39456   3.658  13.895  12.738  0.3898  0.1636 -0.0797
23988W        W39457   4.490   7.992   1.285 -0.1365 -0.0134  0.0739
23989W        W39458   4.976   6.500  13.545  0.0401  0.1890  0.4202
23990W        W39459  16.895   1.652  15.646 -0.1726 -0.0456  0.2165
23991W        W39460  12.754   8.273  15.633 -0.2008  0.2472 -0.2308
23992W        W39461   0.693  17.793  14.627 -0.3740 -0.0796  0.1502
23993W        W39462  14.437   2.173   1.092  0.2589  0.0214 -0.1318
23994W        W39463   3.820  16.547  14.188 -0.1344  0.0093  0.0182
23995W        W39464  14.574   6.632  11.644  0.0103  0.2475  0.3229
23996W        W39465  12.349   2.890  14.488  0.2000 -0.0367 -0.2565
23997W        W39466   4.305  15.060   3.469  0.2085 -0.0178 -0.0053
23998W        W39467   5.907   3.642  11.815 -0.1881  0.0814 -0.0299
23999W        W39468   4.577  16.838  15.298  0.1773 -0.0093 -0.4820
24000W        W39469   8.741  10.666  12.016  0.1714 -0.2203 -0.2709
24001W        W39470   7.031  10.786  14.441 -0.1177 -0.1459 -0.2782
24002W        W39471   9.972   1.260  13.123  0.2985  0.2669 -0.1792
24003W        W39472  15.357  10.142   0.869  0.4376  0.0868 -0.0209
24004W        W39473  10.202   7.018   4.020  0.1553  0.0796  0.2876
24005W        W39474  13.153   2.402   2.359  0.0007 -0.0014  0.0296
24006W        W39475  12.165   0.836   2.047  0.1174 -0.4402 -0.1026
24007W        W39476   4.171   4.581   0.912  0.1372  0.0003 -0.0719
24008W        W39477   4.711   0.678  11.379 -0.2379 -0.1089 -0.0839
24009W        W39478   2.936   6.265   4.872  0.1886  0.1819 -0.1395
24010W        W39479  15.189   8.110  15.674  0.1653 -0.2478  0.4186
24011W        W39480  12.214  13.278   0.585 -0.3537 -0.0613  0.2086
24012W        W39481   0.004   6.670   0.829  0.1571  0.1532  0.0658
24013W        W39482   1.918   0.894   4.047  0.0568 -0.3698 -0.1343
24014W        W39483  16.070   2.517   1.106 -0.0175 -0.1258 -0.1102
24015W        W39484   5.298  17.713  12.226 -0.2364 -0.1613 -0.0870
24016W        W39485   2.906  10.292  11.950 -0.1865  0.0313 -0.2219
24017W        W39486   2.139   9.385   2.624 -0.0736  0.0577 -0.1451
24018W        W39487   0.724  13.855  13.627  0.0923  0.3007  0.0142
24019W        W39488   8.691   4.450  13.137 -0.0963  0.0598  0.0100
24020W        W39489   5.670  15.022   0.960 -0.0529 -0.0505  0.3117
24021W        W39490  16.007  15.067  11.522 -0.0039  0.1140  0.0469
24022W        W39491   4.268   2.100  11.721 -0.2509 -0.1117 -0.0007
24023W        W39492   7.358  10.459  10.961  0.1317 -0.3164  0.2000
24024W        W39493  11.920   8.432   4.196 -0.1092  0.0702 -0.1022
24025W        W39494  10.154  13.146   2.796  0.0417  0.0370  0.0614
24026W        W39495   4.467  16.614  14.855 -0.3864  0.1549  0.0563
24027W        W39496   4.932   7.975  11.757 -0.1832 -0.1673 -0.0298
24028W        W39497  18.127   5.061   4.265  0.0274 -0.0310  0.1737
24029W        W39498  14.513  18.243   4.348 -0.0656 -0.2386  0.0365
24030W        W39499   1.262   6.000   4.007  0.0774  0.3431 -0.1198
24031W        W39500  16.491   7.568  11.844  0.1183 -0.0629  0.1998
24032W        W39501  16.813   3.571  11.734  0.0174 -0.3270  0.2441
24033W        W39502   6.925  12.091  12.621 -0.1511 -0.1119 -0.0110
24034W        W39503  10.694  11.664  12.828  0.0511 -0.0717  0.2950
24035W        W39504   0.460  15.752   2.964  0.1808 -0.2493 -0.0061
24036W        W39505   9.739   1.471  11.539 -0.1403 -0.1532  0.0840
24037W        W39506  11.200   2.282   2.666 -0.0657  0.1477 -0.0388
24038W        W39507   1.419  16.252   3.522 -0.2718  0.1474 -0.2223
24039W        W39508  14.704  15.926   1.215 -0.0297  0.0454 -0.1099
24040W        W39509  17.613   5.919  15.815  0.2378  0.1982 -0.2523
24041W        W39510   8.925   2.400   4.243  0.0290 -0.2649 -0.1421
24042W        W39511  15.110   3.320  14.597 -0.0207  0.4061 -0.0426
24043W        W39512  17.494  17.935   1.992 -0.0354  0.0667 -0.2546
24044W        W39513   7.330  10.998  12.633 -0.1591  0.1313  0.0196
24045W        W39514  14.887  10.009  13.904 -0.1767  0.2230 -0.1708
24046W        W39515  17.573   3.041   2.725  0.2458 -0.2332 -0.0565
24047W        W39516  12.520  15.115   1.835 -0.1425 -0.1337  0.0541
24048W        W39517   2.595   7.380  11.806  0.1488 -0.2057  0.1563
24049W        W39518   2.311   6.836  13.166  0.1233  0.5119  0.1383
24050W        W39519  10.066  13.082  15.863  0.1058 -0.2688 -0.2637
24051W        W39520   7.675   0.219  15.980 -0.1805 -0.0426  0.1957
24052W        W39521  12.570   2.071   5.273 -0.1396 -0.1867  0.0878
24053W        W39522  12.827  12.601   1.572 -0.1833  0.0026 -0.2236
24054W        W39523   2.638   7.367   1.436 -0.0544 -0.0204 -0.1852
24055W        W39524   3.581   4.105   4.844  0.1425 -0.1513 -0.0475
24056W        W39525   9.974  15.251   5.620 -0.2472 -0.1059  0.1054
24057W        W39526  14.390  16.117   1.592  0.5921 -0.0149 -0.2188
24058W        W39527  12.385   4.424   1.175  0.0924 -0.1276 -0.0205
24059W        W39528   3.757   4.878  10.846  0.0397 -0.2046  0.0505
24060W        W39529   1.784   5.366   1.467 -0.0031 -0.1081 -0.0719
24061W        W39530   8.164   3.702   4.681 -0.0012 -0.1266 -0.0322
24062W        W39531   2.862  11.040  11.219 -0.1125  0.0270  0.1648
24063W        W39532   7.406   1.653   4.082  0.0405 -0.1511 -0.0459
24064W        W39533   4.827  14.422  15.131  0.1654  0.2962 -0.2143
24065W        W39534  10.131   0.362  13.729  0.1224  0.0177 -0.1957
24066W        W39535   5.949   4.355   0.762  0.1128  0.1190 -0.1182
24067W        W39536   7.023   2.905  13.165  0.0517 -0.1928  0.0697
24068W        W39537   0.830   2.730  11.234  0.3291  0.1647 -0.2399
24069W        W39538   3.258   1.499  10.135 -0.1766  0.1852 -0.1996
24070W        W39539   0.603  10.503   1.929 -0.0276 -0.0796 -0.0131
24071W        W39540   8.773   2.640  10.923 -0.0438 -0.0268  0.1250
24072W        W39541   9.982  14.749   4.122 -0.4284 -0.1274  0.2600
24073W        W39542  10.027   4.057   4.038  0.1415  0.1612  0.1762
24074W        W39543  14.080  12.367   0.228 -0.0067 -0.1674  0.2188
24075W        W39544  15.446   7.834   6.098 -0.1422 -0.0047  0.1820
24076W        W39545  17.483  15.788  13.506  0.0071  0.0631 -0.0352
24077W        W39546   5.912   8.982  14.887 -0.1268 -0.1053 -0.3009
24078W        W39547  17.657   9.170  12.100 -0.0737 -0.2232 -0.1124
24079W        W39548   3.792   5.059   5.952 -0.2309  0.2143  0.1308
24080W        W39549   7.439   8.331  14.100  0.0215  0.1538  0.0909
24081W        W39550   0.510   2.848  13.144  0.1300  0.0981 -0.1088
24082W        W39551  10.301  17.643  12.998 -0.2598 -0.1513 -0.0040
24083W        W39552  14.676   5.289   0.593  0.2015  0.0095  0.1238
24084W        W39553  16.797   3.388  13.239  0.2008  0.1102 -0.0443
24085W        W39554   0.373  12.572   3.653 -0.1250 -0.2458 -0.0473
24086W        W39555  13.128  13.047   0.452  0.5856 -0.3261 -0.0698
24087W        W39556  12.533   8.026   2.120  0.2939  0.2105 -0.3161
24088W        W39557   3.474   6.829   2.148 -0.0400 -0.0014 -0.1283
24089W        W39558   1.268  17.247   2.348  0.0841  0.0748  0.3437
24090W        W39559  12.276   0.910   4.405 -0.2621 -0.1699  0.0359
24091W        W39560  13.951   6.024   1.229  0.0833 -0.1321  0.0055
24092W        W39561  10.260   8.736   0.233 -0.0945  0.2041  0.2771
24093W        W39562   8.175  13.347  13.884 -0.1290 -0.1617 -0.1111
24094W        W39563   4.445   6.482  15.397 -0.0951 -0.1554  0.1009
24095W        W39564   2.505  11.796   2.942  0.0369 -0.1140 -0.1579
24096W        W39565   2.104   3.839  15.962  0.0343 -0.3053 -0.2484
24097W        W39566   8.052   6.209   5.118  0.0275  0.2387  0.1894
24098W        W39567   4.558   3.460  11.502  0.2030 -0.1248 -0.0384
24099W        W39568  12.794   3.958   2.398  0.2756  0.0405 -0.0910
24100W        W39569   7.388   3.217  12.465 -0.3956  0.0628 -0.1580
24101W        W39570   7.830  17.697  11.078 -0.2752  0.1042  0.3047
24102W        W39571  17.229  11.425   3.041  0.1915 -0.4120 -0.0402
24103W        W39572  16.458  13.685  15.505  0.1280  0.0116 -0.2447
24104W        W39573   6.022   9.266   0.972  0.0113 -0.1214  0.4022
24105W        W39574   5.235   6.254  14.354  0.0644 -0.3110 -0.1129
24106W        W39575   9.093   4.594  11.818 -0.1658 -0.1383 -0.1503
24107W        W39576  13.746   0.890   5.498 -0.1097 -0.0983  0.3063
24108W        W39577   9.621  16.188   1.830  0.1363 -0.1341 -0.2868
24109W        W39578  17.567  12.373  13.026 -0.3024 -0.3639  0.2335
24110W        W39579  18.267   5.856   5.328  0.1177 -0.0380  0.1220
24111W        W39580  17.534   9.927   3.368 -0.2207 -0.0888 -0.2079
24112W        W39581   2.737  16.233   4.976  0.0789 -0.1476 -0.0596
24113W        W39582   4.421  13.369   3.564 -0.1949  0.0423  0.1692
24114W        W39583  15.546  17.454   4.828 -0.2268 -0.1101  0.0024
24115W        W39584  12.218   5.733   4.014  0.0788 -0.3586  0.0946
24116W        W39585  15.884   7.007   2.520 -0.3213  0.4131  0.0691
24117W        W39586  17.538  13.880  12.666  0.1065 -0.2400  0.1229
24118W        W39587  15.231  11.088   2.576  0.3255  0.0974 -0.3674
24119W        W39588   2.113  10.236  11.387  0.1785 -0.1564 -0.1140
24120W        W39589  12.819   3.394   5.604 -0.0687  0.0483  0.0553
24121W        W39590   5.249  16.494  14.313 -0.2448 -0.0679  0.0602
24122W        W39591   0.610   8.741   4.164 -0.4276  0.1389 -0.0708
24123W        W39592   7.917   3.160  15.949  0.0678  0.0979  0.0455
24124W        W39593  12.421  14.953  14.023 -0.1157 -0.0570 -0.0863
24125W        W39594  15.541   0.523  14.575 -0.2090 -0.0221  0.3693
24126W        W39595   7.259  13.030   9.876 -0.3752  0.1096  0.2266
24127W        W39596  12.293  18.058  12.423  0.4085 -0.1902 -0.0886
24128W        W39597   5.988   2.890   0.367 -0.0223  0.1156 -0.1076
24129W        W39598   0.195  11.509  15.012 -0.0425  0.0541 -0.0766
24130W        W39599  11.884   3.929  15.143 -0.0881 -0.1175  0.1571
24131W        W39600  10.153   4.671   1.133 -0.0155 -0.4472 -0.0573
24132W        W39601   8.170  15.165   0.380  0.0646 -0.0425 -0.1557
24133W        W39602   5.468   7.801   3.571  0.2038 -0.0976 -0.1991
24134W        W39603  13.950   3.347  13.599  0.3253 -0.1788 -0.1686
24135W        W39604   2.919  12.256  10.026  0.0787  0.2559  0.0289
24136W        W39605   7.809   0.595  12.613  0.1613 -0.2522 -0.2230
24137W        W39606   6.650  13.173  12.428 -0.0974 -0.1462  0.2049
24138W        W39607  12.285   0.320  13.144  0.1539 -0.2046 -0.3645
24139W        W39608   1.459   4.100  15.912  0.0819  0.1893  0.1934
24140W        W39609  16.819   9.766   2.414  0.2362 -0.0560 -0.4018
24141W        W39610  14.702   1.862   1.382  0.1785 -0.2629  0.2101
24142W        W39611  14.519  16.559   2.392 -0.3946  0.0711  0.2175
24143W        W39612  10.564  12.338   4.507  0.2531 -0.0632 -0.0425
24144W        W39613   6.597  12.933  14.398 -0.0340 -0.1820  0.1807
24145W        W39614   4.285  13.047  13.617  0.0177  0.1420  0.0261
24146W        W39615   4.106   0.424  15.701  0.1123 -0.0083 -0.1579
24147W        W39616   0.219   6.249   1.070 -0.1821 -0.2326 -0.0485
24148W        W39617  17.447   6.148   2.346  0.1566  0.1216 -0.0952
24149W        W39618  14.637   1.633  11.558 -0.1029  0.3705  0.2730
24150W        W39619  15.950   6.490   6.251 -0.0198  0.3086 -0.1250
24151W        W39620   2.605  12.976   3.656 -0.1060  0.3731  0.0400
24152W        W39621  10.938  14.335   3.153 -0.2352 -0.2948 -0.3009
24153W        W39622   0.852   2.184   3.345 -0.0469 -0.1210 -0.1740
24154W        W39623   3.327  14.532   0.523 -0.1392 -0.1336 -0.1676
24155W        W39624  17.412   6.203  13.621  0.0195  0.0645 -0.1035
24156W        W39625  10.474   9.722  12.382 -0.0826  0.0975  0.0466
24157W        W39626   2.865   7.069   0.656 -0.0918  0.2778 -0.1048
24158W        W39627   9.732   5.874   3.690 -0.1444  0.1145 -0.0836
24159W        W39628  12.660   1.402  13.416 -0.0538  0.0490  0.0671
24160W        W39629   5.566  10.001  15.437 -0.0357 -0.0690 -0.0478
24161W        W39630  11.942   6.661  11.174  0.0563 -0.1442  0.2895
24162W        W39631   5.395   1.728  12.036  0.1893  0.0566 -0.2021
24163W        W39632   1.736   0.284  14.292 -0.0963  0.0939 -0.0255
24164W        W39633  12.153  12.285   1.356  0.0784  0.2530  0.1619
24165W        W39634   1.462   8.422   4.450  0.0050  0.2064  0.0218
24166W        W39635  14.235   6.359  15.033 -0.0236  0.0210  0.1245
24167W        W39636  13.449   7.872  12.636  0.2593  0.1271  0.2165
24168W        W39637   1.892   3.408  15.809  0.0035  0.0744 -0.0619
24169W        W39638   5.112  14.472   3.780  0.0428  0.0933  0.0830
24170W        W39639  17.177   1.486   5.131 -0.0190 -0.1966 -0.0709
24171W        W39640  15.498  11.538   2.540  0.0852  0.1785 -0.3191
24172W        W39641   8.936  16.664   2.437 -0.0870  0.1404  0.3828
24173W        W39642   5.485  15.151  15.287 -0.2275 -0.1233  0.1967
24174W        W39643  11.700  16.355   1.281 -0.1430 -0.5329 -0.3548
24175W        W39644   4.968  14.462  13.742 -0.1551 -0.2104  0.3064
24176W        W39645   5.511  15.620  11.232  0.3947 -0.0981  0.0693
24177W        W39646  14.065  11.845  13.989  0.0563 -0.2399 -0.1284
24178W        W39647  14.822  16.298  15.806 -0.2478 -0.0342  0.1025
24179W        W39648  14.353   9.618   5.673  0.0452 -0.3141  0.0013
24180W        W39649   5.847   7.515   5.572 -0.1472 -0.1239  0.0075
24181W        W39650   7.653  14.623   5.053 -0.0001 -0.0150 -0.2066
24182W        W39651  10.520   3.263  11.299 -0.1324 -0.1573  0.1724
24183W        W39652   2.113   1.227   2.383  0.0144  0.3161  0.1921
24184W        W39653  14.270   7.485   5.062 -0.1036 -0.1159  0.2411
24185W        W39654   6.792   9.163   4.528  0.1131  0.1116  0.0981
24186W        W39655   3.641  10.857  10.715 -0.1248 -0.2610 -0.0047
24187W        W39656   0.052  10.142   1.273  0.0212 -0.1362 -0.1368
24188W        W39657   3.467   5.573   5.133 -0.1734 -0.0283  0.1060
24189W        W39658  16.529   2.797   5.894  0.2124  0.2653  0.2321
24190W        W39659   7.120   3.552   5.090  0.0485  0.1804 -0.2890
24191W        W39660  12.208  10.182   4.500 -0.1914  0.2388  0.0357
24192W        W39661   6.597  13.830  13.895 -0.0400  0.1617  0.2190
24193W        W39662   7.300  17.509  11.067 -0.1468  0.0144 -0.1947
24194W        W39663   5.158   0.099   4.287 -0.2968  0.0532 -0.1285
24195W        W39664   4.657  14.424   5.212  0.5618 -0.0266  0.2148
24196W        W39665  12.547   6.043  11.241  0.1140 -0.2410  0.0360
24197W        W39666   0.565  17.131   0.436  0.0448  0.1574 -0.0620
24198W        W39667  11.259   0.470  15.920  0.2229  0.0241 -0.1246
24199W        W39668  15.216  15.371  13.944 -0.0847 -0.1437  0.1593
24200W        W39669   2.873  13.345   1.770 -0.0652 -0.3228  0.2346
24201W        W39670  10.682   6.098   3.057  0.2098  0.0899  0.0769
24202W        W39671  11.817  16.992  12.551 -0.0041  0.1588 -0.1225
24203W        W39672  13.899   7.816  14.743 -0.0005 -0.0970 -0.1052
24204W        W39673   4.235   2.919   0.565  0.0803 -0.0062 -0.2423
24205W        W39674  11.811  11.728   1.198 -0.0541 -0.2282 -0.0720
24206W        W39675   1.278   8.779  15.692 -0.3616  0.0397 -0.1979
24207W        W39676  11.484  17.504   3.050 -0.0255  0.0906  0.0208
24208W        W39677  14.448  18.257   1.931  0.1973  0.0877  0.3327
24209W        W39678  17.953   7.747  10.802 -0.0943  0.1704 -0.0378
24210W        W39679   5.008   9.308  15.089 -0.2238 -0.1456 -0.2436
24211W        W39680  11.003   7.143   2.698  0.3255  0.2211 -0.1762
24212W        W39681  17.675  18.237   6.111  0.0231 -0.1180 -0.1748
24213W        W39682   1.883   7.104   4.747  0.1934 -0.2461  0.0765
24214W        W39683  15.755  10.611  10.121  0.1289  0.0823 -0.2671
24215W        W39684  17.178   0.715  13.110 -0.2421 -0.2483 -0.4241
24216W        W39685  14.055   9.166  14.201  0.0589 -0.0157  0.0411
24217W        W39686   2.300   7.759   0.767  0.3455  0.1157 -0.1048
24218W        W39687   4.777   9.726  15.204  0.2985 -0.3244  0.0636
24219W        W39688   2.846  17.998  13.721  0.1601  0.1973 -0.3186
24220W        W39689   5.415  11.676   1.958 -0.0099 -0.3158  0.1531
24221W        W39690   4.277   4.256   0.507 -0.2233 -0.0756  0.2400
24222W        W39691  11.053  14.602   2.751 -0.0910  0.1876 -0.0235
24223W        W39692   5.830   7.513   0.351 -0.0735 -0.0071 -0.2791
24224W        W39693  13.591   4.216  11.291  0.0646  0.2850  0.0019
24225W        W39694  16.159  16.034   0.036 -0.2099 -0.1985  0.0790
24226W        W39695   8.692  15.075  14.873  0.2316  0.2275 -0.1177
24227W        W39696  10.375  13.914  15.430 -0.2185 -0.0725  0.2715
24228W        W39697   2.200  14.367   0.973 -0.1014  0.0549  0.0408
24229W        W39698  12.723  13.075   1.364  0.0382  0.1264  0.0471
24230W        W39699   9.232   1.443  15.001  0.1447 -0.0601  0.1489
24231W        W39700   9.156  12.384   0.452  0.0716 -0.1157  0.0158
24232W        W39701   1.844  12.465  13.822 -0.0989 -0.1454 -0.0277
24233W        W39702   0.204  17.029  12.331 -0.1961 -0.0501  0.2536
24234W        W39703   4.307  14.160   5.536  0.2429  0.0834  0.0998
24235W        W39704  18.080   3.323  12.811  0.1497 -0.1030 -0.0100
24236W        W39705  11.269   4.246   4.834 -0.3424 -0.0970 -0.3317
24237W        W39706   2.567  10.693  13.749  0.0541  0.1661 -0.1137
24238W        W39707   9.541   3.975  14.629  0.2163  0.2659  0.2876
24239W        W39708   3.190   2.726   2.232 -0.0802 -0.0444 -0.0612
24240W        W39709   4.418   1.596   2.164  0.0935  0.0970 -0.0247
24241W        W39710  15.102   8.704  12.396 -0.2606 -0.0355  0.2332
24242W        W39711  16.887   9.486   4.352  0.0570  0.0470 -0.1747
24243W        W39712  15.789   0.448   2.147 -0.0653  0.1850  0.0893
24244W        W39713   0.691  11.641  15.083 -0.0777 -0.0343 -0.1907
24245W        W39714   9.302  10.571   0.060 -0.2305  0.0074  0.1607
24246W        W39715   4.068  17.595   1.852  0.1274 -0.0636  0.0021
24247W        W39716  17.381  11.712  14.639  0.3198  0.2023 -0.0608
24248W        W39717  12.473   4.147   5.148  0.2860  0.2302 -0.1569
24249W        W39718  14.264  14.973   1.160  0.1106 -0.2581  0.0238
24250W        W39719   9.936  11.395  15.138  0.0148  0.0695  0.0527
24251W        W39720   5.537   0.914  11.767  0.0187 -0.0631 -0.1488
24252W        W39721   0.409   8.959   4.558  0.0542 -0.1127 -0.1441
24253W        W39722   9.868  12.286   4.324  0.4319  0.0761  0.1267
24254W        W39723   6.218   9.145  12.915  0.3192  0.1049  0.1776
24255W        W39724   6.414   8.027  15.535  0.0907  0.0034  0.2641
24256W        W39725  10.223  12.362  12.246  0.1072 -0.0522 -0.0079
24257W        W39726  10.381  16.700  11.530 -0.2356 -0.0018 -0.1361
24258W        W39727   9.924   4.382   0.490 -0.0076  0.0921 -0.2399
24259W        W39728  10.527   3.476  13.954 -0.0137 -0.1403 -0.3364
24260W        W39729   1.152   1.609  12.637 -0.1404 -0.1071  0.2624
24261W        W39730   2.465  16.740  15.279  0.1043 -0.1049  0.0810
24262W        W39731   6.140   1.814   1.321  0.0292 -0.1993  0.2166
24263W        W39732   5.868  10.119  10.576  0.1819 -0.1260 -0.2420
24264W        W39733   0.897   8.644   2.384  0.0870  0.4114  0.3750
24265W        W39734  13.648   4.100   0.811  0.0686  0.0901  0.0011
24266W        W39735   0.991   6.805   0.961 -0.0145 -0.5109  0.1480
24267W        W39736   6.742   5.479  14.484 -0.1669 -0.1149  0.1289
24268W        W39737  13.826   6.756   1.602 -0.1433  0.1529 -0.1466
24269W        W39738   5.376   1.767  14.861  0.2716 -0.0007  0.1304
24270W        W39739   2.184   1.847  15.922 -0.1310  0.1084 -0.0843
24271W        W39740  18.243   9.223   2.326 -0.0989 -0.4980 -0.3198
24272W        W39741   1.930  15.834   4.571  0.1917 -0.0785  0.0734
24273W        W39742   6.816  14.607   2.251 -0.1153 -0.0696 -0.0013
24274W        W39743   4.270   5.962   5.158  0.0765  0.1350 -0.1543
24275W        W39744  11.645  17.760  13.662  0.1662  0.1587 -0.1027
24276W        W39745   4.193  17.257  13.573  0.1430  0.1948 -0.0297
24277W        W39746   5.465   6.002   0.728 -0.1757 -0.0139  0.1493
24278W        W39747   1.658   8.630  11.579  0.0985 -0.2366 -0.0610
24279W        W39748   2.531   9.489   2.078  0.2015 -0.0430 -0.1753
24280W        W39749   3.368   4.285  13.337  0.3778  0.1711  0.0516
24281W        W39750  17.261   7.833   2.247 -0.2800  0.4585  0.0791
24282W        W39751  18.013  17.859  12.217 -0.1187 -0.0062  0.2580
24283W        W39752  14.861  16.299   5.005 -0.0688  0.1953 -0.1120
24284W        W39753  14.479   0.866   5.994  0.0373 -0.0736  0.0013
24285W        W39754   9.120   8.479   1.237 -0.2671  0.2039 -0.0805
24286W        W39755   0.126   8.279   3.347  0.1038 -0.1400 -0.2276
24287W        W39756   3.461   0.981   3.864 -0.0244  0.1178  0.0852
24288W        W39757  17.773   7.964   0.475  0.2465  0.4339  0.1212
24289W        W39758  11.029   5.719  12.694  0.0638 -0.0515  0.1744
24290W        W39759  10.498   6.354  11.602  0.0764  0.0802 -0.0553
24291W        W39760   0.355   3.687   5.336  0.0781 -0.2179  0.1980
24292W        W39761   3.545   3.680   3.696  0.3301 -0.1139 -0.1953
24293W        W39762   4.938  17.464   2.792  0.1443  0.0550 -0.2185
24294W        W39763   3.845  15.152  14.921 -0.0237  0.3203 -0.0096
24295W        W39764  13.968   8.260   4.577 -0.2098 -0.0765  0.0736
24296W        W39765   1.379  11.374  16.096  0.0261 -0.1559  0.1154
24297W        W39766   9.816   8.818   3.192 -0.3755  0.1127  0.1338
24298W        W39767   5.002  16.056   2.940  0.0449  0.0107 -0.4108
24299W        W39768   5.166  16.682   1.830  0.0336 -0.1295 -0.0344
24300W        W39769  10.199  18.051   1.852  0.0551  0.0481 -0.1746
24301W        W39770   6.091  10.246  15.568 -0.2306 -0.0401  0.1942
24302W        W39771  16.846   1.640   3.607  0.2033  0.0449 -0.3810
24303W        W39772  11.475   7.443   4.341 -0.1328  0.0422  0.0339
24304W        W39773  10.816  15.435  11.923 -0.4099  0.2662 -0.0100
24305W        W39774   9.797  15.034   1.672  0.2141 -0.3475  0.0304
24306W        W39775  13.828   6.614   2.978  0.4639 -0.1706  0.1695
24307W        W39776  12.417   2.384   5.681  0.0716  0.4005  0.1553
24308W        W39777  15.954   5.381   5.216  0.0607  0.1750 -0.1967
24309W        W39778   4.229  12.599   1.185 -0.2319 -0.0190 -0.0299
24310W        W39779  10.122  10.637  15.866 -0.0006 -0.2897  0.2480
24311W        W39780  17.983   3.677  10.904  0.3101  0.0538 -0.1708
24312W        W39781   2.807   5.651  12.048  0.1123  0.4658  0.2822
24313W        W39782  18.151   3.064  11.962 -0.4449 -0.0593  0.3664
24314W        W39783   6.249  10.798   1.321 -0.3500  0.1879 -0.1672
24315W        W39784   8.952  11.841   2.613 -0.1730 -0.0743  0.0214
24316W        W39785   5.165  11.543   3.554 -0.0250 -0.0625  0.0566
24317W        W39786   1.585   1.528   1.376  0.0075 -0.3485  0.1325
24318W        W39787  11.832  10.470   0.773  0.1403 -0.1050 -0.2846
24319W        W39788   1.658  12.541  14.771 -0.0319  0.1327  0.0061
24320W        W39789   6.815   4.271  13.192  0.1172 -0.1109  0.3675
24321W        W39790   1.894   1.405   3.752 -0.3035  0.0830  0.1937
24322W        W39791   9.620  16.400   0.138  0.0615 -0.0109  0.1201
24323W        W39792   7.901   4.465  16.031  0.0560  0.1976 -0.1255
24324W        W39793   1.554  17.486  15.423  0.2006 -0.2153 -0.1394
24325W        W39794   7.864   3.838  14.184 -0.0240  0.0094  0.1161
24326W        W39795   1.393  18.207  13.871  0.2427 -0.0512  0.0976
24327W        W39796   8.086   3.111   4.123  0.1669  0.0263  0.0426
24328W        W39797   3.901  10.657   3.703  0.0865  0.2548  0.0430
24329W        W39798  17.838   4.996   3.296 -0.1396 -0.1369 -0.1893
24330W        W39799   2.569  10.613   4.966 -0.0712  0.2822  0.1580
24331W        W39800   9.411  12.414   3.756 -0.0794 -0.1586  0.2393
24332W        W39801  11.307  16.787   2.310 -0.2580  0.1252  0.0467
24333W        W39802   3.419  15.951   3.839 -0.0958  0.0310  0.2806
24334W        W39803   4.580   1.824   4.254 -0.0681  0.1655 -0.1405
24335W        W39804  15.470   7.516   1.767  0.0983 -0.0050  0.0837
24336W        W39805  13.627  15.569   3.237  0.0125  0.0907 -0.1678
24337W        W39806  15.703   6.545   3.791 -0.0172  0.3318 -0.1247
24338W        W39807   5.164  16.122  14.727  0.0790  0.2370  0.1114
24339W        W39808  13.462   6.142  14.237 -0.1710 -0.1395 -0.4581
24340W        W39809   8.037   2.718  12.143  0.2146 -0.0203 -0.0387
24341W        W39810   4.093  13.318  11.165  0.0768  0.3470 -0.1384
24342W        W39811   4.825   6.723   1.224 -0.2320 -0.1137 -0.0474
24343W        W39812   8.203   5.168  14.256  0.0879  0.0177 -0.1495
24344W        W39813   0.886   9.919  11.405 -0.1321 -0.1321 -0.2398
24345W        W39814  10.290   2.690  12.374  0.0422  0.0711  0.0125
24346W        W39815  10.457  14.133   2.312  0.1439  0.1386 -0.2552
24347W        W39816  12.406   2.634  12.123 -0.3070  0.0080  0.2792
24348W        W39817   1.239  15.071   4.436  0.4119 -0.3913 -0.0795
24349W        W39818  13.342  13.091   2.608 -0.0063  0.1954 -0.3450
24350W        W39819  16.781   0.230   2.517  0.2880 -0.0087  0.3208
24351W        W39820  12.621   9.837  15.859  0.1776  0.0321  0.3360
24352W        W39821  18.153  12.460   0.417  0.0787  0.1362 -0.1226
24353W        W39822  17.672   0.464  14.332 -0.3009 -0.1521  0.0757
24354W        W39823   4.998  16.121   4.478  0.0705  0.0666 -0.0743
24355W        W39824  10.373  12.990  15.023 -0.3725 -0.1116  0.0081
24356W        W39825   8.056  17.677   3.353 -0.1736  0.1247 -0.2103
24357W        W39826   3.543   6.550  11.387 -0.1288 -0.2572 -0.2337
24358W        W39827   0.393  13.148   0.591  0.1510  0.1448  0.0375
24359W        W39828  16.745   6.518   5.676 -0.0901  0.1891 -0.1111
24360W        W39829  17.817   6.782   3.547  0.0147 -0.1553 -0.1954
24361W        W39830  13.603  18.097   3.128  0.3357 -0.2352 -0.0825
24362W        W39831  13.648  11.122   2.074  0.0627 -0.2179  0.0395
24363W        W39832   3.554   5.169  15.749 -0.3422 -0.1174 -0.1001
24364W        W39833   7.916   9.338   0.457 -0.0336 -0.1664  0.2082
24365W        W39834   4.730  13.217   1.871  0.0100  0.3590 -0.2829
24366W        W39835   9.241   4.052  15.522  0.0071 -0.1886  0.1549
24367W        W39836   0.266   7.503   3.632  0.0102 -0.0443 -0.1947
24368W        W39837   8.684  12.067   4.720 -0.0899 -0.0751 -0.0561
24369W        W39838  14.481  11.661  11.251 -0.0278 -0.1053  0.4765
24370W        W39839   6.800  16.677  11.534 -0.1668  0.3143  0.0923
24371W        W39840  10.019   3.430  11.375 -0.0141  0.0420 -0.0861
24372W        W39841  15.055  15.182   5.315  0.1658 -0.2132 -0.0204
24373W        W39842  14.747  16.868   3.561 -0.1741  0.0591  0.0709
24374W        W39843  12.777  14.928   3.582 -0.0003  0.2538  0.1909
24375W        W39844  15.658   4.824   1.850  0.0183  0.0164  0.0982
24376W        W39845   4.472   5.949  15.955 -0.0995 -0.0444 -0.2472
24377W        W39846  16.230  13.060  12.890 -0.2056 -0.2447  0.0313
24378W        W39847   0.742   1.092   0.579 -0.0317 -0.2352 -0.1149
24379W        W39848   1.424  15.848   4.328  0.1581 -0.1981  0.1511
24380W        W39849   8.803  11.120   5.004 -0.2238 -0.1800  0.1228
24381W        W39850  14.450   5.666  13.656 -0.2457  0.2596  0.1698
24382W        W39851   4.978  14.279  16.003 -0.0243 -0.1358  0.1471
24383W        W39852   1.166   1.576   1.060  0.0612  0.0970 -0.0352
24384W        W39853   1.951   3.037   4.689 -0.0995  0.0979  0.2284
24385W        W39854   4.557  14.037   1.884 -0.0485 -0.0132  0.3490
24386W        W39855   9.016  12.857  14.372  0.0511 -0.3279 -0.1364
24387W        W39856  15.458   2.760   0.623 -0.0014 -0.0023  0.0791
24388W        W39857  16.565   3.555   2.814 -0.1612 -0.1109  0.0939
24389W        W39858  18.044   3.399  14.506  0.0706 -0.3827 -0.3587
24390W        W39859  13.463   9.491  11.152 -0.3594  0.1212 -0.0704
24391W        W39860   8.053  10.310  12.772 -0.0611 -0.2197 -0.0513
24392W        W39861  13.638   8.148   0.787  0.1976  0.1401 -0.3015
24393W        W39862  12.340   5.132   2.012 -0.1436  0.3993 -0.0567
24394W        W39863   2.801  17.657  15.600  0.0343  0.0056 -0.2831
24395W        W39864   6.203   5.100   5.454 -0.2899 -0.1322 -0.0076
24396W        W39865  17.022  12.371  15.681 -0.0843  0.1227  0.2196
24397W        W39866   5.022  17.393  14.076 -0.0176 -0.0105 -0.1018
24398W        W39867   3.660   8.287   1.090  0.2246 -0.1187 -0.2322
24399W        W39868  11.940   5.358   5.639 -0.1672  0.0973 -0.0439
24400W        W39869  12.063  10.691   2.437  0.2253  0.1297  0.1420
24401W        W39870  10.835  16.102   0.300  0.0037  0.0915 -0.1296
24402W        W39871   7.846   6.337   0.111 -0.0820  0.1033 -0.1713
24403W        W39872  10.650   3.579   2.882  0.1566 -0.0354 -0.1368
24404W        W39873   0.661   7.853   3.706 -0.1587  0.2607 -0.4185
24405W        W39874   6.204   3.156  15.693  0.0859 -0.4246  0.2890
24406W        W39875  16.598  15.699   1.270 -0.0071 -0.2556 -0.1690
24407W        W39876   3.055   1.342  14.343  0.0246 -0.0942 -0.2191
24408W        W39877   5.091  12.568  12.577 -0.0497 -0.0426  0.2557
24409W        W39878   2.103  15.015   1.565 -0.0145  0.0418  0.2537
24410W        W39879   1.635   3.802  14.875  0.0278  0.0183 -0.2586
24411W        W39880   8.566   0.109   2.695 -0.3913  0.0429 -0.0193
24412W        W39881  10.321   8.266  11.423 -0.1617 -0.1004 -0.0576
24413W        W39882  14.898  16.707   2.672  0.0406 -0.1121  0.1314
24414W        W39883  14.308   3.747  13.369 -0.1738  0.0110  0.2386
24415W        W39884  10.496   5.592  16.077 -0.0290  0.0243 -0.2999
24416W        W39885   4.048  11.538   3.106 -0.0131 -0.1139 -0.0084
24417W        W39886  10.955  16.453  13.368  0.2349  0.1686  0.0911
24418W        W39887  12.346   9.965   1.311 -0.0212  0.1106  0.2620
24419W        W39888   5.546   9.297  11.784 -0.1229  0.0770 -0.2470
24420W        W39889   8.152   3.920  11.303 -0.3538  0.1459  0.3707
24421W        W39890  13.225   8.693  15.631  0.2670  0.1728 -0.0517
24422W        W39891   2.313   6.783   4.971  0.1434  0.0327  0.0536
24423W        W39892   6.079  18.021   2.696  0.0766 -0.0272 -0.2667
24424W        W39893   1.265   2.423  13.372  0.1501 -0.0317 -0.0354
24425W        W39894   0.174  11.477   3.512 -0.1602  0.1397 -0.0037
24426W        W39895   4.852   4.060  10.716 -0.0153  0.2358 -0.0743
24427W        W39896  16.477   6.556  11.414 -0.1604 -0.0679 -0.1338
24428W        W39897  14.092  15.649   4.918  0.0850  0.0715 -0.1929
24429W        W39898   8.989   4.374  12.259 -0.4859  0.2325 -0.0073
24430W        W39899  13.185   5.377   1.313 -0.0998  0.0338  0.0847
24431W        W39900   6.273  12.653  13.621  0.1452 -0.1049  0.2029
24432W        W39901  16.569  14.348  13.986  0.0492 -0.1233  0.1470
24433W        W39902   4.484   6.720   9.852 -0.1412  0.0386 -0.3018
24434W        W39903  16.533   9.359  15.641 -0.1661 -0.2205  0.0060
24435W        W39904  10.011  16.171  15.392  0.2948  0.0714  0.0259
24436W        W39905  12.601  18.041  13.125  0.3000  0.2081  0.2244
24437W        W39906   1.163   8.816   4.204 -0.0413  0.1717  0.2079
24438W        W39907   3.049   9.181  15.449 -0.1606  0.0004  0.3664
24439W        W39908   3.307   3.519  16.085  0.3198  0.0322 -0.1331
24440W        W39909   5.471   2.948  14.070 -0.1043 -0.2481 -0.0451
24441W        W39910   5.574   6.090  12.118 -0.0981  0.0799  0.1911
24442W        W39911  13.991  13.263   5.274 -0.3397 -0.0068 -0.1053
24443W        W39912   0.174  14.603  15.765  0.0512 -0.3186  0.1362
24444W        W39913   3.712  16.034  14.465 -0.0826 -0.1075 -0.2617
24445W        W39914  14.002   3.777   2.351  0.3924 -0.2505 -0.0531
24446W        W39915   8.632   1.569  14.608 -0.2755  0.0957 -0.0924
24447W        W39916  11.141   6.586   3.324  0.0246  0.2030 -0.0334
24448W        W39917   5.998  15.232  13.698  0.2161 -0.0033 -0.2665
24449W        W39918  12.773   6.282   1.451 -0.1067  0.1227 -0.0021
24450W        W39919  14.714  10.334  15.855 -0.1949 -0.0936 -0.2639
24451W        W39920   3.244  10.487   2.570 -0.0586  0.0970  0.0752
24452W        W39921   3.368   5.785  13.112  0.1095  0.1485  0.1582
24453W        W39922  12.881   6.603   1.786 -0.3837  0.2186  0.0181
24454W        W39923  16.687  17.678  12.103 -0.0851  0.1492  0.1001
24455W        W39924  14.328   0.849  13.686  0.0499  0.3246 -0.0746
24456W        W39925  15.066  11.957   2.360 -0.2279  0.1343 -0.3487
24457W        W39926   8.661   1.096   5.383  0.0707  0.0324 -0.1112
24458W        W39927  17.616  12.597  14.565  0.1808  0.0649  0.1064
24459W        W39928   3.858   7.887  13.840 -0.0445 -0.1896 -0.1034
24460W        W39929   9.407   8.485   1.933  0.0533  0.1996  0.2168
24461W        W39930   9.869  10.923  12.274  0.1620  0.1973 -0.1525
24462W        W39931   8.124   8.543   1.547  0.0364 -0.1581 -0.2847
24463W        W39932  16.688  12.086   1.709  0.3101  0.0144  0.1060
24464W        W39933   2.910  12.262  11.907 -0.0761 -0.1416 -0.1874
24465W        W39934   3.711   3.400  11.762 -0.0721 -0.1258 -0.2957
24466W        W39935  14.536  13.206   2.269  0.1068 -0.0905 -0.2898
24467W        W39936   3.348   5.420   0.497  0.2164  0.0857  0.4415
24468W        W39937  16.636   5.673  15.842 -0.0031 -0.0816  0.0951
24469W        W39938  12.974  14.727   4.591 -0.0529  0.0360  0.1979
24470W        W39939  11.126  15.863   4.896 -0.3124  0.0048 -0.1304
24471W        W39940  14.079   2.064   2.217 -0.1188 -0.1048 -0.0718
24472W        W39941  11.814   4.373  11.824  0.1323 -0.3200  0.1000
24473W        W39942  11.744   8.994   1.227 -0.0651  0.0186  0.0941
24474W        W39943   5.752  16.922   3.581 -0.0200 -0.1788 -0.1702
24475W        W39944   2.479   0.778   3.894  0.0452  0.2258  0.0437
24476W        W39945   8.672   0.116  14.434 -0.2856 -0.3152  0.2310
24477W        W39946   5.623  11.378   3.620  0.1395  0.0511 -0.1755
24478W        W39947   7.778   9.777   0.720 -0.2339  0.1051 -0.2082
24479W        W39948  16.201  13.689  11.303 -0.2689  0.2402 -0.0056
24480W        W39949  17.183   4.404   5.143  0.0644 -0.1195  0.0652
24481W        W39950  16.897   7.514   2.205  0.0720 -0.2834 -0.0874
24482W        W39951  16.412  13.201  12.387 -0.1317  0.0553 -0.0073
24483W        W39952  17.346   0.110  12.625 -0.0421  0.4006  0.1041
24484W        W39953   2.939  14.632  11.179  0.2161  0.4265 -0.0030
24485W        W39954   8.214   6.125   3.421 -0.0798  0.0699  0.0051
24486W        W39955   3.634  13.929   3.381  0.0834  0.1109 -0.0322
24487W        W39956   6.946  10.748  11.688  0.1785 -0.0388  0.1337
24488W        W39957   3.378  16.572  11.482  0.2000  0.0760  0.2416
24489W        W39958   0.668  14.587   4.636 -0.0012 -0.3400  0.2331
24490W        W39959   5.338  10.295  13.561  0.0904  0.1237  0.0022
24491W        W39960   8.836  15.772   2.919 -0.0547  0.1137 -0.0251
24492W        W39961  11.998  12.241  13.434  0.5009 -0.0418 -0.1168
24493W        W39962   8.294   3.353   0.758  0.2379  0.2146 -0.0880
24494W        W39963   3.482   2.789  13.969 -0.1911  0.0482 -0.3449
24495W        W39964   5.582  18.025  12.545 -0.1552  0.1656 -0.2622
24496W        W39965  15.082   8.561   0.385 -0.0278 -0.0696 -0.0584
24497W        W39966   7.644  11.106   2.710 -0.0400 -0.1200 -0.2819
24498W        W39967   4.263   5.804   2.155 -0.1903 -0.0780 -0.0183
24499W        W39968   6.702   7.735  11.830  0.2061 -0.1413 -0.1760
24500W        W39969   3.685   1.384   2.466 -0.2259 -0.1376 -0.0276
24501W        W39970   6.086  18.076  12.573  0.2972 -0.0797 -0.0443
24502W        W39971   3.389   2.960   5.001  0.1101 -0.0955 -0.1636
24503W        W39972   3.848   1.354  11.271 -0.1886  0.1456  0.1488
24504W        W39973   8.171  17.315  11.025 -0.0463 -0.1840  0.0485
24505W        W39974   9.473  13.643   3.201  0.0451  0.0891 -0.0635
24506W        W39975   3.431  15.592   5.493  0.1284  0.0288 -0.0284
24507W        W39976   0.177   5.913   1.422 -0.1700  0.2935  0.2619
24508W        W39977   3.180  18.247  14.595  0.0638  0.1790  0.0535
24509W        W39978  17.044   1.143   3.106  0.0259 -0.2930  0.0959
24510W        W39979   7.800  11.765  13.227  0.4285  0.4317 -0.2307
24511W        W39980   5.024  17.624  13.565 -0.1232  0.3371 -0.3899
24512W        W39981  17.392   5.198   3.157 -0.1520  0.0464  0.0108
24513W        W39982   6.013  11.058  12.045  0.0732  0.0354 -0.1267
24514W        W39983   2.474   1.600   1.333 -0.1477  0.0520 -0.1110
24515W        W39984  15.412   2.890  12.335 -0.5558 -0.1212 -0.0152
24516W        W39985   1.131  14.494  12.221  0.0598  0.1617  0.0974
24517W        W39986  11.574  16.640  11.576 -0.0483 -0.1003 -0.1737
24518W        W39987  10.370   9.568  11.866  0.2952 -0.3168 -0.0603
24519W        W39988  10.783   2.544  14.539  0.0833  0.0752  0.0445
24520W        W39989   4.512   9.152  13.476  0.2376 -0.0134  0.0961
24521W        W39990  16.190   9.867   5.528 -0.1819 -0.2091  0.1990
24522W        W39991  11.731   1.846   3.679  0.0240  0.0264  0.0205
24523W        W39992  15.770  12.808  12.936  0.2139 -0.0203  0.4483
24524W        W39993  11.269   9.207   5.098  0.1646 -0.2174 -0.0171
24525W        W39994   2.230   8.213   0.571  0.0712 -0.1633 -0.1934
24526W        W39995  11.930  16.171   3.331 -0.0382 -0.1029 -0.1167
24527W        W39996   8.373   4.957   3.919 -0.2291  0.2535 -0.0878
24528W        W39997   3.112   1.805  11.766 -0.2213 -0.0767 -0.2911
24529W        W39998  14.720   1.593  10.411  0.1608 -0.0797 -0.0188
24530W        W39999   5.100   5.443  12.352  0.0845  0.1661 -0.1853
24531W        W40000   2.439   3.259  11.569  0.2421 -0.0850  0.2623
24532W        W40001   6.175   9.853   3.345  0.1828 -0.0724 -0.0456
24533W        W40002   0.308  14.918   0.030 -0.0392  0.1500  0.4971
24534W        W40003  16.723   6.315  12.839 -0.0649  0.0892 -0.0363
24535W        W40004  17.965   5.192   0.176  0.1871 -0.1783  0.1807
24536W        W40005  11.934  17.444  13.946  0.0557  0.0947  0.1699
24537W        W40006  12.886   8.174  14.122 -0.2656 -0.3655  0.1619
24538W        W40007  11.395  15.942   1.948 -0.1379 -0.1668  0.0847
24539W        W40008  14.967   6.602   5.696  0.0834  0.2095 -0.0898
24540W        W40009  12.914  17.759  11.376  0.0712  0.1928 -0.1084
24541W        W40010  13.241   3.221  11.900 -0.1473  0.1432 -0.3707
24542W        W40011  10.139   3.441   4.523  0.0682 -0.3188  0.0284
24543W        W40012  10.479   4.719  14.494 -0.0613 -0.1382 -0.0499
24544W        W40013  12.174   4.757  11.021 -0.1538  0.2813  0.1477
24545W        W40014   9.181   5.345  16.024 -0.1391 -0.0684  0.0537
24546W        W40015  17.024  18.091  14.125  0.2067  0.0559  0.3241
24547W        W40016   6.734   4.867   0.439  0.2189  0.0465 -0.0619
24548W        W40017   5.510  10.660   2.411  0.0866  0.3116 -0.0201
24549W        W40018   4.046   8.706  11.779 -0.1006 -0.3347  0.0027
24550W        W40019   8.475  16.792  14.991 -0.0529  0.0278 -0.1037
24551W        W40020  11.433   9.692   2.412 -0.0238  0.0542  0.3082
24552W        W40021  17.624   6.681   2.150  0.1718 -0.0027  0.1301
24553W        W40022   8.566  17.702  16.017 -0.2761  0.0718  0.1388
24554W        W40023  12.577  12.359  13.280 -0.1120 -0.0426 -0.0498
24555W        W40024  16.431  18.040  11.810 -0.2163 -0.0028 -0.1462
24556W        W40025  17.044  12.295   2.057  0.2208  0.2259 -0.0822
24557W        W40026  14.258   1.101  13.088  0.0159 -0.2649 -0.4039
24558W        W40027   1.585  13.901  11.225  0.3679  0.3022 -0.1308
24559W        W40028   4.788  12.482   3.247  0.0595  0.0150 -0.4370
24560W        W40029   7.783  10.300   4.681 -0.1625  0.2866  0.0873
24561W        W40030   5.974   0.529  11.899  0.0170  0.1223  0.1943
24562W        W40031  16.095   0.867   4.201  0.2371 -0.0031  0.1770
24563W        W40032   1.943  10.944  14.735  0.0090  0.5494 -0.0144
24564W        W40033   6.752   3.393   1.759  0.1245 -0.0451  0.0583
24565W        W40034  10.517   5.658   0.477 -0.1413  0.0166  0.4356
24566W        W40035  17.630  14.922   0.252  0.0406  0.2872 -0.3490
24567W        W40036   5.062   0.530   1.208 -0.1901  0.1166 -0.1765
24568W        W40037  10.153   6.486   1.829 -0.2516  0.1551  0.1099
24569W        W40038   1.057  14.153   0.079  0.1908 -0.1088  0.0608
24570W        W40039  15.025   5.233   4.937  0.6007  0.1257 -0.1502
24571W        W40040  13.574   2.218   4.220 -0.2009 -0.2184 -0.0979
24572W        W40041   5.019   3.646   0.438 -0.5024 -0.0577 -0.1239
24573W        W40042   2.659   0.003  14.683  0.0150 -0.2474  0.1028
24574W        W40043   5.850   8.750  11.344 -0.0955  0.0275  0.1518
24575W        W40044   0.032  12.799  15.220  0.1347 -0.1859 -0.0937
24576W        W40045  14.043   4.910  14.997  0.2925  0.1500 -0.0291
24577W        W40046  11.243   7.984   1.743 -0.1585  0.0653 -0.0515
24578W        W40047   1.437   9.663   1.939  0.2258 -0.2519  0.0809
24579W        W40048   5.871  13.723  12.852  0.1278  0.1780  0.1238
24580W        W40049   0.051   1.546   2.502  0.0912  0.2039 -0.3778
24581W        W40050   6.846  17.503   0.286  0.0485  0.0055 -0.0723
24582W        W40051  10.623  13.349   4.190 -0.3541 -0.0375  0.0910
24583W        W40052  16.845  17.366   3.889 -0.0862  0.1081 -0.0491
24584W        W40053   2.590   5.835  15.082  0.1287  0.0548 -0.0173
24585W        W40054   6.845  12.601  11.095  0.1807  0.2011  0.0344
24586W        W40055  14.772  13.736   1.747 -0.1770  0.0103 -0.2064
24587W        W40056   0.271  10.685  13.427 -0.2342  0.3703 -0.0357
24588W        W40057  16.390  12.498  11.935 -0.3079  0.1612 -0.0290
24589W        W40058  11.790   4.517   4.564  0.5601  0.2435  0.1825
24590W        W40059  10.373  15.095   0.074 -0.2695 -0.1734  0.2801
24591W        W40060  11.456   7.687  10.855 -0.0762 -0.2043  0.0263
24592W        W40061   6.674   6.969  14.004 -0.1205  0.1572 -0.1024
24593W        W40062  11.936   5.020  15.076 -0.0341 -0.0400 -0.0720
24594W        W40063   6.852   4.605   4.773 -0.0268  0.2371 -0.0493
24595W        W40064  15.818   7.746   2.108  0.2339  0.0572  0.1507
24596W        W40065  14.675  17.850   6.050 -0.3094  0.2467 -0.2332
24597W        W40066   1.974  14.267  11.957 -0.0450 -0.1380 -0.1679
24598W        W40067  14.021   2.642   2.990 -0.2822 -0.2079 -0.1946
24599W        W40068   5.425   2.637   0.258  0.0910  0.0155 -0.1002
24600W        W40069   2.713   3.547  15.301  0.0893 -0.0354  0.3985
24601W        W40070   0.673  14.359  15.923 -0.0592 -0.1937  0.2565
24602W        W40071   3.256  13.611  14.687 -0.0143  0.0863  0.0095
24603W        W40072   3.798   7.925  12.043 -0.1862 -0.4628 -0.4953
24604W        W40073   2.781   8.436   1.531 -0.0513  0.1777 -0.1721
24605W        W40074   2.389   7.567   3.989 -0.0820  0.0907 -0.2601
24606W        W40075   4.646  11.048  15.190  0.1442  0.1395  0.1429
24607W        W40076   6.127  12.772   2.133 -0.0292 -0.3613  0.0169
24608W        W40077   9.624   5.381  11.839 -0.0753 -0.0117 -0.2216
24609W        W40078  14.154  14.044   2.345  0.0416 -0.0498 -0.1653
24610W        W40079  10.656  13.711   3.430 -0.2430  0.0917  0.2620
24611W        W40080   3.042   7.263   5.382  0.1427 -0.0018 -0.1044
24612W        W40081  14.507   9.090  14.133 -0.1873  0.0079  0.1212
24613W        W40082   9.752   9.151  12.282  0.1720  0.1074  0.1532
24614W        W40083   8.876   8.666   4.068  0.1486  0.1050 -0.4111
24615W        W40084   0.220  13.245   1.557 -0.1069  0.0780  0.2039
24616W        W40085   7.961   6.228   0.846  0.0270  0.0670 -0.0102
24617W        W40086   1.511   2.018   1.061  0.0260  0.2292  0.1572
24618W        W40087   0.638  17.246  12.208 -0.2332 -0.0124 -0.1369
24619W        W40088   3.672  11.881  12.838 -0.0110  0.0784 -0.0616
24620W        W40089  10.931   7.362  14.899  0.1887 -0.0991 -0.0506
24621W        W40090   6.709   2.120  13.802 -0.1706  0.3276 -0.0358
24622W        W40091   1.032  15.756   5.088 -0.2335  0.1559  0.1621
24623W        W40092  11.633  11.071   3.809  0.2515 -0.3051  0.1731
24624W        W40093   1.352  10.265  14.079 -0.2004 -0.0466 -0.0379
24625W        W40094  14.503  14.602   4.512 -0.2896 -0.0627  0.0385
24626W        W40095   9.740   9.091   3.900  0.0530 -0.0983 -0.1867
24627W        W40096   5.871  13.268   2.954 -0.2328  0.0197 -0.0649
24628W        W40097  12.924   5.664   3.590  0.2509 -0.2217 -0.3453
24629W        W40098  18.177  10.780   1.687  0.0858  0.0035 -0.1904
24630W        W40099   5.115  15.345   1.753 -0.0092 -0.0018  0.1536
24631W        W40100  15.339   8.363  13.242  0.0314  0.1952  0.6057
24632W        W40101   5.625   9.347   2.480  0.0641  0.0270 -0.2499
24633W        W40102   9.919  10.037   3.714 -0.0268  0.1205  0.2491
24634W        W40103   9.742  14.861  15.700 -0.2338  0.2099 -0.1957
24635W        W40104  15.908   1.955  11.987 -0.1237  0.1005  0.0669
24636W        W40105  16.049   7.786   4.663 -0.1222 -0.0345 -0.1762
24637W        W40106  14.166   0.182   3.763  0.3127 -0.0363 -0.1038
24638W        W40107  12.821   4.657  12.670  0.0187 -0.1376 -0.0223
24639W        W40108   0.829   4.168  13.237 -0.0575  0.1472 -0.1043
24640W        W40109  10.810   3.780   1.913  0.0883 -0.1160 -0.0108
24641W        W40110   2.671  11.965  12.612 -0.0166 -0.0560  0.1584
24642W        W40111   6.527  16.772   5.171 -0.2486  0.0086 -0.2321
24643W        W40112  13.143  17.695   4.870 -0.0184 -0.0962  0.2227
24644W        W40113  14.487  16.637   4.900  0.0824  0.0808 -0.1024
24645W        W40114  10.384  11.831   4.140 -0.0912  0.0008 -0.2003
24646W        W40115   7.029  16.768   0.712  0.2414 -0.0081  0.3022
24647W        W40116   8.531   2.392   1.960  0.1065 -0.1385 -0.0557
24648W        W40117   4.033  14.133   4.488  0.2266 -0.1869  0.1031
24649W        W40118   0.340  17.799  12.846 -0.0854 -0.0170  0.1150
24650W        W40119  18.028   2.967  13.289 -0.1240  0.2082  0.1439
24651W        W40120  14.062  13.956   2.822  0.1282  0.0316 -0.1537
24652W        W40121  13.084   4.348   2.445  0.1007  0.3889 -0.3582
24653W        W40122  15.384  17.588  15.079 -0.2567 -0.0830  0.2936
24654W        W40123  16.292  11.241  15.809  0.1642 -0.0297  0.0305
24655W        W40124   9.832   4.842  15.698  0.3117 -0.3615  0.0781
24656W        W40125   8.841   7.690   0.869 -0.1181  0.0907 -0.0591
24657W        W40126   1.429   8.769   1.600 -0.0462 -0.2100  0.2323
24658W        W40127   4.883  11.564  15.814  0.3761  0.0988  0.1805
24659W        W40128   0.677  16.495  14.978 -0.1966  0.0102 -0.0856
24660W        W40129  11.757  14.247   5.520 -0.0094  0.1395  0.1645
24661W        W40130   4.053   5.763  14.380  0.2850  0.2003  0.4993
24662W        W40131   8.259   2.692   1.672  0.1801 -0.2332 -0.2559
24663W        W40132   2.864  12.962  11.595  0.1954 -0.1740  0.3233
24664W        W40133   0.294  15.564  15.314  0.2826  0.3724  0.0563
24665W        W40134   8.077   8.074   1.815 -0.1962  0.1278  0.3518
24666W        W40135  16.680  10.002   0.648 -0.0110 -0.0357  0.2277
24667W        W40136   3.444   5.085   1.461 -0.0458 -0.3520 -0.0948
24668W        W40137  13.163   5.483   3.957  0.5803  0.2288 -0.2486
24669W        W40138   1.234   1.951  12.251 -0.0314  0.0117  0.1953
24670W        W40139  10.884   7.110   0.776 -0.4306 -0.2323  0.0933
24671W        W40140  18.065   4.215   3.964 -0.1374  0.4867 -0.2117
24672W        W40141   7.151  15.742  13.545 -0.0472 -0.3353  0.0011
24673W        W40142   7.519   3.953  10.993 -0.0744 -0.0449 -0.3166
24674W        W40143   0.222  11.270   5.228  0.1110 -0.0559  0.2620
24675W        W40144   5.111  18.131  13.879 -0.0459 -0.3542 -0.2544
24676W        W40145  12.951   0.110   0.533  0.2161 -0.0791 -0.0278
24677W        W40146  11.078   8.915   3.354 -0.0973  0.1576 -0.0879
24678W        W40147   1.051   8.282  15.887 -0.0681 -0.0872  0.1963
24679W        W40148  17.530  10.786   0.060  0.0893  0.1337  0.1394
24680W        W40149   4.882  13.483   3.220 -0.5071 -0.0696  0.1323
24681W        W40150  12.584  10.477  11.657  0.0040  0.0864 -0.4496
24682W        W40151  14.979  14.438   2.789 -0.0833  0.0808 -0.2089
24683W        W40152  12.485   6.411  12.824 -0.0273  0.0470 -0.1777
24684W        W40153   3.783   8.136  14.851 -0.0782  0.1650 -0.1883
24685W        W40154   0.969  18.226  11.089  0.4838  0.1506  0.0717
24686W        W40155   8.858  10.737   3.990 -0.2392 -0.0691 -0.0523
24687W        W40156   3.950   7.115  13.312 -0.3271 -0.2764  0.1536
24688W        W40157  14.733  13.926  15.445 -0.2138 -0.0978  0.1766
24689W        W40158   6.844   2.300   0.229 -0.0050  0.1097  0.1611
24690W        W40159   7.888  11.172  11.113 -0.1866  0.0124  0.2041
24691W        W40160   6.784   1.188  15.494 -0.1823 -0.0961  0.0083
24692W        W40161  17.758   7.806   1.955 -0.0153 -0.0513 -0.1591
24693W        W40162   2.551  11.551   2.451 -0.0858  0.0922  0.1826
24694W        W40163   2.812  16.277   3.224 -0.2080 -0.0726 -0.1882
24695W        W40164  15.390   2.248   4.766  0.1632  0.0396  0.0033
24696W        W40165  16.730  13.248  15.098 -0.0671  0.2883  0.2405
24697W        W40166   8.857   4.723   3.579  0.0235  0.1571 -0.2155
24698W        W40167  12.781  15.276  15.248  0.5039 -0.1410  0.1306
24699W        W40168  17.271   7.624  11.549 -0.0717  0.0009  0.3927
24700W        W40169   6.069  17.174  13.053 -0.3129  0.2925  0.1637
24701W        W40170  16.853  13.679  13.330 -0.1759  0.2621  0.1753
24702W        W40171   9.022   9.180   3.471  0.1455 -0.2691 -0.2414
24703W        W40172  15.576   4.006   4.578  0.0542  0.1904  0.0034
24704W        W40173   0.408   0.905  15.685 -0.2962  0.1969  0.0825
24705W        W40174  16.072   0.242   3.038 -0.2014 -0.1990 -0.0717
24706W        W40175   6.802   6.124   4.525 -0.1699 -0.1184 -0.3008
24707W        W40176  17.172  13.465   0.802  0.2592 -0.0032  0.2126
24708W        W40177  14.993   6.888  11.595  0.0757  0.0089  0.0120
24709W        W40178   8.878   5.095   5.421 -0.1094 -0.0984  0.1450
24710W        W40179  17.734  15.045   6.212  0.1540 -0.2630  0.0937
24711W        W40180  12.683   2.174   0.464 -0.4432  0.2908 -0.1333
24712W        W40181   5.120   3.320  14.755  0.1930  0.0544  0.1165
24713W        W40182  15.968   7.211  14.343 -0.1018  0.1158 -0.0029
24714W        W40183   3.510   3.640  15.625 -0.0198  0.2690  0.1135
24715W        W40184  14.915  11.209  13.855  0.4137  0.1954  0.1229
24716W        W40185   6.594  17.787   2.747 -0.1716 -0.1037 -0.3282
24717W        W40186   9.162   8.620   3.646 -0.0519  0.0273  0.1437
24718W        W40187   7.984  18.059   0.983 -0.1444  0.4042  0.1570
24719W        W40188   6.178  17.253   5.566  0.1158  0.1867 -0.0519
24720W        W40189   4.396  16.574  11.045  0.1376  0.0521  0.2096
24721W        W40190  12.012   4.865  11.492 -0.0018 -0.0284 -0.2373
24722W        W40191   1.032   7.690  10.680 -0.0602  0.0939  0.1018
24723W        W40192   7.062  17.281   1.233 -0.0386  0.0791 -0.1195
24724W        W40193   1.709  12.411  15.574  0.6504  0.0538  0.0260
24725W        W40194   8.906  17.670   0.883 -0.0195 -0.1623 -0.0788
24726W        W40195  18.261  13.868  11.536 -0.1609  0.4372  0.1279
24727W        W40196  10.045  16.102   0.150  0.1483  0.1077 -0.1710
24728W        W40197   2.417   7.574   3.472 -0.3577 -0.2201  0.0033
24729W        W40198   9.026  16.878   0.545 -0.1474 -0.2095 -0.2525
24730W        W40199   8.701   4.800  12.105  0.0393 -0.0752 -0.1484
24731W        W40200   1.763  16.090  12.316 -0.0506 -0.3330 -0.1125
24732W        W40201   4.015   1.821   0.891 -0.0380 -0.1509  0.0999
24733W        W40202   4.351   0.894   2.654 -0.0535 -0.2014 -0.1337
24734W        W40203  14.567   6.105   2.842  0.0532  0.3231 -0.0436
24735W        W40204   1.273   1.217  14.160 -0.1073 -0.1222 -0.1308
24736W        W40205  12.911  11.167  14.825  0.0869  0.0158  0.0746
24737W        W40206   0.572  12.458  13.791 -0.0763 -0.0942  0.1788
24738W        W40207   7.851  16.847   3.790  0.1048  0.1240 -0.1158
24739W        W40208  14.704  15.260  13.235  0.1188 -0.2100  0.2307
24740W        W40209   0.716   8.928  11.632 -0.1194  0.1927  0.3819
24741W        W40210   0.962  15.286   5.695  0.1110  0.1832  0.0039
24742W        W40211  11.382   7.403   4.881  0.1705  0.0126 -0.1874
24743W        W40212  18.076   4.032  15.203  0.1361  0.2599  0.1505
24744W        W40213  14.391  11.878  10.803  0.0390 -0.2100  0.0039
24745W        W40214   9.815   4.636  11.688 -0.1773 -0.2484  0.0782
24746W        W40215  12.155   2.271   4.914 -0.2514 -0.0940  0.1422
24747W        W40216  14.349  14.257  15.297  0.0578  0.1194 -0.1477
24748W        W40217   7.977   7.798  15.550  0.0620 -0.0941 -0.1234
24749W        W40218   0.216  15.902   4.673  0.0088 -0.1757 -0.1889
24750W        W40219   4.655   1.123  11.747  0.2019 -0.0545  0.0511
24751W        W40220   3.645   8.017  13.155  0.1019 -0.0265 -0.1054
24752W        W40221   2.228  12.829  14.584 -0.1728  0.2161  0.0316
24753W        W40222  12.012   7.654   3.410 -0.3181  0.1221 -0.1223
24754W        W40223  15.666   4.943   0.793 -0.0068 -0.1791  0.2684
24755W        W40224   7.623  15.680  15.109 -0.4993  0.0877  0.1629
24756W        W40225   1.728   9.318  13.957  0.1014 -0.0984 -0.3523
24757W        W40226  18.270  15.124   2.526 -0.0610 -0.0475 -0.1221
24758W        W40227   6.611   6.425  13.784  0.2625  0.1261 -0.3839
24759W        W40228  14.023   8.216  13.860 -0.0820 -0.1352  0.0830
24760W        W40229  17.947   1.855  14.801  0.3401 -0.3561  0.1828
24761W        W40230   8.581  15.653  14.332  0.3241 -0.1798 -0.1683
24762W        W40231   9.920   9.932  14.735  0.2498  0.0995 -0.2313
24763W        W40232   0.586  16.652   5.768  0.0623  0.1175  0.1377
24764W        W40233   6.889   3.504   2.235 -0.0396 -0.0107 -0.0698
24765W        W40234   9.944   0.508   0.902 -0.0312  0.2146 -0.0525
24766W        W40235   9.427   3.720  15.089 -0.0766 -0.1144 -0.1581
24767W        W40236  15.713   8.640  10.906  0.0342  0.0006  0.1874
24768W        W40237  15.228  12.350  14.421  0.0129 -0.2386 -0.0122
24769W        W40238  11.326  17.170   1.706 -0.1942 -0.0517 -0.0856
24770W        W40239   1.580   1.970  13.612 -0.3210  0.1153  0.3809
24771W        W40240  12.032  15.007   0.262 -0.0996  0.5061 -0.0694
24772W        W40241  17.134   8.158   0.334 -0.0062  0.1214  0.0607
24773W        W40242  16.822   1.571  14.136  0.0920 -0.3954  0.1134
24774W        W40243   6.545   5.801  12.429 -0.0747 -0.0200  0.0116
24775W        W40244   1.555  14.567  15.995 -0.1419  0.0668 -0.2774
24776W        W40245   3.603   7.254  12.494  0.1302 -0.0576 -0.2852
24777W        W40246  12.990  10.486  12.208  0.1522  0.1796 -0.0715
24778W        W40247   9.881   9.581  10.985  0.1976 -0.1255 -0.0512
24779W        W40248   5.365  14.763   2.775 -0.2970  0.5666  0.1720
24780W        W40249   9.143   4.012   1.528  0.0037  0.0394 -0.0703
24781W        W40250  12.396   2.794  12.660  0.0552 -0.0496  0.1362
24782W        W40251  17.548  10.859  12.076 -0.1752  0.4107  0.1580
24783W        W40252   7.053   8.167  10.784  0.0329  0.2846  0.1311
24784W        W40253   8.635  14.671  12.058 -0.0869  0.0577  0.2249
24785W        W40254  17.648  17.501  15.532 -0.2549 -0.0079  0.2447
24786W        W40255   8.985   1.608  15.672 -0.0254 -0.0848 -0.0984
24787W        W40256   4.798  15.761   4.705  0.2540 -0.2390 -0.1594
24788W        W40257  16.366   8.827   5.410 -0.0765 -0.4006 -0.1831
24789W        W40258   1.776  10.052  12.765 -0.0166  0.3006 -0.3804
24790W        W40259   1.457  15.147  11.631  0.3176 -0.2246 -0.0257
24791W        W40260  15.078   2.484   1.016  0.0974  0.0883  0.1995
24792W        W40261  16.156  16.508   5.856  0.1687 -0.0207 -0.1649
24793W        W40262   0.994   6.561   4.582  0.2369  0.4270  0.1374
24794W        W40263   4.001   0.398  12.705 -0.3302  0.0031 -0.1921
24795W        W40264   3.514   1.515  14.418  0.0610 -0.0836  0.0791
24796W        W40265   6.861   5.098   1.982  0.1148 -0.0765 -0.1907
24797W        W40266   3.416   3.069  14.945  0.1385  0.0214 -0.3289
24798W        W40267   3.218   1.027  13.618  0.0299 -0.2208 -0.3098
24799W        W40268  13.273   1.846   3.993  0.0294 -0.3245 -0.0105
24800W        W40269  10.454   0.513   0.992  0.0788 -0.0259 -0.1456
24801W        W40270   5.747  11.880  13.938 -0.0011 -0.3370  0.0127
24802W        W40271   2.327  17.544  14.757 -0.0361  0.0562  0.3278
24803W        W40272  12.578  11.527   2.265  0.2263  0.0748  0.0661
24804W        W40273   9.941   9.557  15.651 -0.2487  0.0312  0.2808
24805W        W40274  14.757   6.904  13.498 -0.0961  0.3952 -0.0439
24806W        W40275  11.728  13.474   1.466 -0.0536 -0.0048  0.2264
24807W        W40276  16.166  14.271  15.650 -0.0471 -0.2481 -0.3179
24808W        W40277  15.821   3.934   2.349  0.2651  0.0018  0.0915
24809W        W40278  10.217  17.577   2.703  0.2136  0.2651 -0.0214
24810W        W40279   5.350  11.654  11.396 -0.0358 -0.1199 -0.0341
24811W        W40280   2.409  12.436   3.534 -0.3740 -0.0996  0.1494
24812W        W40281   7.956  15.496  13.607 -0.1324  0.1923 -0.0984
24813W        W40282   8.372  12.867   4.470  0.0605  0.0858 -0.0666
24814W        W40283   5.960   3.819   0.799  0.2614  0.1239 -0.0259
24815W        W40284  10.591   7.873   4.864  0.0655 -0.1083  0.0994
24816W        W40285  15.238   3.217   6.252  0.2828 -0.0128  0.2079
24817W        W40286  16.531   8.476   2.389  0.0767  0.0856 -0.0389
24818W        W40287  16.449  18.082   5.427  0.0054  0.1627 -0.2458
24819W        W40288  13.303   6.160  11.371 -0.1114  0.1187 -0.4004
24820W        W40289  10.151   3.040  11.633  0.0720 -0.2022 -0.0332
24821W        W40290   2.598  15.699  13.096 -0.0208  0.2537  0.2810
24822W        W40291  16.756   7.786   3.131  0.0458  0.1300 -0.1198
24823W        W40292  15.742   6.781   4.213 -0.1612 -0.1569 -0.1096
24824W        W40293   6.374   6.045   1.111 -0.0657  0.0608 -0.1371
24825W        W40294   5.327  11.912  12.605 -0.1577  0.1610  0.0319
24826W        W40295  12.851  16.912   5.483  0.2675 -0.2887 -0.1049
24827W        W40296  15.924  10.376   0.245 -0.1480 -0.0606 -0.0271
24828W        W40297   1.852   8.486  13.731  0.0392 -0.0214  0.0405
24829W        W40298   4.822   8.699   2.603 -0.1515  0.1886  0.0140
24830W        W40299   1.206  12.344  14.596 -0.0415  0.0972  0.3518
24831W        W40300   8.758  10.954  15.952 -0.1262 -0.3891  0.1212
24832W        W40301   6.974  10.319   1.317 -0.0070  0.1224 -0.1321
24833W        W40302  15.224  17.865   1.333  0.2501 -0.1760  0.3894
24834W        W40303  14.610  11.892   2.312  0.2229  0.1838  0.0294
24835W        W40304   4.219  12.913  12.227 -0.0221  0.1310 -0.3026
24836W        W40305   3.827  10.423   5.808 -0.1850  0.0521 -0.3877
24837W        W40306   0.552  14.453   5.868  0.0399  0.0061  0.3267
24838W        W40307   6.111  12.289   2.210 -0.0018  0.2401 -0.1761
24839W        W40308   8.185   6.292  11.938  0.0775 -0.5288 -0.1070
24840W        W40309   5.714  13.748  15.922  0.3236  0.0153  0.1292
24841W        W40310  14.261   2.954   2.636  0.1086  0.3107 -0.0987
24842W        W40311   7.129   3.900   1.995 -0.0468 -0.1371 -0.0073
24843W        W40312   1.399  10.151   2.010  0.0199 -0.0798  0.0819
24844W        W40313  14.924  16.077   5.488  0.2043  0.0721  0.0614
24845W        W40314  16.098  15.517   4.292 -0.2440 -0.2174  0.1213
24846W        W40315   5.727   1.043   5.019 -0.1816  0.1751  0.3352
24847W        W40316   1.882   6.852  12.160  0.1171  0.1277 -0.2996
24848W        W40317   9.009   6.349   4.422  0.0857 -0.1874 -0.2783
24849W        W40318  12.847  15.856   2.224 -0.0073 -0.3438  0.1109
24850W        W40319  11.554  16.721  16.019  0.2701 -0.1453 -0.1558
24851W        W40320   5.348   9.027  14.801  0.0937  0.1180  0.1273
24852W        W40321  12.992   9.967   1.536 -0.1690  0.0798  0.3545
24853W        W40322  13.391  14.000   0.428  0.1136 -0.1286  0.2948
24854W        W40323   0.718  13.326   2.326  0.0204 -0.0353 -0.0438
24855W        W40324   6.492  17.105  11.373 -0.2683  0.1149  0.0816
24856W        W40325   2.158  14.796   2.067  0.0511 -0.0431  0.2115
24857W        W40326   3.406  17.488  12.829 -0.3554 -0.1541 -0.1004
24858W        W40327  13.859  11.870  14.558  0.0743  0.0175 -0.1092
24859W        W40328   3.611   9.023  15.651  0.0711 -0.2345 -0.3461
24860W        W40329   2.276   4.292   0.016  0.0947 -0.1332  0.1382
24861W        W40330  12.218  11.990   2.715  0.0760 -0.0832 -0.4353
24862W        W40331   6.781   1.331   4.336  0.0211 -0.3267  0.0439
24863W        W40332   4.647   1.637  12.329 -0.0793 -0.0546  0.0685
24864W        W40333   1.449  17.030   4.081 -0.2077  0.1770 -0.1130
24865W        W40334   2.071   1.052  11.958 -0.1401 -0.1267 -0.0886
24866W        W40335   6.276   5.101   0.151 -0.0963 -0.1452  0.0289
24867W        W40336   0.964  13.182   3.387  0.0077  0.1498  0.1348
24868W        W40337  15.407  12.206   5.334  0.3319  0.2420 -0.0948
24869W        W40338   7.739   6.227   4.732 -0.2425  0.2178  0.1160
24870W        W40339   5.426  17.109  14.114  0.1424 -0.1566 -0.3295
24871W        W40340  14.073  12.936   1.988 -0.0169  0.1106 -0.1668
24872W        W40341   7.976   0.696  13.325  0.1196  0.1799 -0.2097
24873W        W40342   2.055  13.425  13.691  0.1946 -0.5715  0.2652
24874W        W40343  16.451   7.127   4.113 -0.2827 -0.2376 -0.0111
24875W        W40344   8.757  13.677  12.150 -0.1324  0.2343 -0.1749
24876W        W40345  17.998   3.506   5.989 -0.1449  0.0249 -0.1008
24877W        W40346  16.213   3.888   0.616 -0.1809 -0.0195  0.1031
24878W        W40347   3.699   4.977   0.092 -0.2405  0.5116  0.1682
24879W        W40348   0.433   3.223   0.595 -0.0938  0.1395  0.1195
24880W        W40349   3.328  16.872   1.589 -0.0444 -0.0281  0.2813
24881W        W40350  12.201  10.521  12.020 -0.1088  0.1122 -0.1034
24882W        W40351  15.798  14.708  11.772 -0.3074 -0.0289 -0.3728
24883W        W40352   1.544   5.318   3.715 -0.1710  0.1410  0.0588
24884W        W40353  12.663  13.829  12.249  0.0358  0.0744  0.0411
24885W        W40354  10.354  12.776   3.236  0.0569  0.0953 -0.0677
24886W        W40355  16.797   1.118  13.974  0.1048 -0.1178  0.2739
24887W        W40356  11.595   8.380   1.732 -0.0807 -0.1093  0.1212
24888W        W40357  11.370   5.489  12.325  0.5368  0.1070 -0.2467
24889W        W40358  10.289   2.210  13.126 -0.0805 -0.1929  0.2334
24890W        W40359   1.610   6.005  13.030  0.0130  0.1087 -0.4067
24891W        W40360   1.114  13.652  15.429  0.0511  0.2076  0.2390
24892W        W40361   0.956  10.784  13.925  0.0000  0.0564 -0.0088
24893W        W40362  15.120  16.045   0.354 -0.1558 -0.1457  0.1157
24894W        W40363   5.493   3.280  12.244 -0.0405  0.2695 -0.0169
24895W        W40364   1.022  11.473  12.344 -0.2853 -0.0041 -0.3453
24896W        W40365   8.185  11.443   4.309 -0.0605  0.0964  0.2877
24897W        W40366   1.975  17.553   1.136  0.2806  0.1477  0.2065
24898W        W40367   2.226   5.090   2.981  0.4962  0.0150 -0.2326
24899W        W40368   8.337  15.671  15.731 -0.0423 -0.0561  0.1236
24900W        W40369  16.553   0.997   0.045  0.3451  0.3286  0.3450
24901W        W40370  16.716   6.104   1.784  0.1088 -0.2882 -0.3517
24902W        W40371  14.966  13.943  13.861  0.0371  0.0532  0.0641
24903W        W40372   3.810   5.920   3.212 -0.1642 -0.0877 -0.1167
24904W        W40373   7.292   1.006  15.639  0.1930 -0.0393  0.3121
24905W        W40374  15.825   4.605  16.066 -0.3711 -0.0257  0.3209
24906W        W40375   8.652   3.081  11.587 -0.0033 -0.1230 -0.2020
24907W        W40376   8.179   0.022  16.000 -0.2145 -0.2242  0.2759
24908W        W40377  11.717   5.619   4.139  0.2322  0.1753  0.1257
24909W        W40378  11.095  15.078   3.371  0.1001 -0.1706  0.0342
24910W        W40379   8.983   9.657   3.564  0.0421 -0.0188 -0.2649
24911W        W40380  16.286  14.295   5.256  0.0157 -0.0330 -0.2514
24912W        W40381   7.111   3.135   1.346 -0.0603 -0.2953 -0.3477
24913W        W40382   2.486  13.931  15.271  0.1528 -0.0545  0.2245
24914W        W40383  11.476   3.849  13.832 -0.1972  0.1165 -0.1272
24915W        W40384  17.143   1.531   5.784  0.0954  0.0229 -0.2323
24916W        W40385  10.519   6.236  13.808 -0.0937  0.0915 -0.0644
24917W        W40386  10.906   8.905   1.829  0.3584 -0.3196 -0.0782
24918W        W40387  12.345  12.738   4.770 -0.1959  0.0444 -0.1603
24919W        W40388   6.820   2.832  11.656 -0.1534 -0.1874  0.1313
24920W        W40389  16.295  13.600  14.490  0.2055 -0.1579 -0.0630
24921W        W40390  11.628  13.969   0.107 -0.0109 -0.0394  0.2107
24922W        W40391  16.002  14.983   4.441  0.0691 -0.3315  0.3212
24923W        W40392  18.208   7.775   3.418  0.1686  0.1052  0.1333
24924W        W40393   0.829  15.199   5.242  0.1116  0.0124  0.2899
24925W        W40394   5.905  13.258  11.297  0.0647 -0.0037 -0.0656
24926W        W40395   8.173   7.872  15.984 -0.1957 -0.0610  0.1218
24927W        W40396  16.811   3.939   3.211  0.0948 -0.0438 -0.1234
24928W        W40397  15.444   5.837   5.269  0.0842  0.0189 -0.3220
24929W        W40398  18.100   5.411   0.762  0.0227  0.0311 -0.0311
24930W        W40399   9.461   0.436   0.864 -0.1200  0.3108  0.2636
24931W        W40400   7.243   2.889   4.817  0.1108 -0.0372 -0.1458
24932W        W40401   5.668  16.806   2.069 -0.1803 -0.0419 -0.0375
24933W        W40402   5.843   5.759   1.209  0.3033 -0.0282  0.0682
24934W        W40403  10.732  15.018  12.965  0.0517  0.0297  0.0792
24935W        W40404  11.928   2.495   0.479  0.3206  0.1067 -0.1102
24936W        W40405  12.459   3.717  16.034  0.0587  0.0227 -0.3223
24937W        W40406   3.198  11.498  11.825  0.4214  0.2420  0.2154
24938W        W40407  13.437  16.048   1.688  0.0863 -0.0364  0.2444
24939W        W40408   9.260   7.340  11.218 -0.3524  0.0631  0.0673
24940W        W40409   6.086   4.610  14.958 -0.3411  0.1082 -0.0089
24941W        W40410   2.236   1.570  14.695 -0.2025 -0.2356  0.0689
24942W        W40411   0.709  11.465  11.366  0.3150 -0.1409  0.1974
24943W        W40412   3.607  10.343   5.391 -0.0135 -0.0981 -0.0302
24944W        W40413  11.873   6.742  13.219  0.1141 -0.0851  0.0939
24945W        W40414   5.903   1.109  10.824  0.2277 -0.2649 -0.1488
24946W        W40415  15.248   0.855  10.946 -0.0141  0.0900 -0.1928
24947W        W40416  12.725  17.649   2.557 -0.0561  0.3512 -0.2756
24948W        W40417   4.665   2.959  12.738 -0.1839  0.0316 -0.0500
24949W        W40418  11.059  17.143  13.785  0.0990 -0.3082 -0.0824
24950W        W40419   0.542   8.643   4.905  0.1430  0.0340  0.1252
24951W        W40420  17.803  13.256  12.480  0.1141 -0.0761 -0.1701
24952W        W40421  14.078   8.744  13.067 -0.2287  0.0485  0.1864
24953W        W40422   2.417   9.644   0.937  0.0946  0.0572  0.0923
24954W        W40423   9.763   1.202   3.998 -0.1589  0.0600 -0.0143
24955W        W40424  13.401   8.733  14.850  0.1021  0.1029  0.2389
24956W        W40425   8.221   0.515  14.564  0.0258 -0.0447  0.0323
24957W        W40426  13.210  16.282  10.081 -0.0974 -0.0759  0.1502
24958W        W40427  16.603  10.750  12.654  0.0628  0.1918  0.2864
24959W        W40428   9.026   1.427   2.179 -0.0257  0.2540  0.0352
24960W        W40429   5.872  11.716  15.618  0.1668  0.1532  0.2699
24961W        W40430  11.392  11.493  11.759  0.1504  0.3857  0.2821
24962W        W40431  13.766   8.445   6.434 -0.2515  0.0609  0.1176
24963W        W40432  16.051  15.727   3.821 -0.1324  0.0643 -0.0302
24964W        W40433   4.818  11.702   0.495  0.0916  0.2285  0.2685
24965W        W40434   5.921   8.581   0.243  0.0833 -0.0595 -0.0137
24966W        W40435  11.795   6.902  11.624 -0.0669  0.0856 -0.0662
24967W        W40436   2.001   4.911   1.290  0.0999 -0.0604 -0.2022
24968W        W40437   5.329  13.158  11.861 -0.2261  0.1566 -0.4425
24969W        W40438   7.989   1.189  13.457 -0.1794  0.1287 -0.0062
24970W        W40439   9.759   4.104  15.722  0.0693  0.1084  0.2252
24971W        W40440   8.507   0.101  12.617  0.0194 -0.0421  0.1175
24972W        W40441   9.070   6.986  11.568 -0.1413  0.0872 -0.2080
24973W        W40442  13.815  10.348  14.939  0.1323  0.1033 -0.1100
24974W        W40443  18.157   2.920  11.405  0.0067 -0.1026 -0.2416
24975W        W40444   9.090   6.971   3.059  0.2200 -0.1411  0.1562
24976W        W40445   6.554  12.034   3.288 -0.1330  0.0832  0.2303
24977W        W40446   9.034   5.796  13.905 -0.0414 -0.1612  0.2643
24978W        W40447  14.426   4.045  13.704  0.1862 -0.0140 -0.3444
24979W        W40448   8.325   3.534   4.167  0.0112 -0.1964  0.0958
24980W        W40449   3.308  17.181   4.496  0.0963  0.0322  0.2402
24981W        W40450  17.409  11.828  10.782  0.1411 -0.1599  0.0017
24982W        W40451   7.023  15.520  10.167  0.1263  0.3455  0.0708
24983W        W40452  17.059  10.132  13.409  0.0735 -0.0934  0.4596
24984W        W40453   7.447  11.481  14.601 -0.2322  0.0989  0.0300
24985W        W40454  11.627  13.414   2.172 -0.0732  0.0666  0.1990
24986W        W40455  17.821   9.282  11.394 -0.2249  0.2570  0.1187
24987W        W40456   3.428   7.010  12.084 -0.0257 -0.1053  0.1918
24988W        W40457  15.004  15.297  15.826  0.1023  0.3264  0.1507
24989W        W40458   6.505   0.964  15.955 -0.2459 -0.2639  0.1484
24990W        W40459   1.243   6.386   0.824  0.1585 -0.0964 -0.1597
24991W        W40460  15.963   0.984  12.887 -0.3960 -0.1864 -0.0618
24992W        W40461  14.360   1.230  11.266 -0.2188  0.0323  0.0166
24993W        W40462   0.555  11.172  15.886 -0.2149 -0.2076 -0.2207
24994W        W40463   8.638  16.111   3.973  0.3925 -0.0723 -0.1773
24995W        W40464   9.467  14.821   4.193  0.1426  0.3135  0.1337
24996W        W40465   9.674  11.117  13.424 -0.1312  0.0669 -0.0131
24997W        W40466   5.315  10.149  14.271  0.1315  0.1354 -0.0684
24998W        W40467   1.169  10.354   5.216 -0.0993  0.1615  0.1218
24999W        W40468   7.038  13.574  13.164 -0.0842  0.4000 -0.1762
25000W        W40469   2.892   1.497   1.595  0.1020  0.2085 -0.0426
25001W        W40470   6.364   5.305  14.115 -0.1222 -0.0015 -0.3338
25002W        W40471   4.226  13.109  10.290 -0.1100  0.0297 -0.1581
25003W        W40472   7.816   0.129  10.333  0.1745  0.0116 -0.0335
25004W        W40473   8.349   6.490   3.092 -0.1887  0.1059 -0.0978
25005W        W40474   9.518   2.066   3.350 -0.0212  0.3478 -0.4020
25006W        W40475   4.235   1.943   1.825  0.0325  0.1623 -0.2321
25007W        W40476   9.338  13.529  15.778 -0.0855  0.0830 -0.2107
25008W        W40477   8.676   9.633  15.282 -0.2558  0.1330  0.0599
25009W        W40478  13.063  14.184   4.622  0.3603  0.2721  0.1949
25010W        W40479   2.048   3.301   2.782  0.3486 -0.1928 -0.2600
25011W        W40480   5.593  11.810   3.349  0.1956  0.1368  0.1753
25012W        W40481   8.949   2.434  13.958  0.1757 -0.1793  0.1247
25013W        W40482   8.004   5.078  13.266 -0.1550  0.1160  0.2048
25014W        W40483  10.718   5.245  13.353  0.1236 -0.1991 -0.1970
25015W        W40484   3.460   5.197  14.316 -0.1038  0.0586  0.0382
25016W        W40485   9.809  17.539  14.762 -0.2834  0.0397  0.0357
25017W        W40486  17.999   7.973  11.984  0.1823 -0.2049 -0.0272
25018W        W40487  12.271  13.384  11.534 -0.0743 -0.0932  0.3031
25019W        W40488  15.804   0.244  14.154  0.0917 -0.1667  0.1910
25020W        W40489  12.808  15.354   4.327  0.3583 -0.2368 -0.1440
25021W        W40490  15.022   3.404  12.051  0.5018 -0.5723 -0.0805
25022W        W40491  12.477   5.229  15.195 -0.0098  0.0196 -0.2214
25023W        W40492  14.594   8.638   0.157  0.1904 -0.1426 -0.1035
25024W        W40493   6.143  11.231   0.509  0.1986  0.0930  0.0493
25025W        W40494   3.280   6.939  14.779 -0.0929  0.0148 -0.0290
25026W        W40495   0.394   7.032   3.826  0.1547  0.2672  0.3617
25027W        W40496  13.072  11.060  13.931 -0.0017  0.0928 -0.1492
25028W        W40497   3.244   6.911  12.577 -0.1351  0.0814  0.1056
25029W        W40498   7.129  13.266  13.594 -0.0574  0.2758 -0.2063
25030W        W40499  11.265  17.944   0.329 -0.0642 -0.1049  0.2142
25031W        W40500   9.056  13.053  13.908 -0.0183  0.1729  0.2517
25032W        W40501   8.771   5.577  11.030  0.1493 -0.2270 -0.0035
25033W        W40502  16.670   8.333   1.140 -0.0753 -0.0928 -0.2160
25034W        W40503   6.050   3.338   2.446 -0.0539  0.0825  0.0298
25035W        W40504  10.689   8.391   2.524  0.0287 -0.0084 -0.0382
25036W        W40505  17.999   4.810   5.228  0.0932  0.0371  0.0261
25037W        W40506  14.495   1.363   5.918  0.0474 -0.0326 -0.0534
25038W        W40507  14.162   4.012  15.345 -0.0121 -0.1806  0.2483
25039W        W40508   1.820   9.162  10.646  0.0032  0.0842 -0.0501
25040W        W40509  15.788  12.305   3.065  0.1255  0.1900 -0.2356
25041W        W40510  16.138   4.318   5.355  0.0063 -0.2039  0.0277
25042W        W40511  13.938   8.274  12.892  0.0187 -0.1353  0.1522
25043W        W40512  17.872   7.591  12.983 -0.0601  0.1250 -0.0155
25044W        W40513   6.689   2.550   0.781 -0.1128 -0.0485 -0.2120
25045W        W40514  16.903   1.900  15.161  0.0170  0.0359 -0.1947
25046W        W40515  11.441   9.074  11.750  0.1448  0.1543 -0.0491
25047W        W40516   6.901  11.399  13.507 -0.0284  0.0627 -0.0959
25048W        W40517  15.333   3.554   2.199  0.3060  0.0986  0.0153
25049W        W40518   1.840  12.927  13.536 -0.1960 -0.2261 -0.0815
25050W        W40519  15.330   0.818   4.280 -0.3296  0.0302 -0.2164
25051W        W40520  15.713  16.057   3.626  0.0049 -0.4805 -0.0950
25052W        W40521   1.961   8.822   1.476 -0.1786  0.0005 -0.0538
25053W        W40522   0.539   5.608   3.765 -0.1109  0.2223 -0.0485
25054W        W40523  15.201  10.667  15.409 -0.2036  0.0023 -0.0182
25055W        W40524  10.632  18.248   3.117  0.0220 -0.0901 -0.1214
25056W        W40525   2.559  12.709  11.136 -0.2828 -0.2477  0.1965
25057W        W40526  16.201  15.148   3.929  0.2791 -0.1281  0.1754
25058W        W40527   7.501  12.904  15.931 -0.0380  0.0450  0.1786
25059W        W40528   5.491  15.540   2.245 -0.0925  0.0843  0.1447
25060W        W40529  12.439   1.572  13.969  0.1902 -0.0923 -0.0239
25061W        W40530  13.292  12.733  13.181  0.2805 -0.0785  0.2213
25062W        W40531   4.601  18.278  14.028  0.1821 -0.5503  0.0775
25063W        W40532   3.821   3.072  13.671 -0.3300  0.0819  0.7428
25064W        W40533  12.874   2.258  12.019 -0.0499 -0.1184  0.2622
25065W        W40534  17.963   1.648   5.542  0.3262 -0.1608  0.0705
25066W        W40535   2.881  13.382   2.324 -0.2202 -0.1275 -0.0364
25067W        W40536  10.214  12.449  12.765  0.1588 -0.1577  0.1532
25068W        W40537  15.187   4.557   0.077  0.0738  0.5824 -0.0232
25069W        W40538  11.801   7.059   4.998  0.0169 -0.0441 -0.2352
25070W        W40539   2.145   6.902  12.630 -0.0559 -0.0483 -0.0545
25071W        W40540  18.167   1.731   2.949  0.2925  0.0663 -0.0379
25072W        W40541  12.012   8.792  14.540  0.0027  0.0069  0.1367
25073W        W40542  12.587  18.181   3.112 -0.0645  0.2113  0.0764
25074W        W40543   1.907   6.498   5.056  0.1667  0.0821  0.1542
25075W        W40544   6.263   1.035   5.048  0.2688  0.1682  0.0631
25076W        W40545  17.475   2.367   2.492 -0.0758 -0.1388 -0.1364
25077W        W40546   4.921   1.749   2.151 -0.0716 -0.1158 -0.1015
25078W        W40547   9.465  15.221   1.286 -0.0247 -0.0363 -0.2588
25079W        W40548  10.502   5.104   1.720 -0.2398 -0.3434  0.1915
25080W        W40549  12.819   4.710  15.978 -0.0701  0.1145  0.0205
25081W        W40550  10.336   7.462  14.510 -0.0595  0.1348 -0.0479
25082W        W40551  13.886   5.233  14.228  0.3591  0.4009 -0.3494
25083W        W40552  15.556   3.506  14.850 -0.2291 -0.1612 -0.1962
25084W        W40553  13.663  17.516   6.009 -0.0144 -0.1716  0.2512
25085W        W40554   4.388   4.717   4.239  0.0762  0.2030  0.1596
25086W        W40555  12.048  16.755  10.842 -0.1697  0.0195  0.1391
25087W        W40556   6.661  14.072  11.853 -0.1321  0.0075  0.1182
25088W        W40557  12.398  12.230   2.277  0.0201  0.1856  0.1537
25089W        W40558  17.759   1.114   0.404  0.0342 -0.1166  0.2210
25090W        W40559   1.566  15.525  14.930  0.1566  0.0657  0.0575
25091W        W40560   0.268  12.635   5.537  0.2803 -0.0678  0.0233
25092W        W40561  15.675  11.451  14.030  0.0925 -0.3765 -0.1531
25093W        W40562  11.773  11.779   4.685  0.1960 -0.0712  0.3278
25094W        W40563  12.060  14.917  15.833 -0.2515  0.0632 -0.2992
25095W        W40564  11.921   2.853   0.915  0.0822  0.0753  0.1482
25096W        W40565   9.700   4.017   5.176  0.3266  0.1687  0.0097
25097W        W40566  17.215   9.416  12.140 -0.1799  0.0790  0.0545
25098W        W40567   2.320  16.931  10.936 -0.1566 -0.0669  0.0618
25099W        W40568  15.938  15.993  11.689 -0.1027  0.0442 -0.0830
25100W        W40569  11.354  15.002   4.378 -0.0659 -0.4845 -0.3017
25101W        W40570  14.215   5.033  15.902 -0.3086  0.1465 -0.2256
25102W        W40571  12.518  12.231  12.452 -0.2457 -0.0322  0.4570
25103W        W40572   2.151   7.970  13.397 -0.2720  0.1624 -0.0407
25104W        W40573  10.891  15.496   0.070 -0.1850 -0.1900  0.5187
25105W        W40574  13.878   6.120   4.018 -0.0284  0.1097 -0.1737
25106W        W40575   3.341   3.771   4.599  0.0468 -0.0148 -0.0576
25107W        W40576   8.030   6.289  12.513 -0.0799  0.1678  0.1311
25108W        W40577  17.818  16.805   0.187  0.1146  0.1092  0.1742
25109W        W40578  12.737   8.116   1.508  0.3757  0.0675  0.1855
25110W        W40579   3.284   6.696  15.270 -0.0941 -0.0288  0.1521
25111W        W40580   1.554   5.839   1.572  0.0164  0.2224  0.0236
25112W        W40581   6.886  15.895  14.808 -0.0288 -0.3751 -0.1216
25113W        W40582  12.863   2.641   5.482  0.0279  0.1068 -0.0316
25114W        W40583   1.218   6.322  15.991  0.0361  0.2175 -0.0187
25115W        W40584  14.412  16.723  14.311  0.0803  0.0984 -0.1291
25116W        W40585   8.409  10.130   2.099  0.1298  0.2859 -0.0154
25117W        W40586   2.497   4.912  13.348  0.1753  0.2285 -0.3347
25118W        W40587   8.703   8.977  12.903 -0.0035  0.1246  0.2494
25119W        W40588   8.739  13.804  15.358  0.2980  0.1516 -0.2097
25120W        W40589  16.198  17.381  15.549 -0.1188  0.0625 -0.3575
25121W        W40590   7.333   4.723  11.523 -0.1582  0.0039  0.3372
25122W        W40591   3.905  16.098  13.984 -0.0088 -0.0086  0.0275
25123W        W40592   3.318  13.977   3.812 -0.1676 -0.2075  0.0457
25124W        W40593   0.611   4.452   1.819 -0.1114  0.0727 -0.1273
25125W        W40594  17.117   2.360   0.919 -0.0272 -0.1790 -0.0985
25126W        W40595   6.478  10.766   4.498  0.1065  0.0700 -0.2222
25127W        W40596   1.053   3.862   0.643 -0.4742 -0.0721  0.0903
25128W        W40597  11.129   1.692  12.824 -0.0840 -0.0614  0.2412
25129W        W40598  12.312   0.528   1.727 -0.1056  0.0804  0.2768
25130W        W40599  12.841  13.336  15.641 -0.0316  0.1129 -0.0658
25131W        W40600  14.689   8.457  14.581 -0.1432  0.1592 -0.1233
25132W        W40601  13.819   7.783  14.035  0.1519  0.1988  0.1175
25133W        W40602  11.025  10.690   2.395  0.4602 -0.3592 -0.0920
25134W        W40603  11.036   1.602  13.817 -0.1598 -0.2302 -0.2373
25135W        W40604   7.986   5.886  16.040  0.2791  0.1766  0.1859
25136W        W40605  12.037   0.981  12.755  0.0621  0.0294  0.3603
25137W        W40606   4.314   1.949   2.520 -0.2447 -0.2494  0.1613
25138W        W40607  12.142   6.028   6.348 -0.2054 -0.1510 -0.1874
25139W        W40608   0.733   1.180  12.297 -0.0674 -0.2271  0.0593
25140W        W40609  16.545   0.742   1.623  0.1566  0.1605 -0.2575
25141W        W40610   0.793   8.953   9.946  0.1154 -0.0962  0.1968
25142W        W40611  14.374   2.849  14.983  0.0344 -0.1780  0.1160
25143W        W40612  15.274  14.441   1.495  0.1240 -0.3447 -0.1902
25144W        W40613   2.686   5.369  11.609  0.0969 -0.1717 -0.1201
25145W        W40614  17.768   5.330  14.953 -0.0112  0.0568  0.0703
25146W        W40615  17.794   4.697   4.065 -0.0523  0.1252  0.0013
25147W        W40616   4.310  11.147  12.492 -0.0408  0.3423 -0.0866
25148W        W40617   9.436   4.727   2.939  0.2751  0.0458  0.2074
25149W        W40618   2.932  11.541   4.356 -0.1485  0.2197  0.0399
25150W        W40619  15.697   2.363   0.559 -0.0565  0.1291 -0.0777
25151W        W40620   4.555   8.916  12.425 -0.1785 -0.0953 -0.2113
25152W        W40621   4.609   4.956  16.097 -0.0307 -0.2121 -0.0860
25153W        W40622   6.844   9.746  15.784 -0.1764 -0.0138 -0.1486
25154W        W40623  17.276  13.350  15.179  0.2927 -0.1106  0.0295
25155W        W40624  14.566   1.720  13.852 -0.3137  0.0592 -0.2257
25156W        W40625  10.813   1.366  14.653  0.1394 -0.2122 -0.1229
25157W        W40626   5.760   8.128  12.143  0.1239  0.2397 -0.1855
25158W        W40627   8.297   8.373   0.163 -0.0750  0.1061 -0.1702
25159W        W40628  16.201   0.937  13.920 -0.1237 -0.0519  0.1407
25160W        W40629  12.102   0.365   2.154 -0.0657 -0.0875  0.1909
25161W        W40630  12.859  15.515   3.828  0.0126  0.0306  0.1110
25162W        W40631   1.502   7.177  15.449 -0.1856  0.1056  0.1210
25163W        W40632  13.351   5.557  15.085 -0.2559 -0.1035 -0.2376
25164W        W40633  16.937   1.102   1.929 -0.1012  0.0950  0.4111
25165W        W40634   7.658   8.824  12.681 -0.1674  0.0958  0.1337
25166W        W40635  10.491   6.785   5.280  0.2053 -0.0637  0.0943
25167W        W40636   0.050  15.782  12.457  0.0090 -0.2132  0.1427
25168W        W40637  13.868   2.705  14.992  0.2283 -0.0181  0.5291
25169W        W40638   7.492   3.233  10.952 -0.0771 -0.1277  0.3040
25170W        W40639  10.112   7.392   1.154 -0.1298 -0.0885 -0.3327
25171W        W40640   4.084  17.250   2.771  0.1629  0.0566 -0.1291
25172W        W40641  15.289   1.534   4.729  0.0907  0.2635 -0.2044
25173W        W40642  12.060   9.724  13.131  0.1599  0.2867  0.3473
25174W        W40643   2.061   2.560  14.689 -0.2178  0.0836  0.0522
25175W        W40644  13.121  10.132  15.651  0.2384  0.0064 -0.0267
25176W        W40645   8.841  11.401  12.595 -0.2639 -0.0557  0.0397
25177W        W40646  11.866  10.190  12.965 -0.5101  0.0053 -0.1795
25178W        W40647   6.873   5.789  11.141 -0.2196  0.0188  0.1128
25179W        W40648   3.544   8.772  11.538  0.0098  0.1847 -0.2171
25180W        W40649  17.093   4.648  14.403 -0.0562  0.0395 -0.0120
25181W        W40650  14.896   1.353   1.785 -0.0467 -0.2660 -0.1853
25182W        W40651   2.088  10.157   5.525  0.1989 -0.1748 -0.0717
25183W        W40652  17.901  11.690   5.251 -0.3011  0.1744  0.1950
25184W        W40653  12.369  15.477   0.283 -0.1935 -0.0611 -0.1011
25185W        W40654   0.849  11.505   3.957 -0.3190  0.4197 -0.0575
25186W        W40655  13.267   1.824  12.620  0.4385 -0.1276 -0.0447
25187W        W40656  10.714   2.156   4.928  0.0762  0.1604  0.0506
25188W        W40657  17.853   9.426  15.371 -0.3394 -0.2341 -0.2045
25189W        W40658  15.924  18.280   5.157  0.2467  0.3089  0.2054
25190W        W40659  11.799  10.690  10.541  0.0531  0.0699 -0.0521
25191W        W40660  11.798  10.481  13.414  0.2701 -0.0135  0.2429
25192W        W40661   3.176  11.139   5.784  0.0581  0.1400 -0.2203
25193W        W40662   2.356  13.466   5.252 -0.0157 -0.1107  0.1318
25194W        W40663  15.206   7.091  15.719  0.0431  0.2129 -0.0369
25195W        W40664   8.710   3.367   5.734  0.0184 -0.0422 -0.0702
25196W        W40665   0.255   5.229   0.188  0.0546 -0.0688 -0.0588
25197W        W40666   3.084   5.943   2.608  0.0354 -0.2132  0.1821
25198W        W40667  10.181  11.102   0.447 -0.3175 -0.0684  0.2002
25199W        W40668  14.453   0.622  10.745  0.1766  0.1568  0.2237
25200W        W40669  14.212   7.105   3.679 -0.2863 -0.1240 -0.0696
25201W        W40670   4.874  10.265   1.415 -0.2874 -0.1016  0.0155
25202W        W40671  10.798   1.829  15.295 -0.0790  0.2071  0.1208
25203W        W40672   5.761  18.113  13.055 -0.0534 -0.2710 -0.0489
25204W        W40673   1.693  14.027  15.858  0.1122 -0.0309 -0.0294
25205W        W40674   5.764   8.383   3.408  0.0459  0.2289 -0.1106
25206W        W40675   0.382  10.600   5.357  0.0294  0.0496  0.0661
25207W        W40676  18.132  14.958  13.384 -0.0503 -0.0879 -0.1760
25208W        W40677  10.595   6.450  16.058  0.0372 -0.0979 -0.0249
25209W        W40678   0.118   8.599   5.717 -0.0736 -0.2197 -0.1526
25210W        W40679   9.236   1.534   0.545 -0.3756 -0.1381 -0.0962
25211W        W40680  13.741  16.841  13.935 -0.0292 -0.3183 -0.2317
25212W        W40681   1.572   6.789  14.693  0.1578 -0.0168  0.2274
25213W        W40682   3.008   8.056   1.289  0.2455 -0.1848  0.0274
25214W        W40683   1.592   5.850  16.057  0.1763 -0.0037  0.0429
25215W        W40684  13.883   9.821  10.246  0.2414  0.0010 -0.2461
25216W        W40685  10.373  16.534   4.295  0.0588  0.5624  0.0083
25217W        W40686  11.931   3.672  14.696 -0.2351  0.0733  0.1056
25218W        W40687   8.373   5.070   0.842 -0.1866 -0.1099  0.3797
25219W        W40688  13.662   4.539   4.204  0.2588  0.1122 -0.2224
25220W        W40689   6.281  11.251  11.619  0.3101 -0.2297  0.0715
25221W        W40690   2.763   8.298  14.754 -0.0929  0.5098 -0.2058
25222W        W40691  10.288  17.885  15.937  0.0246 -0.1999 -0.0277
25223W        W40692  15.234  16.017  15.974  0.0936  0.1715  0.0550
25224W        W40693  17.015   7.257  15.636  0.4335 -0.0593 -0.2175
25225W        W40694  15.873  17.712   2.550  0.0000  0.0096  0.1079
25226W        W40695   0.337   6.302   0.153  0.0024 -0.2574 -0.0153
25227W        W40696   8.481  14.150   1.886  0.2405 -0.3550 -0.0938
25228W        W40697  17.256   3.023   3.204 -0.3157 -0.0007 -0.0963
25229W        W40698   0.555  12.542  13.275 -0.6014  0.1059  0.1749
25230W        W40699  13.309  17.739   4.117  0.2169  0.1716  0.2311
25231W        W40700  16.803  15.545   4.540  0.1334  0.1879  0.2376
25232W        W40701   7.620   1.787  14.032  0.2046  0.0933 -0.2926
25233W        W40702   8.780  18.195   4.002  0.0976 -0.3623 -0.0026
25234W        W40703  17.792   0.085   1.988 -0.1162  0.1327 -0.0515
25235W        W40704   2.630  14.877  10.258 -0.1653 -0.0457  0.0927
25236W        W40705  10.871   1.348  12.573 -0.2967  0.0792  0.0325
25237W        W40706  14.226   2.598   6.168  0.0639 -0.1385 -0.0060
25238W        W40707  17.064  16.111   3.277 -0.3455 -0.1908 -0.0321
25239W        W40708   3.615   9.923  11.768 -0.0630  0.3810  0.1571
25240W        W40709   4.072  17.112  11.194 -0.0595 -0.2305  0.1037
25241W        W40710  10.273   8.619  14.274 -0.2292 -0.0709  0.1404
25242W        W40711   6.525   8.509  12.360  0.1279  0.3206 -0.2501
25243W        W40712   6.258  17.376   1.953 -0.0946 -0.0117 -0.1419
25244W        W40713  14.856   4.875  11.279  0.2237 -0.0793  0.0835
25245W        W40714  12.010  11.227   5.050 -0.1176  0.0486  0.1626
25246W        W40715  12.896   0.992  15.143  0.1047  0.0173  0.0202
25247W        W40716   7.225  14.913   2.405 -0.1579 -0.0926  0.1351
25248W        W40717   8.326   1.502   2.882  0.1145 -0.0417  0.1128
25249W        W40718  17.058   4.840  10.834 -0.2431 -0.0350  0.0243
25250W        W40719  13.620  13.786  10.433  0.2173 -0.1872 -0.1973
25251W        W40720   5.404  10.823  13.493 -0.1604  0.0663 -0.2013
25252W        W40721  17.222   1.570  11.890 -0.2001  0.1183  0.0663
25253W        W40722   2.316  11.765  10.853 -0.2142 -0.0302 -0.1586
25254W        W40723  13.976   9.891   5.494 -0.1440  0.1698  0.2230
25255W        W40724  14.551  16.710  16.044  0.2099 -0.0341 -0.3585
25256W        W40725   6.107  12.643  11.811 -0.0811  0.0441  0.1074
25257W        W40726  16.330   5.249  14.124  0.1403  0.1231  0.0316
25258W        W40727  13.770  15.185   0.422  0.0576 -0.0934  0.1409
25259W        W40728   5.609  11.453   5.713  0.2764 -0.2877 -0.3265
25260W        W40729   8.443  12.948  11.675  0.1197 -0.0691 -0.0031
25261W        W40730   9.791   9.356   1.498  0.0917 -0.2733  0.1140
25262W        W40731  14.162  15.229   3.378  0.0654  0.1214 -0.1112
25263W        W40732  16.140  14.301   1.714  0.2011 -0.3198  0.2908
25264W        W40733  11.152  17.258   3.828 -0.1959 -0.1110 -0.1139
25265W        W40734  15.383  17.020   0.189  0.0378  0.4010  0.0611
25266W        W40735  11.914   0.677   4.182  0.2554  0.1323 -0.1439
25267W        W40736   0.684   6.702   4.139  0.0850 -0.0165  0.3719
25268W        W40737   8.677   2.049  11.933 -0.1055  0.0953  0.2101
25269W        W40738   2.896  14.820   5.493 -0.2276 -0.0034 -0.1604
25270W        W40739  16.761   7.760  11.419  0.0849 -0.1207  0.0513
25271W        W40740  14.389  12.538   4.366 -0.2725  0.0354  0.1192
25272W        W40741   0.805   9.894  13.483  0.0461 -0.1632 -0.1325
25273W        W40742  13.206  13.202  11.651  0.5515 -0.1483 -0.1341
25274W        W40743  11.547  10.323   3.186 -0.1284 -0.0186  0.0537
25275W        W40744  12.648   8.349  12.906 -0.1344  0.2209 -0.0520
25276W        W40745  16.413   4.476   4.082 -0.0480 -0.0553  0.1108
25277W        W40746  15.119   8.258   1.638 -0.4959 -0.0870 -0.2034
25278W        W40747  12.275   8.382   5.704  0.1488 -0.0476  0.0002
25279W        W40748  17.444  13.170   0.516  0.3651 -0.0104 -0.1680
25280W        W40749   7.114  16.746   5.018  0.2320 -0.2545 -0.3243
25281W        W40750  10.516   2.025   1.433  0.0271  0.1438 -0.3345
25282W        W40751   2.757  10.134   3.693  0.1323 -0.1002 -0.1411
25283W        W40752  15.316   9.773  11.601 -0.1453 -0.0600 -0.0944
25284W        W40753  16.369  12.984   1.788 -0.0969 -0.0619  0.0293
25285W        W40754   6.284  16.271  15.341  0.0119 -0.2384 -0.0930
25286W        W40755   3.674   7.023   3.104  0.0422 -0.1814 -0.0697
25287W        W40756   2.898  11.774  12.171  0.0932  0.0192 -0.0368
25288W        W40757  11.561   5.067   3.851  0.0688  0.1013  0.1129
25289W        W40758  14.801  11.602   0.957 -0.0571  0.1283  0.2788
25290W        W40759   4.210  10.034  15.738  0.0213  0.3144 -0.1593
25291W        W40760  15.588   2.489  12.155 -0.0559  0.1612  0.1937
25292W        W40761   8.837   0.680   2.800 -0.2556  0.1984 -0.2861
25293W        W40762   1.554  15.903   1.423 -0.1293  0.1371  0.0199
25294W        W40763   9.172  17.911  10.893  0.0253 -0.0815 -0.2566
25295W        W40764   6.788   8.292   1.387 -0.4399 -0.0727 -0.1709
25296W        W40765  12.786  14.196  14.027  0.1738  0.0707 -0.0086
25297W        W40766  13.771  11.143   4.660 -0.0471 -0.0011  0.1795
25298W        W40767   0.657  14.789   1.578 -0.0642 -0.2987 -0.0779
25299W        W40768   6.898   1.513   2.290  0.2336 -0.0031  0.0208
25300W        W40769   4.666   1.700  13.653  0.1275 -0.1533  0.0439
25301W        W40770  15.921   5.700  11.911 -0.0980 -0.0453  0.0617
25302W        W40771  11.625   5.741  13.401  0.1527 -0.0790  0.2066
25303W        W40772  14.883  10.681   0.094  0.0817  0.0942 -0.0779
25304W        W40773   3.673   7.540  14.281 -0.2101  0.3545 -0.1542
25305W        W40774   5.065   9.748  12.879 -0.1351 -0.0623  0.0143
25306W        W40775   7.554   9.040   0.362 -0.0584  0.1511  0.1523
25307W        W40776   4.075   4.650   0.092 -0.2105 -0.1361 -0.2688
25308W        W40777   6.527   0.466   0.024 -0.0731 -0.1706  0.0102
25309W        W40778  15.461   2.215  14.023  0.2471 -0.1010  0.0914
25310W        W40779   5.783   2.907  13.599 -0.0717 -0.1321  0.0816
25311W        W40780  13.980   8.062  15.184 -0.3691  0.0166 -0.1372
25312W        W40781   8.917   0.675   1.960  0.0632  0.0343  0.0481
25313W        W40782  12.097   2.047  13.980  0.1627  0.0456 -0.1652
25314W        W40783  10.953   6.912  12.676  0.0657  0.3146  0.0871
25315W        W40784   2.973  10.458  13.877 -0.0594  0.2411 -0.1312
25316W        W40785   4.851   8.479   1.170  0.1383 -0.2942  0.2214
25317W        W40786  12.965  17.938   5.378  0.3779  0.0578 -0.0917
25318W        W40787  10.686  16.240   4.630 -0.2668  0.0617 -0.0755
25319W        W40788   7.906   0.569   2.834 -0.0172 -0.0364  0.0591
25320W        W40789   1.956  11.271   2.276  0.1246  0.1919 -0.0116
25321W        W40790  14.528   1.188   2.518  0.2079  0.1259  0.3594
25322W        W40791   6.697  16.511   0.507  0.2008 -0.0871 -0.1425
25323W        W40792   4.630  11.979   0.116 -0.2497  0.0646 -0.0123
25324W        W40793   1.954   0.928   4.741  0.2390 -0.1944 -0.1114
25325W        W40794  15.154   3.530   3.425 -0.1411 -0.1034 -0.0513
25326W        W40795  15.903   7.490  15.252  0.4075 -0.0126 -0.0665
25327W        W40796   2.481   0.004   3.861  0.1329  0.2909 -0.0889
25328W        W40797   9.987   7.880  14.581  0.0348 -0.2075  0.3643
25329W        W40798  12.588  12.952  16.051 -0.1238  0.0658  0.1399
25330W        W40799  12.291   1.175  13.643  0.0569 -0.0489 -0.0975
25331W        W40800   1.946  12.976   1.915  0.0405 -0.0971  0.0759
25332W        W40801   6.747  13.235  10.801 -0.0158 -0.1192 -0.1031
25333W        W40802   3.947   4.056  12.323  0.1352 -0.0902  0.1244
25334W        W40803   4.895   4.262  13.205 -0.0753 -0.0498  0.1118
25335W        W40804  18.090  16.333   2.057 -0.0373  0.0072  0.0926
25336W        W40805  13.517  12.837  15.866 -0.0566 -0.0610  0.2191
25337W        W40806   4.895   1.279   0.825 -0.1405  0.0432  0.0306
25338W        W40807  10.144  14.877   2.838 -0.0139  0.3004 -0.0927
25339W        W40808  16.693   1.983   3.980  0.2316  0.0096 -0.0046
25340W        W40809  11.417   5.788   3.153 -0.0279 -0.4298 -0.4140
25341W        W40810  10.813  14.771   5.804 -0.0729  0.0870  0.2192
25342W        W40811   3.066   8.278   4.385  0.1082  0.2920  0.1120
25343W        W40812  17.937   3.496  13.448  0.3057 -0.0797 -0.2944
25344W        W40813   1.683   6.828  11.687  0.1561  0.3368  0.1039
25345W        W40814   2.215   2.655   4.431 -0.2288  0.0828  0.0878
25346W        W40815  16.807   0.033   0.570  0.1425 -0.0368 -0.0485
25347W        W40816   1.796  12.876  14.216 -0.3002  0.2609  0.1652
25348W        W40817   3.841   3.088   3.515  0.3530 -0.2967  0.1446
25349W        W40818  12.415  12.686  13.626 -0.1202 -0.3418  0.0853
25350W        W40819   5.581   5.744   0.239  0.5561 -0.2011 -0.0263
25351W        W40820  17.828   4.958  15.788 -0.1289 -0.1955 -0.0564
25352W        W40821  16.446   1.278  11.359  0.1209  0.0416  0.0493
25353W        W40822  16.750   0.596   5.043  0.0685  0.1197  0.0378
25354W        W40823   7.751  13.155   5.741  0.1648  0.1009 -0.1045
25355W        W40824  11.335   0.423   4.286 -0.0942  0.1628 -0.0476
25356W        W40825  10.186  11.618   2.824  0.0372 -0.1250  0.0349
25357W        W40826   6.054  15.553   4.830 -0.2960 -0.1410 -0.2006
25358W        W40827   2.788  17.167   1.666 -0.1567  0.5034 -0.1008
25359W        W40828   9.971  17.441   9.959  0.0798  0.2358  0.0535
25360W        W40829  13.179   5.020   1.626 -0.0236 -0.3833  0.1075
25361W        W40830   6.835   4.480  10.503  0.0570  0.1489 -0.0669
25362W        W40831   0.831  10.766  12.783  0.0344  0.0059  0.1696
25363W        W40832  14.291   1.583   1.550  0.1611  0.1625 -0.4001
25364W        W40833   2.416   5.806  15.903  0.2160  0.0846 -0.0763
25365W        W40834   0.563   9.625   0.985  0.0419 -0.1441  0.0082
25366W        W40835   3.712   7.370  11.799 -0.1833 -0.0941  0.0498
25367W        W40836   8.038   4.350  15.471 -0.0287 -0.1054 -0.0688
25368W        W40837  16.278  16.439  13.333  0.0262  0.0214 -0.0352
25369W        W40838   3.593   0.237   5.267 -0.2585 -0.1217  0.1118
25370W        W40839  12.272   2.039  15.427 -0.1532 -0.1568 -0.3045
25371W        W40840  16.801  14.737   4.591  0.0686  0.3140 -0.0030
25372W        W40841   5.402   3.964   3.786  0.2790  0.2851  0.2265
25373W        W40842   7.906  13.310  15.689 -0.3643  0.4197  0.1365
25374W        W40843   6.617  14.254   2.752  0.3061  0.2621  0.1230
25375W        W40844  15.025   0.837   5.108  0.2282  0.3418 -0.1372
25376W        W40845  11.783  13.432  10.670 -0.1877  0.0118 -0.1399
25377W        W40846  11.175  15.855  10.787  0.0217 -0.3074  0.2226
25378W        W40847  13.647   2.451   2.487 -0.1248  0.0018 -0.0012
25379W        W40848   5.083   2.336   3.421  0.0258 -0.0391  0.2844
25380W        W40849   3.558  13.439   3.604 -0.0698  0.0477  0.1205
25381W        W40850   9.393   7.964   4.287  0.1185  0.0648  0.3401
25382W        W40851   4.639  12.185   2.868  0.0225  0.2888 -0.6065
25383W        W40852   8.088   6.758  12.067  0.0898 -0.1372 -0.0520
25384W        W40853  17.266   1.560   1.854  0.2326  0.0942  0.0230
25385W        W40854   9.186   0.734   1.450 -0.0917  0.1604 -0.1425
25386W        W40855   2.427  12.991   1.116  0.1304  0.2144 -0.3146
25387W        W40856  11.895   7.326   5.718  0.0807  0.0749 -0.3818
25388W        W40857  12.564   0.171   3.619  0.0761  0.0181 -0.3441
25389W        W40858  11.231  11.844  14.774 -0.0350 -0.1156 -0.2469
25390W        W40859  15.115  15.635  14.441  0.0227 -0.0679 -0.0719
25391W        W40860  14.757   9.631  12.417  0.1337  0.0804 -0.3644
25392W        W40861   3.622   1.032   2.044 -0.0689  0.1540 -0.0270
25393W        W40862  14.887  15.520   0.687  0.0558 -0.0069  0.0173
25394W        W40863   3.938   5.415   3.172 -0.0852 -0.0288  0.1620
25395W        W40864   4.610   8.027  11.014  0.0335  0.0495 -0.0892
25396W        W40865   1.894   6.726  13.414  0.3346 -0.0036 -0.0948
25397W        W40866  11.874  14.391   1.681  0.0578 -0.1465  0.0851
25398W        W40867  14.471  12.717   3.918 -0.0755  0.1053 -0.0648
25399W        W40868  15.968  15.348  12.313 -0.3615 -0.0363 -0.1330
25400W        W40869   8.189   1.765   3.365 -0.1555 -0.1676  0.0820
25401W        W40870  12.232  11.797  11.671  0.2726 -0.1069 -0.0226
25402W        W40871  17.743  15.392   4.848 -0.2205 -0.2581  0.0798
25403W        W40872  17.636   0.012  10.962 -0.0001 -0.1436  0.0576
25404W        W40873   3.440   9.490   3.168 -0.0222  0.1161  0.0072
25405W        W40874   4.917  17.981  13.165  0.0798  0.2174  0.1841
25406W        W40875   9.272  13.960   4.857 -0.1950  0.2861 -0.1236
25407W        W40876  15.583  10.852   5.038  0.2601  0.1229 -0.1645
25408W        W40877  18.182   3.486  15.205  0.1764 -0.1712 -0.0189
25409W        W40878   1.302   0.288   6.331 -0.3092 -0.1365 -0.1783
25410W        W40879  13.221   5.868   5.586  0.0501 -0.2899  0.3366
25411W        W40880   6.499  16.864  13.056 -0.4543  0.0907  0.1368
25412W        W40881  15.349  12.191   5.829  0.1440 -0.1498 -0.1085
25413W        W40882   9.424  18.184  15.239 -0.2200  0.0727  0.0423
25414W        W40883   2.255  11.032   5.155 -0.0527 -0.2940  0.0557
25415W        W40884   4.953   1.551  11.904  0.0650 -0.0400 -0.0838
25416W        W40885   8.763   3.306   0.983  0.0556  0.1252 -0.0160
25417W        W40886   5.256   6.462  12.473  0.2091 -0.2044 -0.2583
25418W        W40887  18.017   5.843  12.542 -0.0873 -0.1872  0.1873
25419W        W40888  17.179   8.982   1.182 -0.1158 -0.0081 -0.0089
25420W        W40889   8.082   7.691  12.859 -0.1261 -0.0243  0.0160
25421W        W40890  15.194   7.039   4.880 -0.1489 -0.1809  0.1645
25422W        W40891   0.092  18.124  12.464  0.4173 -0.2199  0.2361
25423W        W40892   0.668   2.258  14.852 -0.1973  0.2473 -0.0003
25424W        W40893  18.257   8.710  11.663  0.1260 -0.1496  0.1055
25425W        W40894   1.126  13.345   1.800 -0.1677 -0.1952  0.0553
25426W        W40895   1.178  17.763  14.603 -0.3082 -0.0175  0.3612
25427W        W40896  11.076  12.126   1.371 -0.0884 -0.2070  0.0981
25428W        W40897   8.920   3.352   3.506 -0.1656  0.1713 -0.1902
25429W        W40898  13.516  11.463  15.390  0.1429 -0.0515 -0.1655
25430W        W40899   1.418  16.200  15.201  0.0069  0.2228 -0.1128
25431W        W40900  17.212   2.205  14.242 -0.0840  0.2749 -0.0926
25432W        W40901  16.688   3.487  15.665 -0.0023 -0.2349  0.0340
25433W        W40902  17.712   6.088   1.378 -0.0351 -0.0978 -0.1992
25434W        W40903  11.235  11.082   2.203 -0.2222  0.1363 -0.1563
25435W        W40904   9.382   1.106  10.102  0.0305  0.4234 -0.4052
25436W        W40905   3.581  12.816   5.215  0.2356 -0.0384  0.2843
25437W        W40906   5.427   0.740  10.830 -0.0698  0.1277 -0.0397
25438W        W40907  11.524   4.907   4.340 -0.1204  0.0565  0.1851
25439W        W40908  13.852   1.360  11.371  0.2248 -0.0782 -0.2701
25440W        W40909  17.189   8.990  15.875  0.2905  0.1981  0.0431
25441W        W40910  10.713   2.157   5.888  0.0075  0.3044 -0.0935
25442W        W40911   2.740   5.256  12.536 -0.0322  0.1270  0.1366
25443W        W40912   2.840   7.745  10.578  0.2149  0.1478 -0.0124
25444W        W40913  14.729   6.798  15.499  0.2344 -0.1894 -0.0518
25445W        W40914  13.340  14.883  13.625 -0.1497 -0.0722  0.0068
25446W        W40915   9.251   3.415   4.494  0.1310  0.0732  0.0209
25447W        W40916  16.320   2.417   4.151  0.3207  0.0817 -0.2901
25448W        W40917  11.967  15.802   4.314  0.0395 -0.1251 -0.0716
25449W        W40918  15.457   3.312   1.179  0.0826 -0.5431  0.0650
25450W        W40919  13.688  15.546  12.285  0.2731 -0.1279  0.1990
25451W        W40920   6.415  16.083   0.634 -0.2446 -0.0258 -0.2184
25452W        W40921   7.485  13.425  14.539 -0.3340  0.0651 -0.0158
25453W        W40922   4.136   0.196  13.271 -0.0146  0.0209 -0.1084
25454W        W40923   0.316  14.515  14.606  0.2909  0.1522  0.0109
25455W        W40924   2.785  10.854  14.283  0.1827  0.1763  0.0329
25456W        W40925   0.241  17.163  15.526  0.2127 -0.1556 -0.0957
25457W        W40926   8.453  15.450  13.739  0.1070 -0.0321  0.1704
25458W        W40927   6.543  10.473  12.551  0.1125 -0.0718 -0.2674
25459W        W40928  16.820   0.167  15.012  0.0484  0.0021  0.2516
25460W        W40929  11.307  11.503   2.020  0.1291  0.0665  0.1227
25461W        W40930   8.146  14.055   5.014 -0.0882 -0.0277  0.0749
25462W        W40931  14.565  17.656   4.996  0.3069 -0.1480 -0.0720
25463W        W40932   0.574   7.964   1.477  0.0164 -0.1966  0.0799
25464W        W40933   0.735   8.679  10.932  0.0871 -0.0378  0.1338
25465W        W40934   5.356  12.797  15.613 -0.1141 -0.0206 -0.4554
25466W        W40935  16.486   7.338   3.052  0.1423 -0.3097 -0.0764
25467W        W40936  12.586   1.271   4.654  0.1945  0.2113  0.0414
25468W        W40937  11.795  15.539  12.542 -0.0387  0.0771  0.0030
25469W        W40938   9.218  12.658  15.276 -0.1836  0.1948 -0.0483
25470W        W40939   1.866  17.322   5.338  0.1039 -0.4110  0.1175
25471W        W40940   1.036   6.089  12.987 -0.1699  0.0658  0.3896
25472W        W40941   0.063  12.708   1.727 -0.1532  0.2411 -0.2494
25473W        W40942  15.803   8.925   1.362  0.3488  0.2712  0.2971
25474W        W40943   8.880  12.087  12.976 -0.1967 -0.0321 -0.2261
25475W        W40944   3.171   7.765   0.833  0.1352  0.0983  0.0537
25476W        W40945  10.056   4.254  10.691 -0.1113 -0.2014 -0.3229
25477W        W40946   7.175   2.543  15.071 -0.0108  0.1596 -0.2186
25478W        W40947  13.683   1.637   3.434 -0.1019  0.2894 -0.0937
25479W        W40948  15.068  11.179  11.795  0.4607 -0.2807 -0.1974
25480W        W40949  15.520  10.231  15.512  0.2577 -0.3144  0.2127
25481W        W40950   4.204   2.671  12.092 -0.2069 -0.0871  0.3331
25482W        W40951  15.175   2.423  11.117 -0.1943  0.0131  0.2235
25483W        W40952  14.076   2.581  11.817  0.1161 -0.1558 -0.3617
25484W        W40953  11.528  15.057  13.717 -0.2339  0.1060 -0.2193
25485W        W40954  10.069  13.348   1.078  0.1067 -0.0961  0.1408
25486W        W40955  11.393  11.161  14.085 -0.0236 -0.1547 -0.0085
25487W        W40956  12.566   6.867  12.638  0.0392 -0.0635 -0.1583
25488W        W40957   5.195   2.865  11.551 -0.2407 -0.1028  0.0920
25489W        W40958  11.854   9.978  15.985 -0.0586  0.1291  0.0532
25490W        W40959  15.576   7.400  15.804 -0.0386  0.0482  0.1593
25491W        W40960   2.870  17.900  14.928 -0.2437  0.1603 -0.1962
25492W        W40961  16.997  16.086  13.343 -0.0093 -0.0459 -0.2328
25493W        W40962   8.406  11.586   3.775 -0.0791  0.0029  0.0796
25494W        W40963   3.985  12.031   0.862 -0.0894  0.0155  0.1166
25495W        W40964   6.876   2.399  12.535 -0.1075 -0.1908 -0.0645
25496W        W40965   9.107   9.780   4.079  0.0290  0.1318 -0.1666
25497W        W40966  11.831   9.265  14.723 -0.1324 -0.3498 -0.1149
25498W        W40967   0.921   3.845  13.915  0.0587 -0.0836  0.1886
25499W        W40968   1.787  11.054   2.912 -0.2479  0.3592  0.0088
25500W        W40969  11.990  17.597   4.113  0.1886 -0.2918  0.3179
25501W        W40970  16.088   6.092   4.799 -0.0696 -0.3314  0.2579
25502W        W40971  13.943   4.193   5.262 -0.2320  0.2186  0.4711
25503W        W40972   9.549   2.285  11.879  0.1482  0.1887  0.1729
25504W        W40973   3.175  10.731  10.650 -0.2105 -0.1174  0.1858
25505W        W40974  11.413  16.335   3.206 -0.0808 -0.0180 -0.1504
25506W        W40975  13.212  13.119   3.595  0.0325  0.2430 -0.1394
25507W        W40976  14.441   1.840  12.540  0.1305  0.3683  0.1622
25508W        W40977  15.284  11.707  15.635  0.2221 -0.0851 -0.1525
25509W        W40978   7.638  15.889  15.790  0.1237  0.1785  0.1165
25510W        W40979   4.226   3.203  11.883 -0.1365  0.1470  0.0584
25511W        W40980   0.527   9.631  11.656  0.3744  0.1695 -0.0155
25512W        W40981  13.034   0.878   3.844 -0.1069 -0.2489  0.0093
25513W        W40982   6.950  16.620   5.479  0.1126  0.0336  0.0181
25514W        W40983  16.739  12.248  14.738  0.1849 -0.0049 -0.1255
25515W        W40984   0.335  16.005   3.854  0.4142 -0.0590 -0.0156
25516W        W40985   0.553  11.198  14.312  0.1077 -0.1599  0.2967
25517W        W40986  12.109   8.958   4.543  0.0909  0.2789  0.2557
25518W        W40987   9.298  13.170   6.050 -0.0738 -0.0927  0.0851
25519W        W40988  10.638   1.988  13.846 -0.2165 -0.0548  0.0601
25520W        W40989  17.337  13.662   2.597  0.0820  0.3731  0.0199
25521W        W40990  13.957  16.597  15.186  0.0554 -0.2770  0.1867
25522W        W40991  11.387   2.754   3.175 -0.0774 -0.0280 -0.0782
25523W        W40992  12.072   5.309  12.950 -0.3772 -0.2477  0.2520
25524W        W40993   3.298   8.038   1.745 -0.1361 -0.0941  0.0494
25525W        W40994   8.279   5.340  11.004 -0.1539 -0.1232  0.2855
25526W        W40995   8.617  13.152   5.303  0.0079 -0.2818  0.0604
25527W        W40996   9.746  10.332   0.082  0.0747  0.4075  0.4311
25528W        W40997   3.826   2.155   0.602 -0.1123  0.4014 -0.0809
25529W        W40998   1.626  16.649   2.902  0.1031 -0.1516 -0.4986
25530W        W40999  12.585  15.039   0.148 -0.0579 -0.0550 -0.2225
25531W        W41000   8.524   4.537   2.561 -0.1609  0.2048  0.1882
25532W        W41001  14.742  16.168   1.901 -0.1776  0.0810  0.3103
25533W        W41002  10.187  11.452  15.586  0.3039  0.0845 -0.0434
25534W        W41003  13.827  12.239  11.564  0.0539  0.1178 -0.0221
25535W        W41004  13.025  12.115   1.684 -0.1656 -0.0912 -0.0659
25536W        W41005  17.905   9.117   0.741  0.0956  0.0370 -0.1359
25537W        W41006   9.898  10.113  11.472 -0.1243 -0.0909 -0.0469
25538W        W41007  14.152  14.357   3.727 -0.0741  0.1325 -0.0538
25539W        W41008  11.961  16.201  11.594  0.3021  0.3400 -0.1417
25540W        W41009  13.928   0.711  14.422  0.0488  0.0699  0.0847
25541W        W41010  17.592  14.970   5.128 -0.2705 -0.2339 -0.1077
25542W        W41011   4.946   2.964  14.000 -0.0215 -0.0749 -0.0406
25543W        W41012  13.925  17.119   3.665 -0.0369 -0.1439 -0.2065
25544W        W41013   0.290  10.414  15.680 -0.0978  0.2926 -0.1062
25545W        W41014  14.142  17.271  10.720  0.0612  0.1429 -0.0956
25546W        W41015  13.204  16.290   2.671  0.2375  0.0005 -0.2791
25547W        W41016  11.676  16.872   1.469 -0.0388  0.0578 -0.1019
25548W        W41017   9.805  18.010  14.869 -0.4516  0.3035 -0.2262
25549W        W41018  10.714  15.275   3.013 -0.0591 -0.2591 -0.0038
25550W        W41019   2.769   9.377  14.995 -0.2400  0.0364 -0.0595
25551W        W41020  15.630   6.227   2.927 -0.2051 -0.1407 -0.4158
25552W        W41021   8.904   8.103  15.545  0.0813 -0.2469 -0.1294
25553W        W41022  13.193   3.713  12.686  0.2564  0.2115 -0.2608
25554W        W41023   1.246   8.505  12.484 -0.1875 -0.1827  0.0998
25555W        W41024   8.742   3.160  15.213  0.1537  0.2523 -0.1353
25556W        W41025  17.968  16.026   3.436 -0.0001  0.2092 -0.2321
25557W        W41026   4.330   0.903  15.992 -0.1735 -0.0698 -0.1043
25558W        W41027  13.045   9.181  14.773 -0.0821 -0.0142 -0.0637
25559W        W41028  12.697   2.562   5.009  0.0072 -0.1607 -0.3087
25560W        W41029   1.605   8.177  12.340 -0.1777 -0.3627 -0.0199
25561W        W41030  10.911   1.151   0.405  0.0807 -0.0618 -0.0953
25562W        W41031   0.871  11.883   3.091 -0.1125 -0.0221 -0.2899
25563W        W41032  11.638  17.767  12.669  0.2738  0.0012 -0.2156
25564W        W41033   5.845  12.728  13.286  0.0253  0.2580  0.3861
25565W        W41034   4.648   4.147   2.198  0.1741 -0.2414  0.2887
25566W        W41035  16.248  11.932   4.253 -0.1054 -0.0753  0.2740
25567W        W41036   1.162   1.138   1.373  0.1502  0.0466 -0.0620
25568W        W41037   4.534   4.649  14.630  0.0513  0.2240 -0.0550
25569W        W41038   9.397   4.463   5.498  0.1165  0.1981 -0.0401
25570W        W41039   5.631   0.368  14.919  0.1617  0.2570 -0.0299
25571W        W41040  17.748  18.160  13.542  0.1990 -0.0960  0.3506
25572W        W41041  11.169   9.464  11.469  0.2029 -0.3555  0.2459
25573W        W41042   8.046   2.510   2.182 -0.4618  0.1545  0.1514
25574W        W41043  10.933  11.818  11.690 -0.1090 -0.2661  0.0386
25575W        W41044   2.939  11.371   2.117 -0.4063 -0.0482  0.1805
25576W        W41045  14.072  16.773  12.626  0.1933 -0.0304  0.0726
25577W        W41046  10.968   7.991  14.404  0.0329 -0.2170 -0.0807
25578W        W41047  15.865   4.512   3.970 -0.0551  0.2383 -0.0959
25579W        W41048   9.133   7.091   5.210  0.0521  0.3562 -0.1638
25580W        W41049  11.250   0.135   1.284  0.0687 -0.4853 -0.0761
25581W        W41050  18.135  12.809  13.332 -0.0495  0.1728  0.1895
25582W        W41051  12.096  12.285  13.932 -0.0464 -0.0015 -0.0903
25583W        W41052  14.221   7.196  11.867 -0.0940 -0.2160 -0.1237
25584W        W41053   2.349   8.235   1.443  0.0425 -0.0999 -0.1234
25585W        W41054  12.560  16.059   0.751  0.0007  0.0111  0.2029
25586W        W41055  14.827  12.832  12.689 -0.0514 -0.1315  0.0521
25587W        W41056   8.057   3.987  10.112  0.1628  0.1107  0.1821
25588W        W41057   9.877   7.424   3.157 -0.0537  0.1353  0.1100
25589W        W41058  10.042   9.273  15.272 -0.3981 -0.1728  0.1144
25590W        W41059   9.057  12.459   4.750 -0.1321  0.2797  0.0441
25591W        W41060   7.024   6.113   3.392  0.0112 -0.0217 -0.1289
25592W        W41061   4.456   1.306  10.056 -0.1494 -0.1155 -0.1121
25593W        W41062   4.328   5.538  13.455  0.1310 -0.2344  0.2357
25594W        W41063  12.198  11.004   2.825 -0.1791  0.0968 -0.0631
25595W        W41064   7.006   4.413   0.946 -0.2983  0.1115 -0.1256
25596W        W41065   8.475  16.789  11.915 -0.0797  0.0153 -0.1816
25597W        W41066   3.684   4.191   3.797 -0.0074  0.0269  0.1825
25598W        W41067   0.574   0.837   2.891  0.1398 -0.0457  0.0997
25599W        W41068   8.041   1.233   4.601  0.3189 -0.0898  0.1430
25600W        W41069   1.602   5.475  12.538  0.1163  0.1469 -0.0718
25601W        W41070   9.928   5.818   2.066 -0.0135  0.2827  0.0857
25602W        W41071  12.933  13.396   4.407  0.0200  0.0207  0.2069
25603W        W41072  15.813  10.868   4.533 -0.0059  0.2552 -0.0065
25604W        W41073  13.607   1.250   0.327 -0.1725 -0.1625 -0.2190
25605W        W41074   6.692  13.030   9.811 -0.1243 -0.0138  0.0552
25606W        W41075  12.788  11.700  14.592  0.1322 -0.0398  0.0389
25607W        W41076  15.591   4.940   0.216 -0.1207 -0.1460 -0.0955
25608W        W41077   8.524   5.838  16.051  0.1874 -0.3942  0.3324
25609W        W41078   8.885   7.920  10.724  0.4361 -0.3882  0.0149
25610W        W41079   3.914  18.103   5.427 -0.1121 -0.1555 -0.1932
25611W        W41080  11.606  15.293   2.365  0.0046  0.0878 -0.3835
25612W        W41081   4.966  11.595   4.844 -0.0280 -0.2380 -0.2190
25613W        W41082  10.293   0.086  16.049 -0.1970  0.1544  0.3479
25614W        W41083  15.853   9.376  13.276  0.1176  0.1581  0.3391
25615W        W41084  13.524  12.159   2.111 -0.3377 -0.2883 -0.0939
25616W        W41085   6.094  10.810   3.564  0.0851 -0.0230 -0.1951
25617W        W41086  15.209   1.596  11.320  0.1424  0.0542 -0.1897
25618W        W41087   7.288   4.721   1.194  0.1314 -0.0003 -0.0128
25619W        W41088   5.272   7.616  14.275  0.2773 -0.1463  0.0435
25620W        W41089  12.988  15.471  12.918  0.1187  0.1933 -0.1317
25621W        W41090  15.949  14.302   0.009  0.1310 -0.2239 -0.1650
25622W        W41091   2.057   1.514   1.552  0.0861 -0.0471 -0.2743
25623W        W41092   5.339   1.711  11.076 -0.0469 -0.1433  0.0839
25624W        W41093  14.202  14.258  14.216  0.2988 -0.1112  0.1255
25625W        W41094   9.728   9.348   4.757  0.1444  0.0223 -0.1565
25626W        W41095  12.426   0.744  12.460 -0.1024 -0.2376  0.3104
25627W        W41096  12.005   1.388   1.409 -0.0039 -0.1427  0.0639
25628W        W41097   3.660   2.001   1.678  0.0084 -0.1013 -0.3332
25629W        W41098   5.868   7.884  15.575 -0.0540 -0.4042  0.3235
25630W        W41099  15.076  10.107  14.754  0.3412 -0.1588 -0.3529
25631W        W41100  18.019   7.726  13.812  0.0293 -0.0327 -0.0017
25632W        W41101   6.321  11.637  15.336 -0.0989 -0.0263 -0.1769
25633W        W41102   0.652  13.375   1.862  0.2093 -0.3719 -0.2409
25634W        W41103  14.477   7.869   5.597  0.0808 -0.0528 -0.1753
25635W        W41104  12.633  15.428   1.345  0.0438  0.3466 -0.0715
25636W        W41105   9.446   0.591   3.879  0.2983  0.0417 -0.1493
25637W        W41106  12.522   0.277   0.828 -0.0570 -0.1836 -0.1459
25638W        W41107   5.723  11.134   2.117 -0.2118 -0.2297  0.1532
25639W        W41108  12.922  13.468   3.439 -0.0928  0.0032  0.2068
25640W        W41109   4.660   5.049  11.632 -0.2034  0.0874  0.3280
25641W        W41110   4.834   0.655  10.652 -0.0903 -0.1475 -0.2167
25642W        W41111   2.132   7.530  11.871 -0.0587  0.3191 -0.1034
25643W        W41112   0.662   7.381   4.039  0.2062  0.0331 -0.0682
25644W        W41113   5.300  13.248   1.133 -0.3260 -0.2992 -0.0847
25645W        W41114  15.161  11.362   1.724 -0.1177  0.2170  0.0039
25646W        W41115  16.438  14.203   3.416  0.0912  0.2020 -0.0633
25647W        W41116   2.879   4.760   1.607 -0.0789  0.3031 -0.0650
25648W        W41117  11.235  18.185   4.917  0.0426 -0.0718 -0.0906
25649W        W41118   9.046  15.284  13.932 -0.1471 -0.0784  0.0482
25650W        W41119   0.005  17.998  11.323  0.0268 -0.2131 -0.1318
25651W        W41120  16.041   6.823  15.098  0.0972  0.1285  0.0352
25652W        W41121   1.976   6.534  13.935  0.2635  0.1750 -0.0314
25653W        W41122   2.633  12.750  10.558 -0.1305 -0.1790 -0.1427
25654W        W41123   1.948  14.857  16.018  0.1425 -0.0734 -0.1736
25655W        W41124   1.402   9.650  15.586 -0.1385  0.0535 -0.1808
25656W        W41125   4.388   4.629  15.789  0.2846 -0.1683  0.2311
25657W        W41126   8.298  14.973   5.599  0.1711 -0.0121 -0.1412
25658W        W41127  11.068   6.005   1.223 -0.0360 -0.1868 -0.0603
25659W        W41128  10.313   1.369   2.247  0.0966  0.1497  0.0094
25660W        W41129  16.802  15.829  13.977  0.1647  0.1559 -0.2600
25661W        W41130   5.062  11.170  10.686 -0.0538  0.1325  0.0400
25662W        W41131   2.142   8.901   0.317 -0.0862  0.3563 -0.0259
25663W        W41132   2.259  16.900   0.366  0.1023 -0.1939 -0.1989
25664W        W41133  13.330  13.850   3.587 -0.0871 -0.2929 -0.1638
25665W        W41134   6.398   1.452   3.401 -0.1251 -0.0132 -0.1336
25666W        W41135   9.716   5.986   1.579 -0.1436 -0.1366 -0.0092
25667W        W41136   2.242  11.960   5.349  0.3206  0.1577  0.1255
25668W        W41137  11.164   0.161  11.582 -0.4281 -0.1169 -0.0362
25669W        W41138   0.465   1.366  13.278  0.0421  0.1683  0.2111
25670W        W41139   8.945  13.899  12.834  0.3115  0.1022  0.1301
25671W        W41140  18.199   9.496  13.837 -0.1092 -0.0102 -0.1948
25672W        W41141  10.958   7.927  11.043  0.2225  0.1847  0.2539
25673W        W41142  12.885   1.679  11.137 -0.1568 -0.0087  0.3421
25674W        W41143  17.789  12.154   3.283 -0.1252  0.0861 -0.0836
25675W        W41144  10.893   8.841   0.751  0.1600 -0.0841 -0.0726
25676W        W41145  15.299  16.170  11.125 -0.0524  0.1286 -0.1387
25677W        W41146  17.110   5.794  13.699 -0.1159  0.1301 -0.1566
25678W        W41147   7.828   2.785  10.738  0.1977 -0.0393 -0.0334
25679W        W41148  13.900  18.019   1.924  0.1837 -0.1520 -0.1985
25680W        W41149   2.581   4.663   5.183  0.1591 -0.1494 -0.1357
25681W        W41150  16.427  11.664  12.249  0.2100 -0.2163  0.0179
25682W        W41151   9.715   8.165   0.850  0.2349 -0.0155  0.1167
25683W        W41152   0.588   6.545  15.930 -0.1699 -0.1901  0.0169
25684W        W41153   6.495   9.695   9.940  0.1061 -0.1535 -0.2152
25685W        W41154   6.397  17.517   0.061 -0.2308  0.2828  0.1080
25686W        W41155   2.332   5.395   5.508 -0.1323  0.0566  0.3645
25687W        W41156  17.345   5.908   0.513  0.0256  0.0448 -0.5656
25688W        W41157  11.561   6.670  15.814  0.0536 -0.0454 -0.1509
25689W        W41158  15.695  11.033  11.889 -0.1776  0.2158 -0.1281
25690W        W41159   4.327   8.854   1.296  0.0208 -0.0783 -0.3143
25691W        W41160  12.843   1.523  12.808 -0.1827  0.1693  0.0491
25692W        W41161   7.091   6.334   4.187 -0.0965  0.5441 -0.3085
25693W        W41162  10.183   5.968   3.513  0.4032 -0.0832 -0.0891
25694W        W41163   8.073   5.684  14.221 -0.0987 -0.1021  0.0919
25695W        W41164   5.714  15.057  11.279  0.1597 -0.1835  0.2614
25696W        W41165   8.431  17.677  13.831  0.0974 -0.3356 -0.0590
25697W        W41166  10.063  15.357   0.721 -0.3857 -0.0665  0.1562
25698W        W41167   6.562   0.593  13.342  0.2041  0.1369 -0.0544
25699W        W41168   4.956  10.391   3.875 -0.2445 -0.0617 -0.0519
25700W        W41169   3.968  12.857  10.803 -0.0609  0.2099 -0.3221
25701W        W41170   3.743   6.027  11.230 -0.0321 -0.0870  0.0301
25702W        W41171  16.595  15.732  13.413 -0.1471  0.1270  0.0566
25703W        W41172  14.361  16.825  14.845  0.2743  0.1675  0.1078
25704W        W41173   7.430  16.917   3.460  0.0229 -0.1263  0.0777
25705W        W41174  17.035   1.828   5.425  0.0947  0.2866 -0.0779
25706W        W41175  18.106  17.971   2.193  0.0141  0.3111 -0.4477
25707W        W41176   2.022  17.729  15.133 -0.0732 -0.1568 -0.1557
25708W        W41177  14.238   1.951   0.499  0.2296  0.1111 -0.2342
25709W        W41178  17.545   5.589  11.098 -0.2558  0.0782  0.1604
25710W        W41179  11.095  17.518   1.469  0.0868  0.0232  0.1740
25711W        W41180   2.737  17.391   3.550 -0.0489  0.1651  0.2966
25712W        W41181   0.997   8.605  15.297 -0.1151  0.0959 -0.1537
25713W        W41182   4.421   6.359  11.350  0.2412  0.1272  0.1802
25714W        W41183  16.744  13.642  11.401 -0.0739  0.3804  0.2192
25715W        W41184   8.657   2.284  15.757  0.1937  0.1022  0.0806
25716W        W41185   0.034   0.954  13.841 -0.1173  0.1178 -0.0325
25717W        W41186   2.145  12.764  10.814  0.2417  0.2560  0.0757
25718W        W41187  15.367  14.437   5.129  0.0084 -0.0652  0.0302
25719W        W41188  16.323   5.732  14.280  0.1010  0.1870  0.0739
25720W        W41189  17.798   5.989  11.318 -0.0463 -0.0127  0.1305
25721W        W41190  13.912  15.789   3.632 -0.0263  0.3253  0.0985
25722W        W41191  11.085  17.685   4.817  0.1387 -0.0378 -0.0184
25723W        W41192   9.765   2.333  15.916 -0.0994 -0.2580  0.0223
25724W        W41193  14.320   8.117  14.717 -0.1728  0.0969  0.1381
25725W        W41194  15.740   0.529  13.637 -0.0515  0.0107 -0.1130
25726W        W41195  15.526   1.576   5.387  0.1825 -0.0811  0.1886
25727W        W41196  11.806  14.846   1.460 -0.2574 -0.0203  0.1187
25728W        W41197  16.330   8.234  14.172 -0.2211 -0.1716  0.1818
25729W        W41198  13.565   8.658   2.749 -0.0762  0.4618  0.0465
25730W        W41199   9.453   1.429   2.473 -0.2730 -0.1650  0.0467
25731W        W41200  14.835   9.797   5.128 -0.0052  0.0037  0.0659
25732W        W41201  16.147  17.612   0.396  0.0196  0.2261 -0.3128
25733W        W41202  17.172   0.289   3.176  0.2672  0.5498 -0.0581
25734W        W41203   0.636  17.122  15.880  0.2261  0.0322 -0.1888
25735W        W41204   2.790   1.236  13.893  0.0914  0.0881  0.1174
25736W        W41205  14.315  10.457   0.736  0.3402 -0.0763  0.0264
25737W        W41206   4.616  12.529   4.725  0.3361 -0.0626 -0.3086
25738W        W41207  15.341  17.528   5.452  0.0449  0.1015 -0.0963
25739W        W41208  12.009  14.573   3.622 -0.0313  0.0860 -0.1492
25740W        W41209   5.849  11.069   2.608  0.0189  0.0038 -0.0786
25741W        W41210  12.204   3.206   5.658  0.0878 -0.0756 -0.3247
25742W        W41211   6.563   6.832   1.488  0.0013  0.2697  0.2622
25743W        W41212  16.380   6.897  14.712 -0.0829 -0.3919 -0.0217
25744W        W41213  15.970   4.829   5.313  0.4679 -0.0241 -0.2934
25745W        W41214   7.627   3.528   5.425  0.2739 -0.1480 -0.0710
25746W        W41215  13.286   1.380   4.325 -0.0330 -0.1423 -0.1014
25747W        W41216  14.996   1.347  13.723  0.4072 -0.1283  0.4180
25748W        W41217  13.896  13.725  12.416 -0.0421  0.0955 -0.0391
25749W        W41218   1.985  17.846   3.482  0.1245  0.3171 -0.1909
25750W        W41219   0.080   5.368   5.444  0.2181  0.0997  0.1056
25751W        W41220  13.748   1.762  13.553 -0.1427  0.3011  0.0985
25752W        W41221   0.977   3.122  13.395 -0.1486 -0.3026 -0.0648
25753W        W41222  11.449   4.904   3.204 -0.1507 -0.0518 -0.0559
25754W        W41223   3.709  15.374   4.658  0.2561 -0.0638  0.0750
25755W        W41224   4.394  13.572  12.987  0.2347 -0.1191 -0.0422
25756W        W41225  15.754  10.053  11.407 -0.1252  0.3865 -0.3781
25757W        W41226  17.167  13.553   4.403 -0.0890 -0.0311  0.3398
25758W        W41227  10.615  10.709  16.048 -0.1340  0.1116  0.2436
25759W        W41228   5.400  17.982   1.716  0.3375  0.1456 -0.2771
25760W        W41229   9.506  13.205   1.718 -0.0711 -0.1938 -0.1621
25761W        W41230   4.055   5.817   2.663 -0.3637 -0.0412  0.2606
25762W        W41231   5.247   4.140   4.944 -0.0521 -0.1709 -0.0500
25763W        W41232   3.558  13.335  12.924 -0.2342  0.1384  0.2420
25764W        W41233   8.667  11.720   0.751 -0.3351 -0.0760 -0.1124
25765W        W41234   4.344  11.683  15.884  0.2787  0.1745 -0.0309
25766W        W41235   4.557  14.996  15.955 -0.0046  0.0471  0.1378
25767W        W41236   2.931   8.512  15.349  0.0611  0.1944 -0.0907
25768W        W41237   7.901   6.120   1.677  0.0882  0.1033 -0.0378
25769W        W41238   9.267  12.327  11.684  0.1249 -0.0029 -0.0650
25770W        W41239   7.563  11.323   4.454  0.0423  0.4186  0.0539
25771W        W41240   0.680   6.735  13.800 -0.1992  0.1303 -0.1035
25772W        W41241  15.581  16.314   4.655  0.0800 -0.2118  0.2006
25773W        W41242   9.996  17.939   2.343  0.0372 -0.2150 -0.1238
25774W        W41243  10.190  12.175   1.123 -0.1194  0.1179 -0.2720
25775W        W41244   9.457  10.996  13.943 -0.0547  0.1638  0.2481
25776W        W41245   6.225  11.743   4.085  0.0786 -0.0934  0.2804
25777W        W41246   1.332   2.353  12.761  0.0310  0.1367  0.1445
25778W        W41247  12.647  11.086   0.575 -0.0607 -0.1213 -0.1515
25779W        W41248   5.417  16.537   3.779 -0.2141  0.0446  0.3266
25780W        W41249   6.637   2.918   0.254 -0.1573  0.2180  0.2557
25781W        W41250  10.891   1.878   2.440 -0.0548  0.2902  0.1892
25782W        W41251   6.038  10.616  12.716 -0.2903  0.1544  0.2395
25783W        W41252  15.067   5.304  11.733  0.0547 -0.3592  0.0846
25784W        W41253  14.086   8.833  15.958 -0.1764 -0.0315  0.0775
25785W        W41254  11.756   3.290   4.789  0.3591 -0.0524  0.3102
25786W        W41255   2.433   1.068   4.766 -0.1548  0.1225  0.1466
25787W        W41256   3.760   4.589   6.002  0.0879 -0.0080  0.1632
25788W        W41257   5.341  14.402  14.816  0.0661  0.0081  0.0782
25789W        W41258   0.547  16.249  14.029 -0.0062 -0.2763  0.1393
25790W        W41259   6.332  14.066   5.126  0.0488  0.2534  0.1287
25791W        W41260  12.480   0.761  13.383 -0.0672 -0.0258 -0.2885
25792W        W41261   4.021   0.786  15.059  0.0213 -0.1756 -0.0036
25793W        W41262  10.354  12.607   2.682  0.2590 -0.0268  0.2463
25794W        W41263   7.567   2.753   2.593 -0.2623  0.0127  0.1872
25795W        W41264  11.520   0.673   3.835  0.1316 -0.2858 -0.1914
25796W        W41265   5.014  13.086   0.738 -0.1844 -0.1690 -0.0612
25797W        W41266  18.244   5.355   5.941 -0.2200 -0.3249 -0.0236
25798W        W41267  10.211  13.918   6.100  0.2868 -0.0248 -0.1634
25799W        W41268   0.793   1.589   0.764 -0.2125  0.2518 -0.0319
25800W        W41269   9.474  16.088  13.411  0.3692 -0.0213 -0.1441
25801W        W41270  10.530   9.622   2.599  0.0574  0.3414  0.0429
25802W        W41271   2.427  17.787  12.109  0.3512  0.0277  0.4207
25803W        W41272   8.938  17.120  12.735 -0.0508  0.0457 -0.1437
25804W        W41273  12.121  11.408  11.113  0.1709 -0.0305 -0.1093
25805W        W41274   8.959  17.664  14.089  0.3363 -0.0413  0.3890
25806W        W41275   3.133  12.316  13.984  0.1287 -0.1318 -0.0316
25807W        W41276   0.427  17.467  14.292  0.2102  0.2674 -0.1548
25808W        W41277   6.303  12.189   1.686 -0.0741  0.1571 -0.1337
25809W        W41278  12.599   0.641  12.878  0.1023 -0.2112  0.2753
25810W        W41279   7.235   8.906  13.256  0.1478  0.2755 -0.0409
25811W        W41280  14.806   6.889   2.728  0.1233 -0.1015  0.0749
25812W        W41281   6.923   5.846   0.741 -0.2684  0.0148  0.1745
25813W        W41282  13.659  13.301  10.755 -0.0328 -0.0236  0.1534
25814W        W41283   2.837  18.220   1.860  0.0935  0.3540  0.0420
25815W        W41284  10.115   2.886   4.599 -0.0491 -0.2067  0.0629
25816W        W41285   3.618  13.492  15.143 -0.1281  0.1258  0.2636
25817W        W41286   1.197   0.155   3.132  0.2797  0.1958  0.0267
25818W        W41287   0.019  17.874  14.393  0.0996  0.1778  0.1910
25819W        W41288   4.394   5.209   4.853 -0.0966 -0.2257  0.0334
25820W        W41289  16.481   3.128  14.695  0.0840 -0.0526  0.1829
25821W        W41290  15.456   8.260  12.297 -0.4003 -0.1460 -0.1674
25822W        W41291   4.208   4.802  13.131  0.1883 -0.2606  0.1079
25823W        W41292  11.586   4.817  11.777 -0.0636 -0.0982 -0.1403
25824W        W41293   6.626   1.112  13.148 -0.0102  0.3507  0.0391
25825W        W41294   3.987   8.159  15.874  0.1112  0.3417 -0.0470
25826W        W41295  12.891   2.091   1.372 -0.1491 -0.1417 -0.2856
25827W        W41296   9.288  16.828  13.865  0.1845 -0.2383 -0.1127
25828W        W41297  11.888   4.171   1.602 -0.0181 -0.0346 -0.0400
25829W        W41298   8.582   6.321  10.777 -0.2717  0.0026  0.3468
25830W        W41299  11.840  10.496  14.516 -0.0379 -0.0601  0.1353
25831W        W41300   9.956  12.693   4.924  0.2548  0.1502 -0.4872
25832W        W41301   7.089  11.305  15.619  0.0477 -0.1253  0.0628
25833W        W41302   6.590   3.872   1.674  0.2994  0.2471 -0.0164
25834W        W41303  13.376   5.297  14.210 -0.1216  0.1639  0.2037
25835W        W41304   1.035   4.760   0.935  0.1849  0.1094 -0.0152
25836W        W41305  12.793  10.165  12.582 -0.0358 -0.0810 -0.0451
25837W        W41306  17.108  12.423   5.048 -0.3057 -0.0378 -0.0608
25838W        W41307   2.845  16.671   2.402  0.0719 -0.3161  0.1135
25839W        W41308  13.489  11.540  12.226  0.0464 -0.4015  0.0482
25840W        W41309  16.123  13.361   1.166  0.2858  0.2268  0.0189
25841W        W41310   0.201  13.416   1.078 -0.2843  0.1110  0.0644
25842W        W41311   9.708  15.496   4.757  0.0236 -0.3280  0.0861
25843W        W41312   2.694  14.593  14.155 -0.1041  0.0664  0.0072
25844W        W41313   4.162   4.347   2.403 -0.0180 -0.2072 -0.0472
25845W        W41314   1.565  17.521  13.172  0.1331  0.2016 -0.1880
25846W        W41315  13.879  13.393  13.667 -0.1355 -0.2293 -0.0785
25847W        W41316  14.375   1.522  14.284 -0.1011  0.1417  0.1680
25848W        W41317  14.432   2.241  13.728 -0.0125 -0.3485 -0.2007
25849W        W41318   5.352   1.092  13.672  0.0710  0.2805 -0.0934
25850W        W41319   6.331   1.498   2.261 -0.0531  0.1127 -0.2612
25851W        W41320   6.687  12.757  15.855 -0.0506 -0.1513 -0.2726
25852W        W41321   6.229  15.430  13.291  0.1777  0.2796 -0.0115
25853W        W41322  10.110   0.137  14.211 -0.1131 -0.0027 -0.3204
25854W        W41323  14.249   4.178  14.249  0.3476 -0.2415  0.2116
25855W        W41324   1.240  16.435   3.099  0.3156 -0.0760 -0.2994
25856W        W41325  17.058   6.334  10.876  0.1554 -0.0524  0.2552
25857W        W41326  11.500   6.808  15.188  0.0810 -0.1943 -0.1565
25858W        W41327  16.696   8.388   0.184  0.3843  0.0534 -0.1590
25859W        W41328   6.280  15.525   3.277 -0.0676  0.0985  0.1795
25860W        W41329  16.205   9.755  13.107 -0.2172  0.0792  0.1195
25861W        W41330   0.353   7.076   1.687 -0.1163 -0.0780  0.0680
25862W        W41331   2.133   9.968  11.807  0.1269 -0.3652  0.0269
25863W        W41332  15.660  12.206   2.095  0.2212 -0.1877 -0.0910
25864W        W41333   0.928  13.293  12.332  0.1253 -0.0912  0.3775
25865W        W41334   5.320  10.988   3.768 -0.0368  0.0471  0.2337
25866W        W41335   5.533  12.544  10.963 -0.0760 -0.1663 -0.0128
25867W        W41336   1.473   6.727  15.849  0.0874  0.2622 -0.1681
25868W        W41337  17.165  12.797  12.930 -0.0659 -0.0852  0.0140
25869W        W41338  13.786   5.891  12.584 -0.1592  0.1528 -0.1570
25870W        W41339   0.959   3.309  13.942  0.0565 -0.0659  0.0367
25871W        W41340   4.768  17.087   5.235  0.4572 -0.1366 -0.0785
25872W        W41341  13.855  11.863   1.681  0.0442  0.1276 -0.0905
25873W        W41342   3.127  16.087  15.160 -0.1188 -0.1221 -0.3548
25874W        W41343  12.194   9.487  12.294 -0.1390 -0.3443  0.0544
25875W        W41344   1.299   6.491   2.291 -0.1571  0.0046 -0.0910
25876W        W41345  17.998   0.167   1.290 -0.1132  0.2718  0.2062
25877W        W41346  14.729   1.480  12.390  0.2351  0.0579 -0.2404
25878W        W41347   8.317   8.034   2.721  0.2825  0.0176  0.0353
25879W        W41348   2.785   7.167  14.856 -0.2729  0.0505  0.1914
25880W        W41349   5.851   5.561  15.016  0.2476 -0.1230 -0.2558
25881W        W41350   3.341  15.008   3.861  0.1401 -0.0602  0.0829
25882W        W41351  17.402   9.055   3.988  0.1626 -0.1733  0.2820
25883W        W41352   1.427   3.761   2.533  0.1120 -0.0437 -0.2161
25884W        W41353   2.995   0.414  11.286 -0.2076  0.1489 -0.1546
25885W        W41354   7.484   4.310  14.873  0.1100 -0.2613 -0.0603
25886W        W41355   1.377   8.220   5.203  0.1886 -0.0661 -0.2210
25887W        W41356  10.486   0.964  14.508  0.3793  0.1000 -0.0350
25888W        W41357   6.363  14.870  13.901  0.1043 -0.0405 -0.2943
25889W        W41358  14.225  14.783   1.657 -0.2515  0.0648 -0.1012
25890W        W41359  12.730  13.379   0.510  0.0796  0.2887  0.0306
25891W        W41360   7.403   3.454   2.353  0.4053  0.1833 -0.0046
25892W        W41361  14.712   4.171   6.464  0.1633 -0.2723  0.0625
25893W        W41362   0.863   8.282   4.197 -0.0446  0.1196  0.2585
25894W        W41363  10.003  14.341   5.823  0.2396  0.2596  0.1234
25895W        W41364  10.768  14.287  11.355  0.0031 -0.4549  0.2795
25896W        W41365   2.881   8.026  12.978  0.0543  0.0764  0.1650
25897W        W41366   3.560   3.688  15.118 -0.0082 -0.2045 -0.0996
25898W        W41367   3.654  15.805   6.296  0.0818  0.2416  0.0024
25899W        W41368   3.365   2.048   4.730  0.2879  0.1059  0.2729
25900W        W41369   9.714  11.445  11.421 -0.1749 -0.0009  0.0928
25901W        W41370  15.108  10.546   2.630  0.1045 -0.2610 -0.2136
25902W        W41371   1.535  13.306  11.315  0.1834 -0.1821 -0.2128
25903W        W41372  12.758   3.486  12.574  0.1653  0.0129  0.1086
25904W        W41373   2.302  16.610  11.798  0.0053 -0.1106 -0.1117
25905W        W41374  12.735  14.554  14.873  0.0112 -0.0542  0.2250
25906W        W41375  12.687   2.340   2.293  0.1111  0.1017 -0.0017
25907W        W41376   3.371  13.316   2.477 -0.1260  0.1978 -0.1224
25908W        W41377   8.847   6.271  13.089  0.0110  0.1681  0.3791
25909W        W41378   6.481   7.872   2.584  0.2240 -0.1969 -0.1371
25910W        W41379  10.382  11.391   3.642  0.1877  0.1029  0.0660
25911W        W41380   2.594  11.048   2.275  0.1810  0.1596 -0.2270
25912W        W41381   8.018  12.128   1.109 -0.1081  0.2220 -0.2044
25913W        W41382   7.596   8.317   2.929  0.1161 -0.1600  0.2745
25914W        W41383   5.709  14.460  13.173 -0.2061 -0.0961 -0.0089
25915W        W41384   6.503  14.764  11.456 -0.1907  0.0014 -0.0511
25916W        W41385   4.173  13.039  14.809 -0.1095 -0.0319 -0.2643
25917W        W41386   5.185   8.303  13.645 -0.0304  0.0627 -0.3055
25918W        W41387   1.584  14.340  15.457 -0.0189 -0.1206 -0.0480
25919W        W41388   9.202   9.354   9.443  0.0678  0.0924 -0.2531
25920W        W41389   7.225   4.020   2.476  0.2054 -0.3313 -0.0590
25921W        W41390   0.478  10.335   0.011 -0.0624  0.1980 -0.1418
25922W        W41391  10.156   4.229   2.918 -0.1750 -0.0780 -0.0380
25923W        W41392   4.689   5.724  12.200 -0.2508  0.1532  0.3424
25924W        W41393   6.798  11.744  12.214 -0.1482  0.1252  0.1123
25925W        W41394   8.384  13.847  14.900 -0.0453 -0.1160  0.2426
25926W        W41395  12.659   8.921  14.026  0.0365 -0.0158 -0.2847
25927W        W41396  17.742  11.635   1.167 -0.1256 -0.1059 -0.0410
25928W        W41397  14.360  10.976  15.660 -0.0517 -0.0298 -0.2307
25929W        W41398   7.662   8.783   1.532 -0.2370  0.2476 -0.2256
25930W        W41399  17.021   5.656   5.797 -0.0899  0.1542 -0.2475
25931W        W41400   2.230   0.823  13.219  0.0376  0.1482  0.1238
25932W        W41401   6.957   2.372  11.181  0.1702  0.2631 -0.2808
25933W        W41402  16.074  13.016   4.382 -0.0220 -0.3487 -0.0639
25934W        W41403  12.651  14.133   2.195  0.3920  0.1060  0.2842
25935W        W41404  12.601   4.453  15.541  0.2501  0.0137  0.1634
25936W        W41405   1.599  12.598   3.287  0.1807 -0.0128  0.1716
25937W        W41406  11.948   3.004   4.446 -0.0870 -0.2832  0.1562
25938W        W41407   9.947   3.278   2.448  0.1042 -0.2316 -0.3802
25939W        W41408  16.820   9.158  14.325  0.2642 -0.1124  0.1163
25940W        W41409   5.748   9.347   1.500 -0.2168 -0.0198  0.0987
25941W        W41410  14.312  12.817   3.440 -0.3866  0.4695 -0.2359
25942W        W41411  10.561   6.661  14.690 -0.2544 -0.1144  0.0016
25943W        W41412  15.652   3.879   1.799  0.2066 -0.2424 -0.0270
25944W        W41413   4.335  14.215  12.319  0.2069 -0.2550 -0.2294
25945W        W41414  10.075   3.497   4.012 -0.0714  0.1368 -0.1808
25946W        W41415  13.883   5.903  11.328 -0.1847  0.0099 -0.3196
25947W        W41416  11.788   5.968  14.336  0.0297 -0.0627 -0.0602
25948W        W41417  17.095  12.203   3.524 -0.1369 -0.0272 -0.2273
25949W        W41418  12.389   1.132  13.075 -0.1044 -0.5427 -0.1874
25950W        W41419  12.478  14.548   5.388  0.1212 -0.1906 -0.0844
25951W        W41420  15.932  12.415   5.195 -0.1315 -0.0023  0.3272
25952W        W41421  11.754  10.972  13.695  0.3068  0.2195 -0.0002
25953W        W41422   1.546  14.136   2.692  0.2682 -0.0803  0.2954
25954W        W41423  11.894   9.304  15.560  0.0229 -0.0290 -0.1706
25955W        W41424   5.639  12.187  10.552  0.2156  0.1766 -0.1279
25956W        W41425   3.555  11.205   3.690 -0.0149 -0.0953  0.0992
25957W        W41426  10.904  12.114  11.315  0.0139  0.0127  0.0782
25958W        W41427   8.882   2.674   2.365 -0.0621  0.1304  0.1832
25959W        W41428   6.084   1.649   2.726 -0.0305 -0.0688 -0.1767
25960W        W41429   7.296  10.068   9.696  0.1582 -0.0603  0.1394
25961W        W41430   4.573   0.003   1.803 -0.0204 -0.0194  0.0707
25962W        W41431   1.206  15.812   0.227 -0.1666 -0.0217  0.0530
25963W        W41432   5.507   1.161   3.522  0.0364  0.0236 -0.0359
25964W        W41433   0.941  15.867   1.192  0.0663 -0.1882 -0.0264
25965W        W41434  15.679   4.521  14.119  0.0259 -0.0577 -0.1344
25966W        W41435  15.987   6.664  13.315  0.3024  0.0373  0.2062
25967W        W41436   6.095   7.744  12.465  0.1224 -0.2524  0.0138
25968W        W41437  11.067   2.026   3.779  0.0209 -0.1039 -0.2269
25969W        W41438  13.431   0.834  10.284  0.1216 -0.0815 -0.1450
25970W        W41439  12.627  10.881   1.090 -0.1317 -0.3116 -0.1923
25971W        W41440   5.746   5.764   1.695  0.0782  0.1325 -0.1027
25972W        W41441  11.319   1.755  10.273  0.2369  0.1629  0.2520
25973W        W41442  17.811  12.994   5.128 -0.0990 -0.1076 -0.0236
25974W        W41443  12.766  17.788   3.572 -0.1211  0.0149  0.3463
25975W        W41444  16.170   2.085  13.382 -0.1765  0.1614 -0.0778
25976W        W41445  16.533   4.897  10.505  0.0388 -0.1118  0.1019
25977W        W41446   2.255   3.493  14.374 -0.0778 -0.2893 -0.0551
25978W        W41447   2.014   8.191  14.115  0.1235 -0.1252  0.0963
25979W        W41448   7.257   2.462  12.083  0.1078  0.0872 -0.0555
25980W        W41449  16.434   7.809  15.989 -0.0123  0.1975 -0.1378
25981W        W41450  14.381  14.365  11.952  0.2684  0.2945  0.0554
25982W        W41451  13.624  10.429   0.424 -0.0355  0.0988 -0.2107
25983W        W41452  13.230  12.651  11.652 -0.0231  0.1600  0.0954
25984W        W41453  18.050  13.024  10.855  0.0613  0.1334 -0.2288
25985W        W41454   3.823  11.745   1.843 -0.1882  0.1742  0.0994
25986W        W41455  13.011  17.942  13.386 -0.2316 -0.0028  0.0380
25987W        W41456   8.581   6.758   1.327  0.2398 -0.3464 -0.2378
25988W        W41457   0.218   7.184   4.878 -0.1777 -0.0381  0.0163
25989W        W41458   1.283   7.161  15.905 -0.1363 -0.1728  0.0948
25990W        W41459   3.852  13.887   1.081  0.2351 -0.0767  0.0861
25991W        W41460   1.092  13.446  14.517 -0.0116 -0.2072  0.0981
25992W        W41461   0.581   9.701  10.671 -0.1099 -0.1525 -0.1887
25993W        W41462  11.690   7.259  15.033 -0.1960  0.0807 -0.0283
25994W        W41463  14.682  10.720  10.004 -0.1675 -0.0049  0.0959
25995W        W41464  14.431  12.469   1.459  0.1226  0.2245 -0.0680
25996W        W41465   1.174   0.643   1.229  0.0426  0.1892 -0.1943
25997W        W41466  16.815   3.301   2.409 -0.1424 -0.1683  0.2195
25998W        W41467   3.165   0.812   2.219  0.2341 -0.0959 -0.0910
25999W        W41468  16.533  18.274  14.503  0.0449 -0.1301  0.2772
26000W        W41469   3.499  13.014   3.879 -0.0629 -0.2042 -0.1468
26001W        W41470   9.457   2.300   2.921 -0.0771 -0.0106 -0.0711
26002W        W41471   2.590  16.630   3.598 -0.1689 -0.0603  0.2575
26003W        W41472   0.707  16.046  14.601  0.0553  0.1865 -0.0076
26004W        W41473   1.647  16.617  15.243  0.0700 -0.0782 -0.0256
26005W        W41474   4.552  17.826   0.244  0.3805 -0.1999  0.0540
26006W        W41475   3.219  13.860  11.680 -0.2372 -0.2927 -0.1268
26007W        W41476  16.630   4.393  11.933  0.0323 -0.0289  0.0306
26008W        W41477   0.269   9.203  11.706  0.1222  0.1158 -0.0571
26009W        W41478   4.240   7.540   1.960 -0.1887  0.0042  0.1373
26010W        W41479   2.969  12.032   2.947  0.1499 -0.0371 -0.1348
26011W        W41480  12.198   5.788   4.953  0.2260 -0.0520 -0.0290
26012W        W41481   5.864   9.558   2.045 -0.0772  0.0457  0.0668
26013W        W41482   0.285  17.086   2.169 -0.2220 -0.1574  0.0620
26014W        W41483  11.875  17.113   2.954 -0.2834  0.1270  0.3977
26015W        W41484   0.692  17.169  13.493 -0.0911 -0.1629  0.0548
26016W        W41485   2.109   9.445   3.469  0.1067 -0.2309 -0.1750
26017W        W41486   3.324   7.544   4.985  0.1972 -0.1201  0.0171
26018W        W41487   8.620  11.901  10.593  0.0349 -0.0987 -0.1256
26019W        W41488  16.919  11.739   3.487  0.3844 -0.0335  0.1655
26020W        W41489  16.345   4.269  13.197  0.1313  0.0710  0.2635
26021W        W41490   3.100   2.912  11.138  0.1411  0.1488 -0.3107
26022W        W41491  10.473  17.027  15.120  0.1776  0.1710  0.1983
26023W        W41492   6.057   1.877  13.387  0.1763  0.4022  0.2534
26024W        W41493  17.283   0.302   6.010  0.0684 -0.0710  0.1995
26025W        W41494   2.464   7.071   4.537  0.3386 -0.0965  0.1642
26026W        W41495  14.976   8.030   4.458 -0.0783 -0.1163  0.0850
26027W        W41496   9.997   1.005  14.580  0.0601 -0.1030 -0.0855
26028W        W41497  13.407   3.773   3.745 -0.2743 -0.2881  0.1385
26029W        W41498   2.986  16.730   0.473 -0.2428 -0.0410 -0.0891
26030W        W41499  10.806   4.970   4.602  0.2452 -0.2510 -0.1447
26031W        W41500   8.953  15.100  13.410  0.1921 -0.1162 -0.0640
26032W        W41501   6.745   0.865   4.248 -0.0907  0.1832  0.1825
26033W        W41502  17.593   0.746  11.734  0.2531  0.2646 -0.0880
26034W        W41503  12.003   5.338  15.489 -0.1491  0.0250 -0.1569
26035W        W41504   2.317   4.649   2.910  0.1038  0.1702  0.0735
26036W        W41505  15.781   0.030  13.678  0.2142 -0.5178 -0.2731
26037W        W41506  16.058   6.849  15.610 -0.4282 -0.1750 -0.2645
26038W        W41507  10.445   3.479   2.241 -0.0186 -0.0721  0.2224
26039W        W41508   5.444   5.099  12.047 -0.0735  0.0984  0.0331
26040W        W41509  13.203   0.321   4.241  0.1855  0.0501 -0.0026
26041W        W41510   5.476   3.692  11.529 -0.0034  0.2882  0.1821
26042W        W41511  16.993   9.913  11.241 -0.1392 -0.1301  0.1975
26043W        W41512  12.143   1.683   0.959 -0.0397  0.0463  0.2025
26044W        W41513   2.664  15.226  14.935  0.0120 -0.2674  0.1313
26045W        W41514  15.390  16.528   2.705 -0.1684 -0.0611  0.0077
26046W        W41515   0.054   9.115   1.820 -0.0489  0.0651 -0.3082
26047W        W41516  16.709   3.023  11.860  0.0461 -0.0999  0.0722
26048W        W41517  14.810  10.411  13.700 -0.0214  0.0842 -0.1414
26049W        W41518  15.023  14.451   1.074 -0.2504 -0.0411  0.0018
26050W        W41519  13.888   2.351  10.477  0.0114 -0.1375 -0.0756
26051W        W41520  10.031  15.370   3.539  0.1865 -0.0508  0.1059
26052W        W41521  18.064   0.032   3.615  0.0363 -0.2205  0.0491
26053W        W41522   6.403  12.700   2.555 -0.0793  0.2635 -0.1831
26054W        W41523  12.198   4.514  13.349  0.0879  0.0784 -0.0373
26055W        W41524   5.430   2.122   4.147  0.0793  0.0693  0.3485
26056W        W41525   7.494  16.134   0.100 -0.4311  0.0941 -0.2711
26057W        W41526  12.226   9.253  13.304  0.1259  0.3724 -0.2536
26058W        W41527   6.300   6.693  11.835  0.1724 -0.2404  0.3882
26059W        W41528  16.088  17.940   0.019 -0.2401  0.0204  0.2003
26060W        W41529  13.017   6.062   0.548 -0.1611  0.0253 -0.0291
26061W        W41530  12.866  17.388   5.129  0.1107  0.1257  0.0713
26062W        W41531  12.628  16.172  13.424 -0.2097 -0.2352 -0.2215
26063W        W41532   1.854   0.700   5.530  0.3453  0.2536  0.2815
26064W        W41533   7.403   0.128   3.986  0.1674  0.0772 -0.2937
26065W        W41534   4.919  10.587  15.608  0.2330 -0.0100  0.1556
26066W        W41535   2.831   2.165  12.101  0.2367  0.1498 -0.0135
26067W        W41536  18.038   2.101   1.944  0.0289 -0.1116  0.0119
26068W        W41537  12.081   6.171   3.237  0.3261  0.1531  0.1283
26069W        W41538   6.606  16.636   1.329  0.0008 -0.0918  0.0152
26070W        W41539   7.677   1.136   0.742  0.0338 -0.0075 -0.2736
26071W        W41540  10.553  17.220  12.872 -0.1302  0.1020 -0.0721
26072W        W41541   4.144   8.104  12.348  0.1062 -0.0337 -0.0244
26073W        W41542   6.800   8.378  12.741 -0.0385  0.0021  0.0770
26074W        W41543  17.031   9.501  10.965 -0.0658  0.0509 -0.2491
26075W        W41544   2.864  17.893   4.962 -0.1115 -0.1057 -0.0572
26076W        W41545   7.921   2.410   2.722  0.0755  0.0746 -0.4838
26077W        W41546   3.275  14.663   5.068  0.2442  0.2401 -0.0478
26078W        W41547   0.894   2.036  12.780 -0.1034  0.1815 -0.1063
26079W        W41548  17.247   4.581   1.154 -0.2406 -0.2040  0.1138
26080W        W41549  13.783  11.301   3.496 -0.0999  0.1716 -0.0258
26081W        W41550  17.548   2.690  12.333  0.0122  0.2142  0.1084
26082W        W41551   1.688  11.823   0.074  0.1143  0.1781  0.1929
26083W        W41552   7.278   2.342  16.029 -0.4446  0.2244  0.0116
26084W        W41553  14.866   3.898  12.118 -0.1299  0.0068 -0.0490
26085W        W41554   0.040   9.844  10.777 -0.2539  0.1139 -0.2843
26086W        W41555  15.645  10.392  14.289  0.1209  0.0297 -0.5371
26087W        W41556  17.130   5.566   3.331  0.0904 -0.1013 -0.0369
26088W        W41557  15.738   7.154  14.847 -0.2757 -0.3251  0.0895
26089W        W41558  11.892  15.921   2.398 -0.2689 -0.5125  0.0180
26090W        W41559  15.926   9.096  12.419  0.0281 -0.1393 -0.0030
26091W        W41560   3.968   5.106  13.465 -0.0175 -0.2922  0.0719
26092W        W41561  13.050  14.408  14.492 -0.0178  0.1255 -0.2104
26093W        W41562  11.686   0.220  15.977 -0.0774 -0.2734 -0.0149
26094W        W41563   7.649   6.457  12.089  0.0170  0.2094 -0.1318
26095W        W41564  10.488   4.501  10.776  0.2508 -0.2295 -0.2812
26096W        W41565  11.941   8.453  15.956 -0.0590 -0.0637  0.0288
26097W        W41566   6.890   8.983  14.028 -0.0674 -0.2343 -0.1784
26098W        W41567   2.512  15.679  12.326  0.1694 -0.2715 -0.0306
26099W        W41568  17.848  14.665   4.830 -0.0320 -0.1394  0.2189
26100W        W41569  14.959  10.610  11.411 -0.2697 -0.1563  0.2063
26101W        W41570   5.427   5.443  11.039 -0.2175 -0.0248 -0.3605
26102W        W41571  13.586  10.385   1.280 -0.1062 -0.0659 -0.0562
26103W        W41572  11.272  13.802   2.059 -0.0001 -0.0090 -0.2910
26104W        W41573  13.885   0.722   0.512 -0.0648  0.3260 -0.2325
26105W        W41574   9.694   8.107   1.814 -0.2316 -0.0926  0.0244
26106W        W41575   9.040  15.821   1.564  0.0846  0.0117  0.0638
26107W        W41576  12.416  17.852   4.033  0.0233  0.1661  0.1236
26108W        W41577  11.838   3.763   1.145 -0.0497  0.1704  0.0839
26109W        W41578   9.020   8.602  15.670 -0.1055 -0.1773  0.1048
26110W        W41579   0.117   3.620   4.891  0.1049  0.2215  0.0333
26111W        W41580   3.978   9.821   0.674 -0.1411  0.2265  0.1423
26112W        W41581   0.544   7.012  15.771 -0.2023 -0.2174 -0.1381
26113W        W41582   7.330  14.628  15.349 -0.2870 -0.0789  0.0160
26114W        W41583  11.512  11.580   0.047  0.0987 -0.1859  0.0475
26115W        W41584  16.203   5.951  13.858  0.2149  0.3218  0.1135
26116W        W41585  12.035  18.058   5.728  0.2254 -0.0536 -0.1665
26117W        W41586   5.490  17.992   9.910 -0.1390 -0.0209 -0.1491
26118W        W41587   9.920  12.051   2.988 -0.0355  0.0898 -0.2735
26119W        W41588   8.798  14.110   5.780 -0.1444  0.1906 -0.0665
26120W        W41589   2.361   5.598  14.116 -0.1877 -0.3149 -0.0322
26121W        W41590   6.325   0.180   9.597  0.0434  0.0559 -0.2043
26122W        W41591  17.868   2.449   3.235  0.1647  0.0404 -0.3307
26123W        W41592  15.197   9.704  12.724  0.1668 -0.0250 -0.2205
26124W        W41593   1.650  12.432  14.294 -0.1003  0.1102  0.3816
26125W        W41594   0.623   7.207   2.114  0.0431  0.1772 -0.1411
26126W        W41595   0.287  12.936  11.519  0.1184 -0.1219  0.1013
26127W        W41596   1.575   9.790   2.866 -0.2070 -0.1680  0.2264
26128W        W41597   8.982   2.595  13.028 -0.1257 -0.1350  0.0277
26129W        W41598   3.466   3.905   2.750  0.0952  0.1952  0.0037
26130W        W41599  13.476   5.283   4.423 -0.2979 -0.1712  0.1633
26131W        W41600   6.958   6.715  10.632  0.0403 -0.5078 -0.0473
26132W        W41601  13.700   6.760  10.279  0.2866  0.0497 -0.2556
26133W        W41602  13.236   6.704   3.987  0.1403  0.1565 -0.1525
26134W        W41603  18.014   2.489   4.434  0.1328 -0.0511 -0.1553
26135W        W41604  17.506   0.539   2.856 -0.1779  0.2229 -0.1699
26136W        W41605   1.320   8.250   0.173 -0.0992 -0.2582 -0.2237
26137W        W41606   0.890  10.227  15.804 -0.0900  0.0780  0.1345
26138W        W41607   2.771  16.090  13.374 -0.1361  0.1238 -0.2786
26139W        W41608  18.064   7.458  11.300 -0.0945  0.2968  0.0055
26140W        W41609   5.351  12.153  13.877  0.0143 -0.0801 -0.2323
26141W        W41610   9.640   9.816   4.067  0.0345 -0.1045 -0.0729
26142W        W41611  10.716   1.284  13.597  0.0216  0.0733  0.0951
26143W        W41612   4.825  15.748  13.755 -0.1440 -0.0641 -0.1650
26144W        W41613  14.666   4.593  13.423  0.0321  0.0696  0.2450
26145W        W41614   9.677  10.500  14.621 -0.0543 -0.1175 -0.0294
26146W        W41615  16.777  15.284  13.233  0.0632  0.0352 -0.0623
26147W        W41616   4.258   8.890   5.000 -0.0619  0.1397 -0.1121
26148W        W41617   4.187  10.227  11.222 -0.1814 -0.3680 -0.1962
26149W        W41618  12.255  15.338  11.293  0.1727 -0.0068 -0.0458
26150W        W41619  14.271   8.625  10.739 -0.1322  0.0781 -0.2119
26151W        W41620  14.305  13.001  12.480 -0.0565 -0.1804 -0.2097
26152W        W41621  16.134  10.770  13.323  0.1482  0.1260  0.0555
26153W        W41622  18.131   7.192   2.659 -0.2353 -0.0584  0.2433
26154W        W41623   4.265   5.344   5.709 -0.0458 -0.0399 -0.0124
26155W        W41624   5.178  15.001   3.647 -0.3060  0.2087  0.0732
26156W        W41625  15.840   1.612  15.632  0.2030 -0.1718 -0.0581
26157W        W41626   8.574   4.196   2.114  0.1505 -0.0120 -0.1579
26158W        W41627   6.850   9.507  14.072  0.1469 -0.1344 -0.2729
26159W        W41628   4.997   5.504   1.526 -0.2969 -0.2036 -0.2224
26160W        W41629   7.386   0.672   4.088 -0.1551  0.1299  0.2092
26161W        W41630  14.417   9.151   3.887 -0.1663 -0.1030 -0.0818
26162W        W41631  13.989   5.730   1.600  0.1359  0.4862  0.3750
26163W        W41632  10.270   1.978  15.185  0.1252  0.0819  0.1353
26164W        W41633  13.072  13.692  11.360 -0.0286 -0.1423  0.2563
26165W        W41634  15.594  14.381  15.506  0.2435 -0.0398 -0.0891
26166W        W41635   6.085   6.977   3.021  0.1915  0.2032  0.1083
26167W        W41636   7.819  14.778   3.959  0.0396 -0.2446 -0.0706
26168W        W41637  11.336  18.169   1.840 -0.1010 -0.0603 -0.0006
26169W        W41638   7.956   8.434   4.390 -0.0034  0.0962 -0.0332
26170W        W41639   7.459  15.082   5.458 -0.0280 -0.1301 -0.1539
26171W        W41640  15.618  11.499  11.136  0.0761 -0.2277 -0.3882
26172W        W41641  17.381   7.771  14.520  0.0060 -0.0692  0.2809
26173W        W41642  17.755  17.655  12.751 -0.0499  0.0839 -0.0252
26174W        W41643  18.132   4.549   4.448  0.0471 -0.1702  0.0802
26175W        W41644  15.262  12.684  15.916  0.0420 -0.0560 -0.0827
26176W        W41645   9.836   1.621   1.576  0.1237 -0.0252 -0.3083
26177W        W41646  12.478   4.338   2.309  0.1272  0.1885  0.3228
26178W        W41647  13.767  14.144   4.843 -0.0422 -0.0181 -0.1364
26179W        W41648  12.514  11.265   5.006 -0.0338 -0.4145 -0.0217
26180W        W41649   1.780  15.622   3.020 -0.1472  0.3097 -0.2486
26181W        W41650  11.910   0.474  11.471  0.1490 -0.0417 -0.2471
26182W        W41651   4.457  16.043   3.672  0.1234 -0.2042  0.3330
26183W        W41652   4.422   8.438  11.271  0.2268 -0.2825 -0.1695
26184W        W41653  13.602   0.734   0.056  0.0676 -0.4266 -0.2106
26185W        W41654   6.315   8.837  13.975 -0.3896 -0.0682 -0.1210
26186W        W41655  13.155  16.690   3.490 -0.0689  0.1102  0.0524
26187W        W41656   9.832  10.060  15.784  0.2419  0.0289 -0.0537
26188W        W41657  15.179   9.054   3.428 -0.2906 -0.2073 -0.0949
26189W        W41658   6.937   9.866   4.512  0.0603  0.0396 -0.0711
26190W        W41659  10.705  15.476   1.834 -0.0916  0.0095  0.0435
26191W        W41660   5.419  17.983   1.231  0.1486 -0.1095  0.0777
26192W        W41661  14.850   3.962   3.271  0.1059 -0.0680 -0.1091
26193W        W41662  16.723   8.282  11.307  0.0041 -0.1125  0.0762
26194W        W41663  11.943  17.172   0.957  0.0290 -0.3392  0.1836
26195W        W41664  17.932  10.024  13.339  0.3283 -0.0692 -0.1094
26196W        W41665  11.410  13.125  14.082 -0.0668  0.0063  0.3253
26197W        W41666   4.679   8.501  13.630  0.0570 -0.1008 -0.1173
26198W        W41667   2.922   9.734  15.852  0.0864 -0.1355  0.1838
26199W        W41668   5.719   8.408   2.827 -0.0231  0.1411  0.0800
26200W        W41669  18.037   8.279   2.023  0.1066  0.1817  0.0011
26201W        W41670  16.244   9.995   6.111  0.2581  0.0235  0.0071
26202W        W41671   0.130   1.371   4.390 -0.1107  0.0733  0.1052
26203W        W41672   7.215  16.617   4.552 -0.2265  0.0087  0.0924
26204W        W41673   9.829   9.278   2.990  0.0654  0.0644 -0.0978
26205W        W41674   2.333   5.095  12.195 -0.2163 -0.1389 -0.0176
26206W        W41675  15.364  10.302  11.563  0.0792 -0.2310  0.1164
26207W        W41676   9.984  13.091   3.619  0.1516  0.1208 -0.1028
26208W        W41677   4.078  14.386  11.212  0.1807 -0.2195  0.0928
26209W        W41678   5.879   1.910   3.930 -0.1683 -0.2172 -0.0169
26210W        W41679   2.512  14.220  11.177 -0.0854 -0.0182  0.0117
26211W        W41680   8.552  13.584   4.563 -0.2275  0.1236  0.1455
26212W        W41681  14.721   4.783   0.621 -0.1947 -0.0001  0.1525
26213W        W41682   6.484   6.189   3.405  0.2598  0.3536 -0.2654
26214W        W41683   1.109   8.985   5.766 -0.0170 -0.4372  0.0348
26215W        W41684  17.568   5.392   3.619  0.0545  0.3272 -0.0351
26216W        W41685   9.192   4.898   1.745 -0.1102 -0.1438  0.2613
26217W        W41686   3.016   0.486   3.731 -0.0053  0.2260  0.2446
26218W        W41687  14.357   1.537   2.071 -0.0543  0.1306 -0.1629
26219W        W41688   2.727   0.071   2.329  0.1763 -0.0536 -0.3460
26220W        W41689  16.040  13.969   2.052  0.3614 -0.0016 -0.0155
26221W        W41690  18.273   5.898  11.558  0.0068  0.3157 -0.1583
26222W        W41691  12.440  10.950  11.357 -0.2047 -0.0756 -0.2482
26223W        W41692  10.083  14.027   4.504 -0.0439 -0.1986  0.0192
26224W        W41693   8.447   7.790  10.905 -0.1674 -0.1709 -0.0785
26225W        W41694  15.540  18.049  13.338 -0.0111 -0.0169 -0.2447
26226W        W41695   7.178  15.563  12.978 -0.0563  0.2173 -0.0549
26227W        W41696   3.128  10.866  12.865 -0.0131  0.1781  0.0915
26228W        W41697  17.869  10.245   1.081 -0.0056  0.0023 -0.2066
26229W        W41698  15.044  14.939   0.789  0.0033  0.2768 -0.1961
26230W        W41699  12.798  18.142  14.458 -0.1306  0.2151  0.0648
26231W        W41700   3.538  10.691   4.077 -0.3617 -0.0351  0.1551
26232W        W41701   5.932   9.482   4.744 -0.2293  0.1514 -0.0711
26233W        W41702   9.854  11.382  14.616  0.2026 -0.0328 -0.1225
26234W        W41703  15.610   9.015   3.788  0.2025  0.2751  0.2314
26235W        W41704  14.577   2.381  11.938 -0.2174 -0.0750 -0.1809
26236W        W41705   0.639   0.596   4.065 -0.2462  0.3524  0.0768
26237W        W41706  16.115   9.136   3.524 -0.0271  0.3593  0.1338
26238W        W41707   7.892  15.213  14.537 -0.1096 -0.0077 -0.2150
26239W        W41708   3.752  17.312  11.695 -0.0385  0.0071 -0.1279
26240W        W41709  16.471  11.719  13.386  0.3431 -0.2050 -0.2148
26241W        W41710   7.073   9.067   0.916 -0.1031  0.0947  0.0365
26242W        W41711   8.992   5.996   3.056  0.0762 -0.0319  0.0952
26243W        W41712   2.294   9.525  14.682 -0.1825 -0.1704  0.1508
26244W        W41713  15.654   3.753   1.016 -0.0031  0.0046 -0.0375
26245W        W41714   6.903  16.920  13.431 -0.0828 -0.1490 -0.0117
26246W        W41715  13.872  12.768  14.331 -0.2336  0.1511 -0.0524
26247W        W41716  10.964   7.609  15.807  0.2568  0.2633 -0.1691
26248W        W41717  14.509  12.123  13.460  0.1202  0.0051  0.2002
26249W        W41718   8.449  10.302   4.629 -0.0541  0.0269  0.0934
26250W        W41719  10.060   0.990   1.024 -0.3051 -0.1046 -0.0794
26251W        W41720  12.958   7.249   6.361  0.0766  0.1034  0.1585
26252W        W41721  13.585   6.270   2.163  0.0675 -0.0928 -0.0264
26253W        W41722   1.187  10.922  16.110 -0.0458 -0.4135  0.1204
26254W        W41723   5.859  17.489  14.129 -0.0124 -0.0336  0.0457
26255W        W41724  11.243   7.793   4.043  0.0675 -0.0260 -0.1142
26256W        W41725   9.259   0.958   0.808 -0.2909  0.1201 -0.0066
26257W        W41726   5.122   6.357   0.534  0.2426 -0.1943 -0.4904
26258W        W41727   7.220   1.469   1.457 -0.0108  0.2234  0.3547
26259W        W41728  12.392  14.986   2.283 -0.0240  0.2396  0.0159
26260W        W41729  16.041  16.432  13.793  0.0608 -0.0251 -0.4056
26261W        W41730  10.605   9.218   2.195 -0.1537  0.1950  0.0664
26262W        W41731  10.809  10.838   2.904  0.2980 -0.0433  0.1431
26263W        W41732  10.745   1.547   2.095  0.1379  0.0600 -0.0551
26264W        W41733   8.977   6.730   4.788  0.2551  0.2362 -0.2998
26265W        W41734   1.136   2.490  15.843 -0.1101 -0.1916  0.1579
26266W        W41735   2.893  12.727  12.122  0.1141  0.4097 -0.2332
26267W        W41736  11.237   3.282  15.123 -0.0950 -0.0954 -0.0052
26268W        W41737   8.449   7.396   4.032 -0.1391 -0.0472  0.0993
26269W        W41738   3.998  15.109  10.732  0.1665 -0.1235 -0.1617
26270W        W41739   8.343   3.047   3.238  0.2285 -0.3741 -0.0463
26271W        W41740  14.124   2.547   2.394  0.1297  0.3479 -0.1942
26272W        W41741  11.725   7.038   2.005 -0.1671  0.3253  0.0981
26273W        W41742  12.963  15.442  11.793  0.2373  0.1126 -0.1709
26274W        W41743   6.420  14.827   3.691  0.1987  0.4622 -0.0670
26275W        W41744   3.778  12.575   1.579 -0.2135  0.1944 -0.2701
26276W        W41745  17.991  11.858   4.529  0.0340  0.0504  0.0654
26277W        W41746   8.243  13.650   3.343 -0.2161 -0.1719  0.0220
26278W        W41747  16.635   4.365  13.596  0.0913  0.0542  0.1213
26279W        W41748   2.932  15.679  14.804 -0.0670 -0.2348 -0.0093
26280W        W41749  15.082   9.636  13.306  0.0282 -0.2719 -0.0341
26281W        W41750   0.316   9.516  13.087 -0.0154  0.0188  0.0318
26282W        W41751  15.749   7.842   3.330  0.0937 -0.0378 -0.1128
26283W        W41752  14.284  15.442  12.039  0.0276  0.1309  0.1458
26284W        W41753  16.430   3.023   1.278 -0.1435 -0.0460  0.0960
26285W        W41754  14.633  15.552   2.707 -0.0186  0.0379  0.1051
26286W        W41755  17.150  16.663  12.427  0.1749  0.0804  0.0322
26287W        W41756   6.339  18.128  12.986 -0.0201  0.2891  0.1031
26288W        W41757   8.572   1.317   1.983 -0.1185 -0.0750  0.0084
26289W        W41758  11.672   2.574   5.410 -0.0906 -0.0828 -0.0270
26290W        W41759   9.185  15.836  13.799 -0.1598 -0.1000  0.1236
26291W        W41760   7.967  16.922  10.066  0.1697 -0.1129  0.0395
26292W        W41761   0.845  17.611  11.640  0.1613 -0.0944  0.1554
26293W        W41762   7.962   7.702  12.311  0.2811 -0.1340  0.0445
26294W        W41763   9.305  11.556  11.821 -0.1651  0.1088  0.0252
26295W        W41764  10.757   8.448  14.172  0.2480  0.0874 -0.0302
26296W        W41765  14.901   4.931   2.272 -0.0457  0.2149 -0.0212
26297W        W41766  14.333   8.732   4.293 -0.0611  0.1799 -0.4141
26298W        W41767   3.806   5.077   5.056  0.2473 -0.3551 -0.1853
26299W        W41768   1.590   8.793  15.243 -0.1531 -0.0568 -0.1691
26300W        W41769   0.363  12.681  16.016 -0.0897 -0.0003  0.1816
26301W        W41770   6.385  13.342   0.946  0.0791 -0.6417  0.1674
26302W        W41771   4.664   8.917   0.932 -0.0664 -0.2202  0.2019
26303W        W41772   3.652  14.320   5.146  0.0878 -0.3097 -0.3125
26304W        W41773   6.590  17.160  14.361  0.0883 -0.1796  0.0393
26305W        W41774  11.106  18.172   0.934 -0.1474 -0.4077 -0.0688
26306W        W41775  17.497   5.021  12.240 -0.1994 -0.0578  0.0439
26307W        W41776   7.584   1.828  14.590  0.0136 -0.0414  0.2152
26308W        W41777   1.784  10.807   4.661  0.3262  0.2855 -0.3754
26309W        W41778   0.794   6.224   4.255  0.2282 -0.2108 -0.1760
26310W        W41779   0.895  15.969  11.970  0.1843  0.3459 -0.0427
26311W        W41780  16.283   4.138  14.702 -0.1380 -0.1736 -0.3681
26312W        W41781  17.449  15.271  16.016  0.3410 -0.0952 -0.1409
26313W        W41782   5.496   5.401   1.389  0.0966 -0.0723 -0.3062
26314W        W41783   6.244  17.624   1.518  0.1390  0.0847  0.1230
26315W        W41784   2.239  18.098  11.700  0.1054  0.0340 -0.0602
26316W        W41785  14.435   5.991  13.242  0.0212  0.1360 -0.5257
26317W        W41786  16.550  12.885  13.809  0.3739 -0.2254 -0.0698
26318W        W41787   7.167   6.211   1.999  0.1006  0.0834 -0.1536
26319W        W41788   7.170   1.259   0.890  0.1639 -0.3747 -0.1608
26320W        W41789  15.607   4.863   2.343 -0.4838  0.2855 -0.0423
26321W        W41790   2.186  12.271   4.899 -0.3105 -0.1163  0.1950
26322W        W41791   4.888   9.181   1.449 -0.0485 -0.4115  0.0094
26323W        W41792   7.109  13.590  15.029 -0.2786  0.3281 -0.1741
26324W        W41793  10.557  15.861   0.936 -0.0076 -0.1155 -0.1201
26325W        W41794   9.129  16.998  13.165 -0.1244 -0.0279 -0.0981
26326W        W41795  10.948   8.352   0.944 -0.1440  0.1259  0.2814
26327W        W41796  14.251  10.983   0.769 -0.3532  0.0039  0.0333
26328W        W41797   8.064   3.775   1.496 -0.0980  0.1671 -0.0521
26329W        W41798   6.163  12.409   1.259  0.1303  0.3065  0.1242
26330W        W41799  16.074   2.917  11.479  0.3095 -0.1559 -0.0907
26331W        W41800   3.568   7.706  15.074  0.1486  0.0738  0.1072
26332W        W41801   7.615  12.159   3.903  0.0728  0.0894 -0.1788
26333W        W41802  16.341   5.256  12.937 -0.2322 -0.0173  0.0422
26334W        W41803  11.234   6.196  15.073  0.0795  0.0075 -0.0586
26335W        W41804   1.883  14.400   2.222 -0.1361 -0.1677  0.2924
26336W        W41805   9.872  17.263   0.899  0.3278 -0.1282 -0.0135
26337W        W41806   6.087  16.109   9.954 -0.0734 -0.1526 -0.0789
26338W        W41807  16.059  11.578  13.022  0.2655 -0.0956  0.1386
26339W        W41808  15.779   3.522   4.054 -0.2589  0.0199  0.0215
26340W        W41809  14.199   6.123  15.956  0.2401 -0.1972 -0.1291
26341W        W41810  15.050   6.283  14.104 -0.0887  0.1816 -0.0799
26342W        W41811  15.408   9.980  16.035  0.0285  0.0671  0.0431
26343W        W41812  12.935   3.553  12.115  0.0981  0.0098 -0.0498
26344W        W41813  13.018   9.722   0.617 -0.1376  0.1597  0.1261
26345W        W41814  10.275  14.480  11.892  0.0843  0.0268  0.2736
26346W        W41815  16.176  12.499   4.247  0.2701 -0.0172 -0.1782
26347W        W41816   5.113  10.134  15.245 -0.1460 -0.3794 -0.0854
26348W        W41817   1.102   2.794  12.522 -0.1457 -0.2069 -0.1280
26349W        W41818  18.242   1.171  15.665  0.0647 -0.1945 -0.2085
26350W        W41819   3.716  18.249   1.504 -0.0043 -0.3949  0.2636
26351W        W41820  11.483  15.467  10.600 -0.1972 -0.0875  0.0143
26352W        W41821   3.316  15.021   3.340  0.0229 -0.1396  0.0720
26353W        W41822   2.063   0.965  10.938  0.4877  0.0630  0.3840
26354W        W41823   3.222   4.381  11.589  0.3969 -0.0408 -0.2570
26355W        W41824  12.588  11.886  12.007  0.0322  0.2538  0.1376
26356W        W41825   9.534   1.212   1.486  0.2868  0.0601 -0.0836
26357W        W41826  13.278  11.955   3.808  0.1816  0.0981  0.1650
26358W        W41827   9.258  15.390   2.873 -0.2734  0.0428  0.0804
26359W        W41828  10.391   7.047   1.801  0.2465 -0.3684 -0.2770
26360W        W41829  12.563   5.762  13.977 -0.0525  0.0154  0.1007
26361W        W41830   6.764  14.035   4.338 -0.1040 -0.0042 -0.0974
26362W        W41831  11.169  16.683  11.886  0.1638  0.0170 -0.3820
26363W        W41832   8.755  16.639   2.899 -0.0984  0.2092 -0.1796
26364W        W41833  12.956   0.590  14.678 -0.0021  0.2429  0.0156
26365W        W41834  14.835  13.027  14.247 -0.1438  0.0527  0.0227
26366W        W41835   3.060  14.559   3.093  0.0062 -0.1367 -0.2399
26367W        W41836  14.252  18.143  15.438 -0.0643 -0.1540 -0.1155
26368W        W41837   7.427  16.684   1.643 -0.1201  0.1720  0.1667
26369W        W41838   9.655   4.525   5.094 -0.0713 -0.0115  0.2932
26370W        W41839  13.772   7.081  13.989  0.1277 -0.2227 -0.2348
26371W        W41840   3.353   4.141  15.813  0.1605  0.1995 -0.2601
26372W        W41841  13.619   9.963  15.929 -0.0725 -0.1094 -0.1626
26373W        W41842  16.519   1.124  13.536  0.1170  0.1750  0.0009
26374W        W41843  15.805   6.036   1.072  0.1145  0.0354 -0.0450
26375W        W41844   6.614   5.011  15.828 -0.0752  0.1795  0.1562
26376W        W41845  17.862  14.069  11.884 -0.0110 -0.0297 -0.0845
26377W        W41846   4.036   2.651   3.864  0.2017  0.0946 -0.0969
26378W        W41847  17.849   8.592   0.659  0.0850  0.4222 -0.1481
26379W        W41848   2.726   4.377  11.528 -0.0567  0.5105 -0.0564
26380W        W41849   6.441   2.707   3.788  0.1572 -0.0366  0.0714
26381W        W41850  16.192  14.953  14.774  0.2495  0.0859 -0.0593
26382W        W41851   1.124   2.722  11.631 -0.1431  0.0346  0.1064
26383W        W41852   0.982   9.918   1.201  0.4582  0.2565  0.0628
26384W        W41853  12.282   9.411   2.471  0.1672  0.0432 -0.1204
26385W        W41854   7.782   5.418  14.537 -0.0170  0.1129 -0.0344
26386W        W41855  17.388   4.939  14.012  0.1392  0.1141 -0.2211
26387W        W41856   8.878   6.978  11.075  0.3512  0.0937  0.1066
26388W        W41857  11.289   6.128   5.096 -0.0584  0.0655  0.1978
26389W        W41858  12.777  13.523  12.732 -0.1024 -0.0043  0.1836
26390W        W41859  12.721  13.079  11.626  0.0607  0.1600  0.0813
26391W        W41860   5.717   4.927   4.225  0.0423 -0.3340 -0.2549
26392W        W41861  10.675  17.967  10.525  0.0978 -0.1131  0.3779
26393W        W41862  11.274   6.593   3.881 -0.0346  0.0412 -0.3547
26394W        W41863   2.768   7.972  13.491  0.1326  0.0308 -0.1560
26395W        W41864  13.611   0.241  12.866  0.0215 -0.0144  0.1564
26396W        W41865   5.507   6.922   2.957 -0.1494  0.0033 -0.0542
26397W        W41866  18.153  15.776   1.469  0.0105  0.0556 -0.0435
26398W        W41867  10.913   3.617  15.878 -0.0375  0.0155 -0.2438
26399W        W41868   2.510   4.145  15.744  0.1789 -0.0280  0.0645
26400W        W41869  15.139  14.239   4.239  0.0388  0.1553  0.1801
26401W        W41870   7.430  12.226  11.209  0.1530  0.1103  0.1735
26402W        W41871   6.358  16.418   4.845 -0.1148 -0.1709  0.4411
26403W        W41872   2.909  15.086   3.640  0.0483  0.1983 -0.2632
26404W        W41873   5.288  10.011  12.511  0.0539 -0.3647 -0.2300
26405W        W41874   3.844   2.031   4.982 -0.1603  0.0953  0.0913
26406W        W41875   0.298   6.121  15.742  0.1347  0.0603 -0.2843
26407W        W41876  15.348   0.317   3.618 -0.1286  0.0883 -0.0457
26408W        W41877   6.258   4.016  13.379 -0.0184  0.0664 -0.1025
26409W        W41878  15.669  15.667  11.947  0.0709  0.1456  0.2167
26410W        W41879   3.943   0.265  12.223  0.1716 -0.0674  0.0086
26411W        W41880   9.211  11.385   2.664  0.0600 -0.0579  0.1994
26412W        W41881  12.794   8.391   4.505 -0.0182  0.0518 -0.0175
26413W        W41882   4.760   2.737  13.274 -0.2053 -0.1654  0.0974
26414W        W41883  14.315   9.674   5.149 -0.1224 -0.0152 -0.1250
26415W        W41884   9.673   3.678  16.062 -0.0549 -0.2163  0.1463
26416W        W41885   2.481  18.247  13.907  0.2332 -0.0773 -0.2285
26417W        W41886   9.251   2.496  15.624  0.1354 -0.0136  0.4258
26418W        W41887   2.106   7.366   2.532  0.0698  0.0012 -0.2796
26419W        W41888  14.445  11.388  14.032 -0.1142  0.1034  0.1407
26420W        W41889   2.547  13.839   3.192 -0.0594  0.0443  0.0052
26421W        W41890   7.146   0.809   5.136  0.0247 -0.0464 -0.0895
26422W        W41891   7.854   7.209   0.955 -0.1221  0.0797 -0.3108
26423W        W41892  14.732   2.259  13.349 -0.1376  0.4180 -0.2219
26424W        W41893  12.812  12.557  14.820 -0.2319  0.0832 -0.1923
26425W        W41894   2.664   7.185   3.685 -0.0798 -0.0959 -0.2985
26426W        W41895  12.114  18.169  12.972  0.1067  0.2520  0.2220
26427W        W41896  17.408  11.841   3.264 -0.0876  0.0338  0.1369
26428W        W41897   8.619  14.372   6.177 -0.1549  0.2499 -0.0044
26429W        W41898   9.914   3.060   0.501  0.0822  0.0038  0.2332
26430W        W41899   5.984  14.679  11.448 -0.0314 -0.0671  0.0486
26431W        W41900   5.751   7.700  14.450 -0.1581 -0.1252 -0.0070
26432W        W41901   8.107  11.195  13.447 -0.2845 -0.1262 -0.2669
26433W        W41902  10.558  11.243   0.037 -0.2133 -0.2978 -0.1350
26434W        W41903  13.732   2.659   0.434  0.1972  0.0243  0.1978
26435W        W41904   0.314   4.440   0.973  0.2572 -0.0527 -0.4202
26436W        W41905  11.018   8.900  14.892 -0.0144  0.2778  0.3874
26437W        W41906   6.041   1.079  14.631 -0.2461  0.0991 -0.1558
26438W        W41907   1.315   3.514  14.636 -0.1003  0.0249 -0.0029
26439W        W41908   1.309   9.845   0.854 -0.0720  0.3300  0.2427
26440W        W41909   9.532  13.041   5.167  0.3648  0.0101  0.3788
26441W        W41910  17.921   4.495  15.288 -0.1844  0.2982 -0.1750
26442W        W41911   5.446   5.811  11.446 -0.0074  0.4351 -0.0213
26443W        W41912   7.077   7.600  15.169  0.1439  0.1730 -0.1085
26444W        W41913   7.700  12.777   5.172  0.1262  0.0188 -0.4072
26445W        W41914   8.306  12.345   0.101 -0.1585 -0.1115 -0.2089
26446W        W41915   7.496  10.090  14.474  0.0315 -0.1861 -0.0351
26447W        W41916   3.858   4.149   0.284  0.1208 -0.0510 -0.1157
26448W        W41917   4.981   5.446  10.903 -0.0330  0.2406  0.0467
26449W        W41918  17.981   4.393  15.802 -0.1488 -0.2592 -0.0465
26450W        W41919  16.173  14.676   6.181 -0.0962 -0.0099 -0.1978
26451W        W41920  15.225  12.731   1.052  0.0511  0.0946 -0.2704
26452W        W41921   1.735   2.374   1.909  0.1828  0.3439  0.1002
26453W        W41922   2.539   1.261  15.542  0.3675 -0.0846  0.0899
26454W        W41923  15.186  11.832   0.041 -0.3800 -0.0161  0.0208
26455W        W41924   3.520   0.247  12.563 -0.1245 -0.1990 -0.1405
26456W        W41925  18.140  17.272   6.364  0.2195  0.1707 -0.1147
26457W        W41926  13.642  10.922  13.340 -0.0205 -0.0001 -0.2087
26458W        W41927  13.124   1.802  13.570  0.0138  0.1898  0.0196
26459W        W41928   7.843  16.474   1.141  0.0997 -0.2615 -0.1788
26460W        W41929  13.762  11.230   0.308 -0.0471 -0.0691 -0.1177
26461W        W41930  16.976   1.032   0.798  0.0321  0.1641 -0.0377
26462W        W41931  17.522   0.823   2.456 -0.0714  0.0696  0.3411
26463W        W41932   1.860  12.064   2.982  0.1184  0.3054  0.0464
26464W        W41933   4.959   7.928   0.028  0.0495 -0.1170 -0.1565
26465W        W41934   0.641  11.972  13.409 -0.0497 -0.1045 -0.1366
26466W        W41935   3.553  13.600  14.136 -0.1269 -0.0052 -0.2939
26467W        W41936  16.565  15.273  11.594 -0.2385  0.1871  0.2789
26468W        W41937   1.007   9.888   1.732 -0.0162  0.0682  0.1262
26469W        W41938   5.671   4.385   3.983  0.1055  0.1480 -0.2580
26470W        W41939  14.949   4.668  15.321 -0.0366 -0.3039 -0.2682
26471W        W41940   1.528  16.499   5.492 -0.0532  0.3210  0.1913
26472W        W41941  16.551   1.680   0.032 -0.3389 -0.2135  0.1297
26473W        W41942   2.874   5.561   3.207 -0.0141  0.0590  0.4969
26474W        W41943  14.186  13.704  13.925 -0.4152 -0.0425  0.1230
26475W        W41944   7.021   4.258  15.387  0.0319 -0.0021  0.1058
26476W        W41945  13.832  14.693   5.118 -0.3807  0.0713  0.0284
26477W        W41946   5.549   0.024   5.853 -0.1938 -0.1046  0.1806
26478W        W41947   8.095  14.495  14.396  0.1842  0.2202  0.1540
26479W        W41948   5.540  14.888   0.067  0.2415  0.2340 -0.2786
26480W        W41949   6.271  13.989   4.072 -0.2693 -0.1623  0.1877
26481W        W41950  12.139   0.353   0.131  0.2873  0.1966  0.0517
26482W        W41951   8.835  15.785  11.303  0.3908 -0.2960 -0.0545
26483W        W41952   0.031   7.906   1.159  0.0139  0.2169  0.2626
26484W        W41953  12.381  15.780  15.773  0.0755 -0.4336  0.0469
26485W        W41954  14.960  10.035   0.097  0.0665 -0.0807  0.3033
26486W        W41955  10.733   6.722   4.028  0.0091  0.3316  0.1639
26487W        W41956   1.011   1.076   5.487  0.0050 -0.1021 -0.0121
26488W        W41957   0.441  15.765  11.717  0.0610  0.2145 -0.0973
26489W        W41958  16.156   4.607   3.001 -0.4406  0.1529  0.0294
26490W        W41959  17.363  10.284  15.813  0.0294 -0.1618 -0.2898
26491W        W41960  14.371  12.823   9.812 -0.1184 -0.2645 -0.2985
26492W        W41961  10.916  13.213  12.133 -0.2062  0.1099 -0.2464
26493W        W41962  10.093   4.125  13.268  0.3740  0.4700  0.4095
26494W        W41963   3.119   2.208   5.532 -0.1600 -0.0363  0.0857
26495W        W41964   0.536   4.889   0.916  0.0353  0.2544  0.3042
26496W        W41965   4.337  18.061   3.331 -0.0790 -0.2050 -0.0985
26497W        W41966  16.130   9.621   5.069 -0.1433 -0.0617 -0.0995
26498W        W41967   0.241  14.917  12.327 -0.0682 -0.0363  0.0864
26499W        W41968  13.752  11.622   1.267 -0.0644 -0.0405 -0.1390
26500W        W41969  12.094  13.103   1.479  0.0643 -0.0049  0.1769
26501W        W41970  10.851  12.872   3.375 -0.3277 -0.3259  0.0805
26502W        W41971  11.424   1.261  15.394  0.0396  0.0741  0.2277
26503W        W41972   3.205  12.888   0.436 -0.1160 -0.0818  0.1291
26504W        W41973   0.682   4.270  11.578  0.0855  0.0740  0.1312
26505W        W41974   4.203   1.429   2.643 -0.0834  0.1093 -0.0850
26506W        W41975  10.278   6.404  10.137 -0.1091 -0.1792  0.2324
26507W        W41976  15.131   5.768  14.395  0.3540 -0.2695 -0.0005
26508W        W41977  11.346   7.739  12.558 -0.3030 -0.1215  0.3003
26509W        W41978   4.803   6.718  11.279  0.2857 -0.1095  0.1810
26510W        W41979   8.041   9.813   0.126 -0.0873 -0.2459 -0.0557
26511W        W41980   0.271   4.042  11.786  0.1650 -0.0292  0.3277
26512W        W41981   4.267  15.731   2.763 -0.0099  0.2019  0.1905
26513W        W41982  12.491   8.727   4.314  0.1500  0.1273  0.3096
26514W        W41983  10.511   5.479   5.325 -0.0006  0.0729  0.1447
26515W        W41984  17.228   4.023  10.834  0.1544  0.2231  0.0333
26516W        W41985   0.711   5.362  11.149  0.1207  0.0732 -0.1217
26517W        W41986  10.604   2.687   1.984  0.2586 -0.0709 -0.1893
26518W        W41987   3.324   4.375  15.143 -0.1721  0.0976 -0.0619
26519W        W41988   2.959   7.016  11.864  0.3190  0.0841 -0.3981
26520W        W41989  12.915   8.730  12.064  0.2270  0.0594  0.2552
26521W        W41990   7.702   9.075  15.150 -0.0550  0.0100  0.1086
26522W        W41991   8.455  15.834  14.851 -0.1296 -0.0814 -0.0032
26523W        W41992  11.391   3.144   5.103  0.0239 -0.0599  0.1738
26524W        W41993   2.030  15.832  14.812  0.1585 -0.2791 -0.4213
26525W        W41994   8.660  15.316  15.711  0.0797 -0.0136  0.0751
26526W        W41995   4.557  12.944  14.075  0.0754  0.1285 -0.2249
26527W        W41996  10.516   8.409   9.691 -0.1482  0.2629 -0.1540
26528W        W41997  11.228  13.273   5.182 -0.1886 -0.0702  0.2505
26529W        W41998   4.174  17.418   0.525 -0.0810  0.2184 -0.2708
26530W        W41999  13.354   6.938  14.688 -0.0933  0.0485  0.0904
26531W        W42000   5.409  11.228   5.303 -0.0688  0.0120 -0.2484
26532W        W42001   6.147   3.711  10.686 -0.1374  0.1202  0.2178
26533W        W42002  18.209  13.004  15.703 -0.2662 -0.0561 -0.2996
26534W        W42003  12.903  12.131   5.229 -0.0213  0.2783  0.2515
26535W        W42004  12.626   1.195   0.030 -0.0051  0.1473  0.0457
26536W        W42005  17.926   1.767   3.754 -0.1809  0.0285 -0.1946
26537W        W42006   7.251  15.695   0.241  0.2584  0.2401 -0.1053
26538W        W42007  14.356  12.213   3.928 -0.0189 -0.1578  0.1666
26539W        W42008  17.923   6.772  16.111  0.1513 -0.1626  0.0574
26540W        W42009   9.420  12.555  12.215 -0.0833  0.4349  0.0151
26541W        W42010   2.394   8.092  12.950 -0.1207 -0.1555  0.1499
26542W        W42011  15.520   7.742  12.528 -0.0742  0.2297  0.0416
26543W        W42012   2.917  12.589   5.552  0.1067  0.2371 -0.0709
26544W        W42013   9.630   1.358   4.427 -0.3207  0.0399  0.0558
26545W        W42014  10.896  12.895   5.247 -0.0502  0.1312  0.2647
26546W        W42015  10.605  17.627   1.610  0.3290  0.0849 -0.0121
26547W        W42016   5.506   1.617   4.015  0.0601 -0.0581 -0.1236
26548W        W42017  15.902   4.655  15.560 -0.0986  0.1910  0.1076
26549W        W42018   2.946  10.541   4.138 -0.3337 -0.2522 -0.1224
26550W        W42019  10.672   8.039   1.683 -0.0155  0.1209 -0.0324
26551W        W42020  14.328   8.156   1.779  0.0851 -0.0215 -0.1025
26552W        W42021  18.187  13.733   2.461  0.0451 -0.1292 -0.1089
26553W        W42022   4.853   4.114   3.745 -0.0910  0.0811 -0.3175
26554W        W42023   0.561  12.736   0.804  0.2325  0.3363 -0.5869
26555W        W42024   5.591  10.444  11.026 -0.5118  0.2653  0.0894
26556W        W42025   6.508  11.178  15.497 -0.1414  0.0724 -0.3646
26557W        W42026  12.029   4.191   2.063  0.4408 -0.0736 -0.3433
26558W        W42027  14.934   4.044   2.624 -0.0801 -0.1113 -0.1584
26559W        W42028  11.205  13.776   0.091 -0.0487  0.0057 -0.0509
26560W        W42029   4.953   0.794   2.817 -0.1810 -0.1459  0.1604
26561W        W42030   4.977   4.580  14.312  0.3366 -0.0016 -0.2842
26562W        W42031   7.731   6.461   2.028  0.1280 -0.3414 -0.0586
26563W        W42032  12.962  13.085   3.096  0.2549  0.4883 -0.1364
26564W        W42033   5.704  15.163   3.649 -0.2701 -0.0276 -0.2560
26565W        W42034  14.630   2.787   2.344 -0.3336  0.1809 -0.2161
26566W        W42035  10.797   4.562  14.901 -0.0284  0.3406 -0.0919
26567W        W42036   5.017  13.799   4.156 -0.1686 -0.3345  0.3203
26568W        W42037  15.555  14.508  14.302 -0.0637 -0.2327  0.3820
26569W        W42038   2.510   2.930  12.544  0.0540  0.1215  0.1802
26570W        W42039  12.567  11.225  12.384 -0.0752  0.1657 -0.4061
26571W        W42040   5.089   5.847  14.013 -0.0891  0.0019  0.0680
26572W        W42041   0.730   0.942  15.363  0.0755 -0.0858  0.2090
26573W        W42042  14.204   4.716   0.696  0.1908 -0.0068 -0.2834
26574W        W42043   6.441   1.689  11.914  0.1434 -0.0789  0.2604
26575W        W42044   5.759  12.804  14.279  0.0562 -0.1833  0.1973
26576W        W42045  11.148  15.111   2.880 -0.0180  0.5158  0.0662
26577W        W42046   2.332  18.235   3.260  0.0714  0.1665 -0.0144
26578W        W42047  10.701   8.403   2.027 -0.0229 -0.4083  0.2069
26579W        W42048  13.408   7.474  13.714  0.2699 -0.0553  0.1792
26580W        W42049  18.117   3.140   0.062 -0.2502  0.0766  0.2383
26581W        W42050  14.152  18.000  13.221 -0.3915 -0.0692 -0.0982
26582W        W42051   6.473  10.491   3.344  0.1153  0.1769  0.0355
26583W        W42052  12.084  10.899   1.022 -0.0230 -0.0587  0.0894
26584W        W42053   5.077   3.342  11.566  0.2630 -0.0653  0.1787
26585W        W42054   5.559   8.558  14.676  0.1075  0.1519 -0.0286
26586W        W42055  15.466  12.767  15.310  0.0519  0.1287 -0.2080
26587W        W42056   8.836   7.454   3.242  0.1953 -0.1157 -0.1986
26588W        W42057   1.337   8.030   0.651 -0.1019  0.2287 -0.0393
26589W        W42058   0.393   4.034  15.106  0.1546 -0.3893  0.3311
26590W        W42059   7.419   3.754  12.506 -0.0686 -0.1547 -0.0410
26591W        W42060   5.068  12.509  13.322 -0.2106 -0.2863 -0.1874
26592W        W42061  15.720  12.303  12.754  0.0640 -0.1541  0.1265
26593W        W42062   5.935   7.214   2.355 -0.0756 -0.1150 -0.2618
26594W        W42063   8.215   9.401   2.209  0.0902 -0.1788  0.2280
26595W        W42064  10.994   8.842  13.842 -0.0786 -0.1720 -0.0166
26596W        W42065   0.895   5.175   0.672 -0.1880 -0.3542  0.1191
26597W        W42066  13.256   1.042  13.599  0.0663 -0.0846 -0.0759
26598W        W42067  16.103  17.833   5.720 -0.2519 -0.3063 -0.3366
26599W        W42068   9.321   1.891   0.909  0.0288  0.0199  0.0427
26600W        W42069  14.906   0.379  16.079 -0.1268 -0.0406  0.0583
26601W        W42070  14.124  17.451   2.521 -0.0348  0.3120 -0.1116
26602W        W42071   7.709   1.267  11.484  0.1827  0.0813 -0.1993
26603W        W42072   1.180   2.794  15.372 -0.0843  0.2678 -0.2217
26604W        W42073   5.740  15.659   5.808  0.4242  0.1502  0.2031
26605W        W42074  16.938   5.989   5.426  0.1299  0.1971  0.0223
26606W        W42075   3.075   0.495   0.949 -0.1863  0.1877 -0.0010
26607W        W42076   9.260   8.724   5.571 -0.3780 -0.2593  0.1327
26608W        W42077  10.475   2.189  11.703  0.0410  0.0349  0.0699
26609W        W42078  15.118  10.024   1.874  0.0443  0.3362  0.0338
26610W        W42079   2.804   3.273  12.323  0.1854 -0.0088  0.2679
26611W        W42080   9.587   2.940  11.501  0.1470  0.0736 -0.0113
26612W        W42081  12.497   2.987   0.886 -0.1416 -0.0251  0.0346
26613W        W42082  11.284  18.005  14.926 -0.0879  0.0541  0.1593
26614W        W42083   7.654  15.343   4.986  0.1165 -0.0311  0.1738
26615W        W42084   6.671   4.468  15.687 -0.0105  0.0567  0.3401
26616W        W42085  17.904  14.186  11.238 -0.1595  0.1062  0.0932
26617W        W42086  15.433   1.249  14.163  0.0205 -0.1348  0.1715
26618W        W42087  13.096  17.290   2.693  0.0897  0.4185  0.3515
26619W        W42088   7.105   5.488   0.363 -0.2202 -0.0267 -0.1348
26620W        W42089   0.127  16.660   1.750 -0.2459  0.2506  0.0161
26621W        W42090  11.427   8.187  12.269 -0.2289  0.4044 -0.0609
26622W        W42091  12.999   7.679   3.272  0.3059 -0.0071 -0.1359
26623W        W42092   9.135  18.282   9.940 -0.0114  0.0444  0.0143
26624W        W42093   6.253   6.457   0.376 -0.1440  0.0986  0.1724
26625W        W42094  17.907   0.137  15.129  0.2637  0.3227 -0.0137
26626W        W42095   6.420  16.685  10.885 -0.2153 -0.0219  0.1650
26627W        W42096   8.960   4.431   4.364 -0.3152  0.3232  0.0664
26628W        W42097   1.899  16.637   1.655  0.0170  0.1221 -0.1426
26629W        W42098   8.113  14.092  10.995  0.1089 -0.0757  0.1058
26630W        W42099   0.261  10.317   4.099  0.1843  0.2219 -0.0057
26631W        W42100   6.565   4.791  14.942  0.0357  0.0833  0.0683
26632W        W42101   6.477  11.519   2.487  0.0968  0.0425  0.0044
26633W        W42102  14.670  10.213  11.236  0.3503  0.0588  0.1370
26634W        W42103   0.470   5.161  11.604 -0.2433  0.2878  0.0107
26635W        W42104  16.091   5.439  11.465 -0.0245 -0.0009  0.0785
26636W        W42105  18.250  11.022   2.270  0.1619 -0.0438 -0.0303
26637W        W42106  13.334   2.363   4.612  0.2346  0.2356  0.0571
26638W        W42107   9.148  10.796   2.771  0.1264  0.0145  0.5682
26639W        W42108  17.605   5.623  12.860  0.0203  0.1583  0.2582
26640W        W42109  17.466  16.853   2.697  0.3045  0.1047 -0.1003
26641W        W42110   4.913  10.542   5.080  0.2760 -0.4163  0.2110
26642W        W42111  16.039   0.423  12.808  0.0326  0.1464  0.0335
26643W        W42112  16.202  13.515   1.898  0.2060 -0.1674 -0.1977
26644W        W42113   7.942   1.607   5.519 -0.0653  0.1032 -0.2072
26645W        W42114   3.292  16.851  15.184  0.1735 -0.1445  0.3663
26646W        W42115  10.251  12.478   1.655 -0.2567 -0.3980  0.1266
26647W        W42116  11.705   0.424  13.841 -0.1190 -0.1771 -0.2152
26648W        W42117   1.153  14.227  12.998 -0.0380 -0.3021 -0.0354
26649W        W42118   1.378  15.826  13.487 -0.0452  0.0520  0.1021
26650W        W42119   3.373  11.789   4.148  0.1978  0.2280 -0.0182
26651W        W42120   9.847   7.788  10.677  0.0045  0.4437  0.1195
26652W        W42121   7.154  15.439  14.995  0.1916  0.0244  0.1085
26653W        W42122   2.992  15.594  11.773 -0.0422  0.2186  0.1705
26654W        W42123  13.010   8.380   4.958  0.2383  0.1490 -0.1158
26655W        W42124   6.922  10.353  15.836  0.0845 -0.0008  0.0827
26656W        W42125   7.859  11.704  12.625  0.0363 -0.0553 -0.0360
26657W        W42126   5.006   6.848   2.785 -0.0722 -0.1689 -0.0014
26658W        W42127   9.529   5.349  12.409 -0.0530 -0.0113 -0.1427
26659W        W42128   7.321  14.115   1.776 -0.2384  0.1301  0.0273
26660W        W42129  11.828  13.684   0.492 -0.1310  0.1775  0.2250
26661W        W42130  11.428   9.386   3.516  0.2241  0.1892 -0.1104
26662W        W42131   5.924   2.389   2.005 -0.1727 -0.0157 -0.2149
26663W        W42132   7.442  13.112  11.211  0.2446 -0.1188  0.2388
26664W        W42133  13.025  14.289   1.944  0.2790 -0.3939  0.1770
26665W        W42134   1.143  12.358   3.301 -0.1077 -0.0238 -0.4511
26666W        W42135   0.639   1.586   1.963  0.0989  0.1607 -0.3446
26667W        W42136   9.053   8.197   3.319  0.0877 -0.0517  0.1378
26668W        W42137   4.115  16.000   0.840  0.3299  0.3064  0.1183
26669W        W42138  15.462  10.404  14.927 -0.1775 -0.1742 -0.1968
26670W        W42139   4.462   1.588   0.017  0.0490  0.0065  0.1852
26671W        W42140  16.515  12.404  13.949 -0.1781 -0.0690 -0.2331
26672W        W42141   8.873  12.651  11.854  0.1845 -0.2290  0.0479
26673W        W42142   2.049   3.602  12.889 -0.2109  0.1013 -0.0675
26674W        W42143   8.350  17.826   5.799 -0.1913  0.0829 -0.1697
26675W        W42144   3.719  17.021  12.165 -0.0750 -0.1903  0.1476
26676W        W42145  10.112   5.743   5.164 -0.0154 -0.1157  0.1819
26677W        W42146  17.678   5.608  13.377  0.1836  0.1574 -0.0751
26678W        W42147   7.601  12.542  15.467  0.4314 -0.0969  0.3580
26679W        W42148   8.070  16.049  11.740  0.1855 -0.0948 -0.0029
26680W        W42149  15.017  17.848  13.099 -0.1041  0.3649 -0.1117
26681W        W42150  18.105   3.921  10.498  0.1833 -0.2454 -0.1549
26682W        W42151   7.294   4.139  10.592  0.4220  0.2172  0.0928
26683W        W42152   9.147   8.128  14.182 -0.0269  0.1581 -0.0922
26684W        W42153  16.877  14.715   4.072 -0.0938 -0.0155 -0.2861
26685W        W42154   6.841   8.667   3.501 -0.2177 -0.0868 -0.3653
26686W        W42155   4.420   1.630  13.038  0.1253  0.0406  0.0775
26687W        W42156  15.595  13.270  12.803  0.0816  0.0962  0.0040
26688W        W42157   3.185  17.117  10.497  0.2616  0.3280 -0.1495
26689W        W42158  12.767   1.190  12.138  0.1328 -0.0057 -0.2375
26690W        W42159   1.031   3.163  11.968 -0.0287 -0.0812 -0.0586
26691W        W42160   7.827   1.693   9.900 -0.0084 -0.0007  0.3043
26692W        W42161   5.676   4.384  11.129 -0.3405 -0.1778  0.0742
26693W        W42162   5.282  12.613  11.524 -0.1396 -0.0803 -0.0485
26694W        W42163  14.676  11.385  12.615 -0.4522  0.1378 -0.1557
26695W        W42164  16.948  17.994  11.727  0.2705  0.0487  0.1457
26696W        W42165   1.273   0.242   4.927  0.3216 -0.2754  0.1967
26697W        W42166   7.192  14.049   5.413  0.1013 -0.0729 -0.2198
26698W        W42167   8.628   2.394  13.502 -0.2944  0.2017 -0.0017
26699W        W42168   1.969  11.380  13.267 -0.0520 -0.1563 -0.0812
26700W        W42169   4.668   1.208   2.393  0.1957 -0.1674  0.1740
26701W        W42170   1.951  13.090   1.366 -0.3881 -0.3040  0.3534
26702W        W42171   1.733   6.441   0.604 -0.1390 -0.2925 -0.1341
26703W        W42172  13.390   7.675   0.004  0.0962 -0.0186  0.2376
26704W        W42173  15.734  16.824  13.996  0.1407 -0.1225 -0.0822
26705W        W42174  17.655  13.790  16.011 -0.2937 -0.0826 -0.2413
26706W        W42175  10.504  16.600   1.534 -0.1844  0.2577 -0.3359
26707W        W42176   1.431  17.997   4.788  0.2076 -0.0191  0.0233
26708W        W42177   6.381  16.222   3.984  0.0703 -0.1404  0.3038
26709W        W42178  11.793   7.402  10.042 -0.0283  0.2544  0.2511
26710W        W42179  14.699   3.743   1.529  0.0766  0.0484  0.0035
26711W        W42180  14.560   7.151  12.942  0.0106 -0.1749 -0.1716
26712W        W42181   5.483   3.455   3.060  0.2970 -0.1186  0.1517
26713W        W42182   4.151   1.555  12.277  0.0427  0.0036 -0.1298
26714W        W42183  15.811  14.325   2.863 -0.2428 -0.0277  0.0819
26715W        W42184   1.086   3.117  14.415 -0.1696  0.2144  0.0442
26716W        W42185   8.592   9.504  14.215 -0.0530  0.2585 -0.0500
26717W        W42186   2.029  17.058  14.197 -0.0069  0.2287 -0.1060
26718W        W42187   2.077  14.690   3.253 -0.0582  0.2641  0.2435
26719W        W42188  17.222  15.525  14.245  0.0522  0.0602  0.0882
26720W        W42189  18.094  10.521  14.880 -0.1893  0.1132 -0.3750
26721W        W42190  17.499   5.073   2.079 -0.1540 -0.0852  0.1450
26722W        W42191   8.589  13.097   1.175  0.1760 -0.0124 -0.0741
26723W        W42192   8.339   6.354  12.932  0.1112 -0.0270 -0.0607
26724W        W42193   9.997  11.708  11.857  0.3025  0.1274  0.0629
26725W        W42194   3.302  13.288  11.432 -0.0026 -0.0508  0.0130
26726W        W42195   6.123  16.792  15.382  0.1047 -0.0686  0.1093
26727W        W42196   4.547   2.633   5.211 -0.1282 -0.1190 -0.1294
26728W        W42197   7.905  18.135  11.306 -0.0417  0.1570  0.0220
26729W        W42198   0.687   7.701   0.940 -0.0363 -0.0797  0.1125
26730W        W42199  15.801   3.262  15.348  0.0863 -0.0737  0.1719
26731W        W42200  11.081   9.407   0.881 -0.1495 -0.0941 -0.0791
26732W        W42201   6.992   2.215   0.996  0.0472  0.1841  0.1254
26733W        W42202   4.657   5.859  11.298 -0.0181  0.4006 -0.0478
26734W        W42203  16.424  16.112  13.686  0.1868 -0.1662 -0.3587
26735W        W42204  16.581  10.276   3.304  0.2372  0.2145 -0.1518
26736W        W42205   6.853  11.269  12.344 -0.2051  0.2045 -0.0023
26737W        W42206   2.670   5.818   4.956 -0.1931 -0.1690  0.3928
26738W        W42207  15.003  12.539  15.418 -0.1262 -0.0566 -0.1094
26739W        W42208   0.070   9.225  13.447  0.3255  0.1527  0.0945
26740W        W42209   7.115   5.261   3.453 -0.0931 -0.0258  0.3712
26741W        W42210   9.806  11.953   2.338  0.1710  0.2104 -0.0082
26742W        W42211   7.012  11.630   1.123  0.2045  0.2541  0.3116
26743W        W42212  11.986  15.331   0.688  0.1568  0.1784  0.1047
26744W        W42213  17.078  10.890  11.244  0.0510  0.1262 -0.1597
26745W        W42214  13.320  10.717  11.769 -0.0179 -0.2633  0.1996
26746W        W42215  12.649   7.472  14.840  0.2625 -0.4027  0.0541
26747W        W42216   6.909  17.293  15.965 -0.2442  0.0262 -0.0512
26748W        W42217   1.498   3.767   3.660  0.0703  0.2285 -0.1571
26749W        W42218   5.055   1.214   3.271 -0.0334  0.1483 -0.0822
26750W        W42219   6.791   0.726   2.065  0.1051  0.0913  0.4071
26751W        W42220  12.399  10.967  11.858  0.3109 -0.1969 -0.3124
26752W        W42221   0.721  12.290   0.718 -0.2712  0.2156 -0.2829
26753W        W42222  12.244   7.494  12.738  0.0257 -0.0148 -0.1008
26754W        W42223   5.338   0.185  12.407 -0.0994  0.0184  0.1896
26755W        W42224  14.243  16.260   1.076  0.1812  0.2090  0.2390
26756W        W42225   1.194  15.451  12.358 -0.0447  0.1678 -0.0415
26757W        W42226  17.840  17.817   4.980 -0.2003 -0.0738 -0.0032
26758W        W42227   6.138  10.350   3.811 -0.2996 -0.0127  0.3599
26759W        W42228   6.692   9.584  12.318 -0.0801  0.0244 -0.1258
26760W        W42229  17.456   5.120  14.518  0.1249  0.1395  0.0219
26761W        W42230  14.319   7.002  12.321  0.0141  0.2155  0.2599
26762W        W42231  15.522  14.452   0.843  0.3731 -0.3295  0.0323
26763W        W42232   4.694  15.790   5.345  0.1911 -0.1324  0.3423
26764W        W42233  15.579  13.047  11.984 -0.0049 -0.1129 -0.1556
26765W        W42234  12.216   0.043   4.007  0.0857  0.1497 -0.0993
26766W        W42235   6.907  14.243   1.944  0.3682 -0.1371 -0.1055
26767W        W42236   8.499   3.124  12.498  0.0487 -0.1644 -0.2540
26768W        W42237   8.546  14.647  14.120  0.2858  0.0930 -0.2046
26769W        W42238  13.775   7.544  10.605  0.0199 -0.0069  0.1047
26770W        W42239  13.520  17.457   0.839 -0.0369  0.0479  0.0638
26771W        W42240   1.588   1.691   0.694  0.0071 -0.1918  0.4081
26772W        W42241  14.721   1.705  13.349  0.2393 -0.0022  0.0022
26773W        W42242   0.366   3.780   3.511 -0.0604  0.4305 -0.0138
26774W        W42243  12.904   9.943   5.861 -0.0972 -0.0692 -0.1770
26775W        W42244   4.092  16.228  12.665 -0.0836 -0.1130 -0.0578
26776W        W42245   7.024   7.857  11.386  0.0232  0.0627  0.0714
26777W        W42246  11.859   4.642   4.098 -0.1276  0.2606 -0.1633
26778W        W42247  17.588  12.388  12.516  0.0184 -0.0207 -0.1845
26779W        W42248  16.117   0.332  13.300  0.1299 -0.1113 -0.2559
26780W        W42249   7.789  16.435  10.101 -0.0164  0.0432  0.2647
26781W        W42250   5.686  11.097  12.781 -0.0348 -0.0980 -0.0475
26782W        W42251   1.071   6.431   1.338 -0.0626  0.1015  0.2510
26783W        W42252  13.874   8.905  14.959 -0.0675  0.0900  0.4372
26784W        W42253  12.831   6.141  15.036  0.1449  0.2085 -0.0337
26785W        W42254   0.084  14.714   3.216  0.1031  0.1743  0.0221
26786W        W42255  10.554  10.195  12.729  0.3008 -0.1275 -0.3331
26787W        W42256  13.090   4.488  13.699  0.1213 -0.2995  0.1168
26788W        W42257   8.571  10.045   3.752 -0.2007 -0.0960 -0.1741
26789W        W42258   8.948   9.756  10.683 -0.0586 -0.2843  0.4975
26790W        W42259  17.769   1.620   5.034 -0.0540  0.1661  0.3342
26791W        W42260  14.911  17.768  15.137  0.0332 -0.2726 -0.0415
26792W        W42261   7.459  14.544   5.503 -0.0423  0.0437  0.2213
26793W        W42262   2.285   1.561  13.898  0.4822 -0.0783 -0.0194
26794W        W42263   1.096  18.228   1.990  0.1470 -0.1081  0.0959
26795W        W42264   6.073   6.539  11.388 -0.2281  0.0322 -0.1112
26796W        W42265   3.968  11.913  14.844 -0.1613  0.0764 -0.0275
26797W        W42266  13.506   3.562   4.236  0.1692 -0.0645  0.0009
26798W        W42267  10.160   9.555  14.528 -0.5775  0.0704  0.0145
26799W        W42268   1.321   7.589  15.625 -0.0471  0.0860  0.0819
26800W        W42269   6.171  14.097   2.323 -0.1331 -0.1121  0.0170
26801W        W42270   2.989  12.810  15.149 -0.0983  0.1834 -0.5024
26802W        W42271   3.139   5.833   0.317 -0.0142 -0.0444 -0.0051
26803W        W42272  15.967   3.760   3.212  0.0729  0.0288 -0.0006
26804W        W42273  17.650  12.537   5.314  0.3424  0.6578  0.1511
26805W        W42274  10.983  10.262   5.083 -0.2380 -0.0633  0.1428
26806W        W42275   7.948  17.677  13.764 -0.2350 -0.2998 -0.1836
26807W        W42276   3.767   9.759  16.012  0.2328 -0.2884 -0.2146
26808W        W42277  10.012  11.438  12.329 -0.2209  0.3167 -0.0930
26809W        W42278   7.996   8.334  12.032  0.0664  0.2003 -0.2920
26810W        W42279  13.556  15.181   1.035  0.0520 -0.2202  0.0634
26811W        W42280   7.558  15.152  14.952  0.0779  0.0729  0.3552
26812W        W42281   4.929   5.144   9.895  0.2252 -0.1628 -0.0063
26813W        W42282  12.135   5.609  14.187  0.0399  0.0203 -0.0510
26814W        W42283  11.171  12.392   3.742 -0.0439 -0.2865 -0.0642
26815W        W42284   3.050   4.290  11.133  0.1126 -0.1116 -0.4219
26816W        W42285  17.909  11.803   2.089 -0.0151  0.3423 -0.2164
26817W        W42286   9.390  17.348  15.092 -0.1019  0.2168  0.2048
26818W        W42287  15.861  10.084   5.196  0.1926  0.4715 -0.0874
26819W        W42288   8.312   3.268   2.287 -0.1338 -0.1249 -0.1471
26820W        W42289   0.492  16.159  15.951  0.3903  0.1478  0.3100
26821W        W42290   1.797  17.105  13.318 -0.0252 -0.1831 -0.0176
26822W        W42291   3.280   2.172   1.356  0.0023 -0.1847 -0.3860
26823W        W42292  14.422   4.516   1.335  0.0130 -0.2364  0.3569
26824W        W42293   3.251   0.060   4.873 -0.3706 -0.0936  0.5325
26825W        W42294  15.626  12.725  12.354  0.1002 -0.1920 -0.3726
26826W        W42295   5.639   0.197   3.441  0.0590  0.0487  0.2431
26827W        W42296  15.258  10.979   0.617  0.0753 -0.1381 -0.3232
26828W        W42297  15.583  11.293  12.301 -0.1817 -0.1810 -0.0107
26829W        W42298   0.870   4.940  14.350  0.2985  0.1540  0.5279
26830W        W42299  14.897   1.040   3.056  0.1994  0.0781  0.0625
26831W        W42300   0.565  12.025   4.581 -0.2113 -0.0063  0.0841
26832W        W42301  11.551   4.117  12.346  0.1923 -0.2184  0.2613
26833W        W42302  11.827   7.653  13.522 -0.0004 -0.1733 -0.1532
26834W        W42303   0.019  17.680   0.366 -0.1585 -0.2841 -0.0539
26835W        W42304   7.884   1.381  14.199 -0.0115  0.1486 -0.0205
26836W        W42305   9.506  15.757   2.101  0.2209  0.1183 -0.0779
26837W        W42306  17.255  16.269   6.064  0.2458  0.1144 -0.1329
26838W        W42307   3.311  15.079   5.638  0.1508 -0.1221 -0.1625
26839W        W42308   1.831  13.054  10.124  0.0070  0.1640 -0.0369
26840W        W42309  17.467   0.527   4.890 -0.0194 -0.1092  0.3081
26841W        W42310  12.196   9.929   0.546  0.0256 -0.1373 -0.2899
26842W        W42311   1.645   8.344   0.896 -0.0743 -0.0299  0.2091
26843W        W42312   0.554   5.394  15.138 -0.1285 -0.2185 -0.1937
26844W        W42313   7.552   7.495  10.369  0.0582 -0.0682  0.0894
26845W        W42314   4.333   1.207  11.372 -0.1423 -0.1161  0.0887
26846W        W42315   0.362   5.620  13.513 -0.2762 -0.0229  0.2362
26847W        W42316  15.897  14.876   0.050  0.0834 -0.1760 -0.0285
26848W        W42317   4.434  11.087  14.760 -0.2166  0.2578  0.0122
26849W        W42318  11.149   4.625  13.956 -0.0776 -0.0068  0.1246
26850W        W42319  10.581  14.796   4.908  0.2949 -0.0977 -0.4518
26851W        W42320   1.434   7.824  14.887 -0.1526  0.3051 -0.0847
26852W        W42321  11.607  12.625  12.565 -0.0047 -0.1328 -0.1572
26853W        W42322   1.256  11.819   3.451  0.0321  0.1543 -0.2136
26854W        W42323   1.801   0.288  12.215 -0.3444 -0.0135  0.0611
26855W        W42324   1.036  11.219  14.204 -0.1635  0.0388 -0.0721
26856W        W42325  11.300   2.282   3.329 -0.4381  0.1596 -0.2189
26857W        W42326   0.870   9.894   3.452  0.0961  0.1496 -0.2266
26858W        W42327   4.161   0.883  14.072  0.1530  0.1774  0.0197
26859W        W42328   1.673  16.831  11.176  0.3025  0.0847 -0.0694
26860W        W42329   7.983  10.890  11.600  0.0345 -0.0742  0.0423
26861W        W42330   5.120  18.267   2.939 -0.3702 -0.2289  0.1365
26862W        W42331  16.269   4.633  14.927 -0.0580 -0.0103  0.0611
26863W        W42332   5.205   6.450   4.006  0.0081  0.0817  0.0676
26864W        W42333   8.897  10.095  16.095 -0.0408 -0.0932  0.4514
26865W        W42334   3.360  15.635  14.553  0.4692  0.4671 -0.0475
26866W        W42335  11.526   0.742  14.828 -0.2758  0.1504 -0.2566
26867W        W42336   3.676  12.430  15.433  0.0998 -0.1986  0.0021
26868W        W42337  15.533  15.725   4.905 -0.1451  0.0631  0.0808
26869W        W42338   7.681  15.332  13.993 -0.0914  0.2539  0.0625
26870W        W42339   2.196  17.962   1.321  0.3254  0.0309 -0.0850
26871W        W42340   9.061  11.197  10.531 -0.1648 -0.2110  0.3954
26872W        W42341  15.790   3.914  11.764  0.3285 -0.1576  0.4419
26873W        W42342   6.148  16.682   0.504  0.1155 -0.1121 -0.0097
26874W        W42343  17.879   1.168  13.571 -0.1918 -0.1339  0.0237
26875W        W42344  12.798   2.700   0.546 -0.0430  0.0323 -0.4200
26876W        W42345  11.721   1.793   1.304  0.2260 -0.0451 -0.0481
26877W        W42346   8.187  16.608   0.771  0.0475 -0.1350  0.3040
26878W        W42347  14.121   2.464  12.640 -0.2443  0.1679 -0.0943
26879W        W42348   6.958  12.275  12.134 -0.0677  0.4007 -0.4692
26880W        W42349  11.498  16.808   3.119  0.0241 -0.0216 -0.2156
26881W        W42350   5.028   9.022   3.910 -0.0050 -0.1060  0.1554
26882W        W42351   9.613  17.823   3.355  0.0123 -0.2429 -0.1000
26883W        W42352  13.596   8.103   1.298 -0.0918  0.0503  0.0852
26884W        W42353   7.470   8.681   2.021 -0.1633 -0.1177 -0.0004
26885W        W42354   3.129  14.259  14.739 -0.2950 -0.1677 -0.1142
26886W        W42355   6.890  12.849   5.479 -0.2186 -0.0776 -0.1897
26887W        W42356  17.255  15.560   1.646 -0.0766 -0.0195  0.0805
26888W        W42357  16.311   3.153   3.536 -0.3913 -0.0596 -0.0104
26889W        W42358   9.771   9.101  15.694 -0.1954 -0.1074  0.0276
26890W        W42359   6.487  10.145   5.298  0.1083 -0.0479  0.0661
26891W        W42360   3.793   8.654   2.597  0.0574  0.1379 -0.1303
26892W        W42361  13.470   6.989   4.422  0.2018  0.0792  0.0616
26893W        W42362  11.885   4.648  14.123 -0.0283 -0.0106 -0.1444
26894W        W42363  15.869   9.447   2.536  0.0147 -0.0169  0.2293
26895W        W42364  12.734  16.043   2.854 -0.3755 -0.1232  0.1641
26896W        W42365  14.668   5.123  13.507 -0.1846 -0.0039 -0.1058
26897W        W42366   6.464  12.875   0.592 -0.0656 -0.0946  0.0674
26898W        W42367   3.951  10.195   6.292 -0.1800 -0.0262  0.2468
26899W        W42368  12.899  12.331  11.912 -0.0011 -0.1784 -0.0049
26900W        W42369   3.170   4.023  12.748  0.1942  0.1153  0.0834
26901W        W42370   9.311   4.857   4.254 -0.0767  0.0601  0.0781
26902W        W42371  16.309   4.171  11.131 -0.0385  0.0249 -0.2200
26903W        W42372   7.831   5.225  11.003 -0.1500 -0.0542 -0.2110
26904W        W42373  12.751   5.878  14.562  0.1599 -0.0898  0.0398
26905W        W42374   5.859  12.995   3.363  0.1924 -0.0607 -0.5032
26906W        W42375   7.002  16.526  13.837  0.1917  0.0073 -0.0576
26907W        W42376  16.618   6.794  13.398  0.0894 -0.1255 -0.0783
26908W        W42377   1.904  13.293   3.132 -0.3211 -0.0888  0.2072
26909W        W42378  15.143   6.378   0.241  0.0568  0.1989 -0.0862
26910W        W42379  17.833   5.310   2.314 -0.0609 -0.3409 -0.1566
26911W        W42380   2.902  14.820   4.130  0.0046 -0.2927 -0.1007
26912W        W42381   1.255  13.299   2.419  0.2325  0.0959 -0.4923
26913W        W42382   1.134   0.804  12.235 -0.1481 -0.2065  0.0635
26914W        W42383  16.377   6.072  10.497  0.1059  0.0741  0.1690
26915W        W42384  14.644  14.118   0.981 -0.0091 -0.2575 -0.2669
26916W        W42385  17.340  13.105   4.224  0.1263  0.4276  0.3897
26917W        W42386   5.940  11.417   3.205 -0.0462  0.4366 -0.0867
26918W        W42387  17.735   9.916   3.852  0.2080 -0.0814 -0.2405
26919W        W42388   6.828  18.073  16.002 -0.1609  0.2872 -0.1212
26920W        W42389   9.383  14.011   1.013  0.1589 -0.1771 -0.0301
26921W        W42390  13.011   9.573  15.734 -0.1402  0.1911 -0.0465
26922W        W42391   9.090   0.417  14.610  0.1525  0.1720  0.2341
26923W        W42392  14.306   9.428  11.572  0.2604  0.0542  0.1332
26924W        W42393  18.075  18.044  10.843  0.0613 -0.0278 -0.1767
26925W        W42394  16.288   9.125   2.590  0.0424 -0.0502  0.0728
26926W        W42395   2.133   0.255   0.690 -0.2905  0.0240  0.1872
26927W        W42396   6.730  17.381   2.122 -0.1210 -0.1342 -0.0435
26928W        W42397   3.126   8.096   0.418  0.1612 -0.0896 -0.3729
26929W        W42398  13.959  11.701  15.263 -0.2711 -0.1628  0.0052
26930W        W42399  17.742  12.346   0.689  0.0843  0.1370  0.0538
26931W        W42400   5.519   2.726  12.629 -0.1181  0.0930  0.0988
26932W        W42401  11.106  12.933   0.083 -0.2767 -0.3672  0.0414
26933W        W42402  17.241   7.832  13.508 -0.0958 -0.2077  0.1296
26934W        W42403   5.332   7.536  11.472  0.2263  0.1630  0.2079
26935W        W42404   9.075  14.056   2.651  0.0310  0.0137 -0.0183
26936W        W42405   5.371  17.677   4.975 -0.1539  0.0680  0.0903
26937W        W42406   7.902   0.210   1.591  0.3403 -0.0040 -0.1157
26938W        W42407   4.661   8.136  12.153 -0.1258 -0.1188 -0.0796
26939W        W42408   3.856   1.193  12.208  0.0969  0.2736 -0.0372
26940W        W42409   1.413  10.185   1.397 -0.0895  0.0207 -0.3474
26941W        W42410  14.392  16.927   5.354  0.0998  0.1974 -0.1015
26942W        W42411   7.703   1.413   1.677  0.0977  0.0622 -0.0406
26943W        W42412  15.075   5.765  11.490  0.2618  0.3261 -0.1510
26944W        W42413  14.856   5.113   1.771 -0.0610 -0.0691 -0.0087
26945W        W42414   5.814  15.510   3.077  0.3904  0.1060  0.1754
26946W        W42415   2.916  17.267  15.883 -0.2659 -0.1117 -0.1353
26947W        W42416   8.354  17.935  10.981  0.0630  0.0211 -0.2701
26948W        W42417   2.194   6.984  13.832  0.1861  0.0306  0.1252
26949W        W42418   4.135   9.101   2.079 -0.0769 -0.1707  0.3052
26950W        W42419   1.869  12.516   3.703  0.2480 -0.1853  0.1336
26951W        W42420   8.012  14.518   1.907  0.0415  0.1056  0.0562
26952W        W42421  12.446   9.902   4.013 -0.0526  0.0158 -0.0288
26953W        W42422  11.189  16.994  14.665  0.0839  0.0679 -0.4090
26954W        W42423  13.271   0.675  15.089  0.1066 -0.2996 -0.1642
26955W        W42424  12.236  10.635  13.116  0.0818 -0.2804 -0.0168
26956W        W42425  10.655   4.541   0.913 -0.1626 -0.2916  0.1210
26957W        W42426   8.500  14.696   3.597  0.1278  0.2065 -0.1363
26958W        W42427  13.822   5.688  15.110  0.1480  0.4458 -0.0140
26959W        W42428   2.438  10.456  11.677 -0.5150  0.2156  0.0202
26960W        W42429   5.298  13.339   4.244 -0.0611  0.1457 -0.0162
26961W        W42430   0.624  12.792  12.259 -0.0599 -0.0162  0.0299
26962W        W42431  16.300  14.686   4.643  0.0182  0.0367 -0.2898
26963W        W42432   5.221   4.634  13.317 -0.0577 -0.1713 -0.0509
26964W        W42433   1.932  12.840  13.064  0.0114  0.1572  0.3135
26965W        W42434   7.614   8.602  15.365 -0.0240  0.0447  0.0890
26966W        W42435   1.351  13.447   0.551 -0.1450  0.1766 -0.0547
26967W        W42436  13.138  15.478  14.367 -0.1311  0.0513 -0.2142
26968W        W42437  18.218   7.987   5.227 -0.1702  0.3296 -0.3495
26969W        W42438   8.709   1.379   3.434  0.4542 -0.0054  0.2287
26970W        W42439   2.504  11.542   5.352  0.2101 -0.1559 -0.2745
26971W        W42440   3.503   7.412   1.445 -0.1343 -0.0158 -0.1580
26972W        W42441  17.338  12.946   5.858  0.0157  0.0487  0.0510
26973W        W42442   0.231   3.046   2.124  0.1971 -0.3009 -0.2486
26974W        W42443  15.452   5.491  12.655 -0.0534 -0.1391  0.0837
26975W        W42444   9.552  15.705   1.469  0.0990 -0.1160 -0.1473
26976W        W42445  13.450   8.184  13.021  0.0388  0.0217 -0.2404
26977W        W42446   0.048   5.130  10.215  0.2027  0.0872  0.1105
26978W        W42447  14.024  14.913   3.715 -0.0366 -0.1377 -0.1699
26979W        W42448  12.253   6.562   2.557 -0.1376  0.2765  0.0253
26980W        W42449  14.642  16.433  11.723  0.0351 -0.1862 -0.0801
26981W        W42450   2.352   3.245  14.838  0.1343  0.2772  0.1256
26982W        W42451  17.979  15.107   1.368  0.1375 -0.1401  0.0100
26983W        W42452  12.743   7.024   1.602  0.2370  0.2299  0.4009
26984W        W42453  16.296   4.907   4.515  0.0962  0.0980 -0.2239
26985W        W42454   8.814   9.799  15.716 -0.2792 -0.1846 -0.0151
26986W        W42455   3.112   8.476   9.268 -0.0994  0.2205  0.1072
26987W        W42456  15.149   1.686   2.669 -0.2194  0.1223  0.1753
26988W        W42457   6.909  14.431   4.620 -0.0454 -0.0193 -0.2490
26989W        W42458   8.542   7.946   1.702  0.0009 -0.1565  0.1356
26990W        W42459  11.477  17.275   1.264  0.1562 -0.1884 -0.0437
26991W        W42460  14.287  15.686  15.121  0.1683 -0.2482 -0.0237
26992W        W42461   3.159   9.842   3.839  0.0113  0.0928  0.0772
26993W        W42462  16.248  16.011   4.998 -0.2835 -0.0687 -0.1608
26994W        W42463   6.949   3.542   3.657 -0.0652  0.2023  0.0288
26995W        W42464   6.089   1.785  12.595 -0.2828 -0.0843  0.0354
26996W        W42465   1.848   7.503  15.784 -0.0407  0.1705 -0.0435
26997W        W42466   6.347   8.943  11.492 -0.0220  0.0399 -0.1044
26998W        W42467   9.903   5.016  13.646 -0.2631  0.1301 -0.0892
26999W        W42468  16.625  17.911  13.873  0.1071 -0.2475  0.1247
27000W        W42469   9.779   9.998   1.861 -0.0059  0.4030  0.0584
27001W        W42470  14.058   0.217   1.492 -0.3042 -0.1244  0.1483
27002W        W42471  14.060   9.799  15.681 -0.0109 -0.2872  0.1445
27003W        W42472   0.627   9.954  12.211 -0.0427  0.0433 -0.0172
27004W        W42473   3.577  16.389   3.672 -0.4769 -0.0435 -0.0177
27005W        W42474  15.836  10.631   2.013  0.2271 -0.0155 -0.3794
27006W        W42475   4.633  12.595   2.612  0.2110 -0.0508  0.0344
27007W        W42476  16.078   8.319  13.323  0.1398  0.1719  0.3153
27008W        W42477   4.476   4.180  13.494  0.0069 -0.0302  0.0025
27009W        W42478   6.694  14.748   1.231 -0.0108  0.0133 -0.0464
27010W        W42479  14.258   7.906  14.241 -0.2178  0.0710 -0.1963
27011W        W42480  12.094   2.929  11.796 -0.0304  0.2297 -0.1229
27012W        W42481   4.405   8.182  14.055 -0.0045  0.1825  0.0787
27013W        W42482  13.915   3.814   3.750  0.0259 -0.0783 -0.1050
27014W        W42483   5.030   1.289  13.369  0.3323 -0.0648 -0.0035
27015W        W42484  16.279  14.783   1.400  0.0329  0.0643 -0.0201
27016W        W42485   3.289   6.246   1.232 -0.1111  0.1130  0.2364
27017W        W42486   3.851  15.293   5.562 -0.0183 -0.3987  0.1238
27018W        W42487   3.963  17.911   4.799 -0.1013 -0.1710  0.0851
27019W        W42488   9.441  13.655   2.549 -0.1106  0.1844 -0.0421
27020W        W42489   0.170  11.685   4.382  0.1318  0.1673 -0.1568
27021W        W42490  15.718   3.589  10.759  0.0539 -0.1079 -0.1320
27022W        W42491   2.417  16.204   5.926  0.0103 -0.1321  0.5390
27023W        W42492   7.709  16.251   4.486  0.0495 -0.1515 -0.0671
27024W        W42493   1.332   3.605   1.467  0.1661 -0.1648 -0.2020
27025W        W42494  17.129   2.737  11.979  0.0363  0.0359  0.0377
27026W        W42495  10.626   4.519   3.073 -0.0270  0.0193 -0.2043
27027W        W42496   3.850   7.734  10.860 -0.1625 -0.2068  0.1832
27028W        W42497   8.109  17.252  11.889  0.1057  0.1455 -0.1123
27029W        W42498   2.439  14.161  12.823 -0.0947 -0.2970  0.0361
27030W        W42499  12.450  11.135  14.985  0.2966  0.1909  0.3693
27031W        W42500  12.273   2.771   3.725  0.2411 -0.0703 -0.0313
27032W        W42501  10.633  18.207   4.329  0.1604  0.1887 -0.1787
27033W        W42502  11.253  11.018   2.787  0.0939  0.0275  0.2883
27034W        W42503   5.822  14.000   4.313  0.0052 -0.1519  0.0131
27035W        W42504  16.718  15.281   1.535 -0.2292  0.1868  0.3591
27036W        W42505   6.834  10.549  13.086  0.0851 -0.2042 -0.2899
27037W        W42506   7.998  11.180  12.536  0.1002  0.1849 -0.2495
27038W        W42507   4.352   0.037   2.517 -0.0456  0.2789 -0.1428
27039W        W42508   4.295   7.648  11.126  0.5097 -0.0069  0.2669
27040W        W42509  17.985   0.988   4.188 -0.0873  0.0047  0.1642
27041W        W42510  18.106  13.602  11.101 -0.0139 -0.1767 -0.1448
27042W        W42511  16.832  11.820   2.122  0.1129 -0.2882  0.1214
27043W        W42512  16.076  15.049  12.922  0.0836  0.1070 -0.2170
27044W        W42513   5.361   2.992   3.239  0.1925  0.1947  0.2174
27045W        W42514  10.137  11.822  13.498 -0.0438  0.1881  0.2973
27046W        W42515   6.184  12.194   3.907  0.1598 -0.0751  0.1116
27047W        W42516   5.520   8.937  14.359 -0.0224 -0.3307  0.0767
27048W        W42517   7.160   9.077  15.158  0.0518  0.0103  0.4587
27049W        W42518   3.203   3.903  11.876 -0.2210  0.2139 -0.1565
27050W        W42519  16.773   7.740  12.729  0.0265  0.0118  0.1456
27051W        W42520   9.948  10.716  12.770  0.0919  0.0618  0.3709
27052W        W42521   3.140   9.975   3.371  0.2467  0.1158 -0.1908
27053W        W42522  12.174   8.191   0.922 -0.0107  0.2579  0.1072
27054W        W42523   8.693   4.182  15.685 -0.1207 -0.1218  0.2251
27055W        W42524   3.990  10.866  14.723 -0.2499 -0.0072 -0.1685
27056W        W42525  10.249  16.952  13.805 -0.2158  0.0625  0.0205
27057W        W42526   7.672   1.757  15.843 -0.0749  0.0552 -0.3978
27058W        W42527  15.467  15.848  11.523  0.1569 -0.1063 -0.0062
27059W        W42528  12.751   5.029  14.829  0.0648  0.0161  0.3108
27060W        W42529   1.822  13.619  12.699  0.0202 -0.1601 -0.1885
27061W        W42530  10.180   6.160   2.949  0.2341 -0.0456  0.0664
27062W        W42531   7.810   0.440   3.301 -0.1302 -0.1231 -0.3079
27063W        W42532  17.315  13.539  11.815 -0.0857  0.1915 -0.0387
27064W        W42533   0.426  15.460   3.360 -0.1970  0.0682 -0.0267
27065W        W42534   8.510  16.706  13.429 -0.0153 -0.2037 -0.0466
27066W        W42535  15.806   5.713   4.880 -0.2009 -0.1581 -0.1236
27067W        W42536   2.622  13.812  11.732 -0.0474  0.2065  0.0006
27068W        W42537   5.448  12.040  14.337 -0.1183 -0.1191 -0.1992
27069W        W42538   2.797   2.170   0.403 -0.3883 -0.2159 -0.1126
27070W        W42539   6.783  11.182  11.856  0.1557  0.1951 -0.1248
27071W        W42540   4.000  13.565   3.411 -0.1336  0.2836  0.1280
27072W        W42541   4.991  10.338  13.888 -0.1099 -0.1196 -0.2363
27073W        W42542  13.242  17.450  11.184  0.2546 -0.1359  0.2392
27074W        W42543  14.867   7.118   3.671  0.1345  0.4754  0.0197
27075W        W42544   1.439  12.726  13.892 -0.4658 -0.1681 -0.0742
27076W        W42545  14.635  12.572  15.066  0.0102  0.0073 -0.4863
27077W        W42546   4.605  16.697   4.452  0.1867  0.1888  0.1726
27078W        W42547   9.665  10.215  11.876 -0.0872  0.1587 -0.0020
27079W        W42548  10.596  16.691  12.582 -0.0948 -0.1002  0.2623
27080W        W42549   4.102  11.773  11.599  0.1334  0.4411 -0.1416
27081W        W42550  14.538  15.432  12.461  0.0300 -0.2174 -0.1312
27082W        W42551   7.206   4.633  10.192  0.0749 -0.1585 -0.0788
27083W        W42552  17.128  13.853   3.331 -0.2386 -0.0569  0.0023
27084W        W42553   7.186   3.704  13.524 -0.1340 -0.2727 -0.0214
27085W        W42554   6.601  13.856   1.818 -0.0246  0.0872  0.0925
27086W        W42555   6.462   2.722  12.533  0.0978 -0.0625  0.1788
27087W        W42556  10.965   2.582   3.055 -0.0007  0.0921 -0.0478
27088W        W42557   5.783   7.367  11.675 -0.0140  0.2383 -0.0024
27089W        W42558   8.556   0.260  13.648 -0.0322 -0.0463  0.0539
27090W        W42559   9.636  16.171  15.795  0.1753  0.1337 -0.1911
27091W        W42560   4.413   3.864   4.901 -0.1232 -0.0546 -0.0276
27092W        W42561   7.864   7.713   1.088 -0.2054 -0.2076  0.1138
27093W        W42562   8.143   0.674  11.010 -0.0421  0.3388  0.1376
27094W        W42563   1.092  16.987  13.835  0.3014 -0.2253  0.0128
27095W        W42564  12.065  15.489  15.406  0.1197 -0.0852 -0.2141
27096W        W42565   6.000  14.015   0.115 -0.0743 -0.0063 -0.1633
27097W        W42566   2.887   3.263   1.389 -0.3215  0.0300 -0.0301
27098W        W42567   5.418   6.791  14.334  0.2168 -0.0165 -0.3047
27099W        W42568   4.430  13.385  12.132 -0.2911 -0.0480  0.0223
27100W        W42569   2.467   5.980   4.513  0.0179 -0.2854  0.2201
27101W        W42570  14.892  12.657   0.691 -0.2115 -0.2978 -0.0241
27102W        W42571  12.543   5.511   2.169  0.1656 -0.2671 -0.2949
27103W        W42572   1.073  12.499  14.130 -0.0772 -0.0103  0.0528
27104W        W42573   8.208   3.282  14.364  0.3611 -0.1118 -0.1407
27105W        W42574   5.110   1.818  13.346 -0.0560  0.0616  0.1550
27106W        W42575   5.661  14.049   2.434 -0.0351 -0.0099 -0.7468
27107W        W42576  13.184   1.394   2.550 -0.0659  0.0380  0.0618
27108W        W42577  15.377  17.003   3.603  0.2955  0.0212  0.0891
27109W        W42578   4.859   0.308   0.625  0.0719 -0.1811 -0.0105
27110W        W42579   0.447   5.883  11.889  0.2864  0.0878 -0.2150
27111W        W42580  11.137   4.282   5.617 -0.0801 -0.1100  0.0655
27112W        W42581   3.581  17.717  15.404 -0.3455  0.0833 -0.0394
27113W        W42582   8.769  17.822  11.688  0.2569 -0.2928  0.1682
27114W        W42583  14.186  15.665   1.796 -0.0510 -0.2047 -0.1240
27115W        W42584  10.339   4.816  15.669  0.0208  0.1534  0.0545
27116W        W42585  14.118  12.609  12.700  0.0724 -0.0283 -0.2011
27117W        W42586   9.658   5.905  14.496  0.0058 -0.0691  0.2602
27118W        W42587   1.152   6.402   2.889  0.0672  0.1410  0.0318
27119W        W42588   3.301  16.461  14.340 -0.2192  0.0076  0.3032
27120W        W42589  17.105  14.036   4.235  0.1463  0.4243  0.2330
27121W        W42590   1.037   9.482   4.971 -0.0889  0.3192  0.1106
27122W        W42591  10.777  11.381  15.640  0.1711 -0.3992  0.2382
27123W        W42592   3.679   5.929   0.349 -0.0156 -0.0549  0.0126
27124W        W42593   3.225  10.988   4.352  0.1438 -0.1935  0.0851
27125W        W42594  11.121   5.021  13.470  0.1235 -0.0725  0.0373
27126W        W42595   0.891   3.266  12.646 -0.3261  0.1042 -0.1319
27127W        W42596   0.672  17.402   1.875  0.2375 -0.1690 -0.2673
27128W        W42597  16.507  12.848  10.983  0.0237  0.1702  0.0333
27129W        W42598  13.962   9.577  12.113 -0.0248 -0.2678 -0.1909
27130W        W42599  12.640  13.239  12.152  0.0306 -0.1857 -0.1322
27131W        W42600  16.463   6.219  14.166 -0.0656  0.0025  0.0145
27132W        W42601   8.498  12.779  15.901  0.1991 -0.1668  0.1376
27133W        W42602   8.989  15.987   4.716  0.2082  0.1408 -0.1605
27134W        W42603   9.451  10.993  11.412 -0.1770  0.1583 -0.1358
27135W        W42604  15.791  10.784   3.637 -0.0166 -0.1004 -0.2068
27136W        W42605   5.492   0.019  14.543 -0.1736  0.0988  0.0416
27137W        W42606   2.923   0.860   3.276  0.0147 -0.3017  0.0889
27138W        W42607   6.154   7.567  15.332  0.0621  0.1317 -0.2203
27139W        W42608   3.286  15.097   1.347  0.1098  0.4069  0.2374
27140W        W42609  15.930   7.792   3.830 -0.1419  0.0071 -0.0644
27141W        W42610  17.340   7.516  13.046 -0.2934 -0.1162 -0.1740
27142W        W42611   4.905   6.282   1.955 -0.1271  0.2217 -0.1986
27143W        W42612   6.545  11.248   4.575  0.2195 -0.0662  0.2096
27144W        W42613   9.438  18.181   1.456  0.3388 -0.0654 -0.1157
27145W        W42614   0.249   0.849   4.221  0.1735 -0.3636 -0.0501
27146W        W42615   5.900  10.650  15.918  0.0708 -0.0057 -0.0173
27147W        W42616   2.071  16.392   0.359 -0.1981  0.0940 -0.1511
27148W        W42617  11.729   4.869  16.021  0.1017 -0.1332  0.0870
27149W        W42618  13.423   1.651   5.055 -0.1152 -0.1150  0.1352
27150W        W42619   2.040   5.773   1.562  0.1362 -0.0769  0.1802
27151W        W42620  11.428  16.734  13.673  0.1928 -0.2962  0.0830
27152W        W42621  12.165   5.270   4.217 -0.1505 -0.0129 -0.2441
27153W        W42622  13.171  10.654  13.498  0.3204 -0.3811 -0.1424
27154W        W42623   6.838   6.211  10.749 -0.0789 -0.0449 -0.1013
27155W        W42624   4.696  14.723  14.072  0.3391 -0.0105  0.1334
27156W        W42625   3.353   9.304   5.159  0.1319 -0.2282  0.0023
27157W        W42626   4.771  16.174   5.047 -0.1657  0.0979  0.1909
27158W        W42627   5.653  11.521   0.707  0.1441 -0.0240  0.1673
27159W        W42628   9.727  11.263  10.964 -0.3864 -0.0472  0.1963
27160W        W42629  10.262   1.413  14.477  0.4060  0.1995  0.0711
27161W        W42630  12.797   0.220   5.603  0.0513  0.2413 -0.0249
27162W        W42631   3.055  17.846  12.748  0.2125 -0.1104  0.0584
27163W        W42632  10.552   4.423  15.314  0.0585 -0.1014 -0.0404
27164W        W42633  13.661  14.883  12.373 -0.2267 -0.1047 -0.2221
27165W        W42634  17.076   6.469  14.388 -0.0534 -0.2766 -0.1292
27166W        W42635  15.168   0.003  15.890 -0.0400  0.3178 -0.1812
27167W        W42636  11.644   0.093   0.330  0.0383  0.1082 -0.4167
27168W        W42637  16.312   8.838  15.592  0.0858  0.2806  0.3141
27169W        W42638   3.693   4.966  13.966 -0.0880  0.0940  0.3180
27170W        W42639  15.226  10.914  12.235 -0.0094  0.1373 -0.0168
27171W        W42640   1.765  16.871   0.537  0.1346  0.1445  0.1952
27172W        W42641   3.191   6.576   1.675  0.2629 -0.1738  0.0183
27173W        W42642   3.716  17.386  13.679  0.2705  0.0706  0.0790
27174W        W42643  14.648   1.208  13.391 -0.1649  0.0888  0.2800
27175W        W42644   3.689  12.477   2.072 -0.0872 -0.0477  0.2951
27176W        W42645   4.130   7.087   1.055  0.1724  0.1176  0.0353
27177W        W42646   0.980   8.721   1.851  0.0279 -0.2215 -0.0943
27178W        W42647   9.477  14.929   3.068 -0.2080  0.2773  0.2028
27179W        W42648   2.030   4.728   3.279  0.0891  0.0409 -0.0290
27180W        W42649  16.216   8.051  11.743 -0.0785 -0.1185  0.0378
27181W        W42650   2.922   1.186  11.860 -0.3214 -0.0720  0.1473
27182W        W42651   8.335   4.017   4.097 -0.1349  0.2795 -0.0263
27183W        W42652   1.817  12.635  12.578 -0.0044 -0.1144 -0.2931
27184W        W42653   0.063   2.777   3.033  0.1990  0.1683 -0.1136
27185W        W42654  15.096   0.597  13.021 -0.2117 -0.0099 -0.1518
27186W        W42655   8.265  10.989  12.115  0.3638 -0.0957  0.0341
27187W        W42656  10.889   3.784   2.449 -0.0604  0.3693  0.0387
27188W        W42657  11.611   3.034  15.524  0.0855 -0.1122  0.0968
27189W        W42658   5.237  11.098   3.259 -0.0418  0.0347 -0.1711
27190W        W42659   8.391   0.827  13.664  0.0491 -0.1905  0.0630
27191W        W42660  14.534   7.968  13.761 -0.0981  0.0411  0.1494
27192W        W42661   6.126   9.623  12.913 -0.2940  0.0296 -0.0649
27193W        W42662  17.288  16.133   1.617 -0.2301  0.1751  0.0682
27194W        W42663   6.635   5.516  13.752 -0.1462 -0.4452 -0.2186
27195W        W42664   1.028   2.707  10.741  0.1462  0.0567  0.3120
27196W        W42665  13.863   1.653   4.830 -0.0430 -0.0929 -0.2912
27197W        W42666   8.699  13.603   4.013 -0.0793  0.0083 -0.4718
27198W        W42667   5.272   8.401   2.648  0.0950  0.3762  0.1053
27199W        W42668  14.830  11.725  13.408  0.1631  0.0823 -0.2958
27200W        W42669   8.022   7.808  13.360 -0.2090  0.0974  0.4023
27201W        W42670   5.830  10.099   4.153 -0.0222 -0.0999 -0.0518
27202W        W42671  14.100   9.243  13.032  0.5217  0.3120 -0.0484
27203W        W42672   2.984  16.213  13.878 -0.0547  0.2381 -0.0281
27204W        W42673  17.926  11.440  12.575 -0.2106 -0.0225 -0.1774
27205W        W42674   3.384   5.528  11.873  0.2039  0.0716 -0.2196
27206W        W42675  10.913   6.663  11.694  0.0169  0.0388  0.2720
27207W        W42676  15.594  18.167  11.987 -0.0855  0.3105 -0.1291
27208W        W42677  12.483   8.126   5.136 -0.3368 -0.2481 -0.3007
27209W        W42678  13.866  13.658   0.132  0.1648  0.3037 -0.0362
27210W        W42679  11.528  14.480   1.015  0.0193 -0.0782 -0.0949
27211W        W42680  18.193   9.153  14.216 -0.3370 -0.0036  0.1917
27212W        W42681   7.286  14.138   1.197 -0.0176  0.1605 -0.1230
27213W        W42682  12.408   7.100   4.570  0.1905  0.0454  0.1686
27214W        W42683   8.874   5.557  14.497  0.4693 -0.0004 -0.1632
27215W        W42684  14.417   8.114  11.629 -0.0578  0.0508 -0.0993
27216W        W42685  10.465   0.839  13.797  0.0332 -0.2876 -0.0226
27217W        W42686  13.368  16.703  15.163 -0.0774  0.3010  0.0818
27218W        W42687   3.796   0.687   1.231 -0.2415 -0.2783 -0.1585
27219W        W42688   7.461  14.167  12.150 -0.0920  0.1965  0.3028
27220W        W42689  12.249   8.911  13.674 -0.1924 -0.2816  0.1553
27221W        W42690   8.974   7.694  15.845 -0.0663  0.1224 -0.0584
27222W        W42691  16.927   2.100   3.103  0.0717  0.2890  0.3048
27223W        W42692   4.679   8.403  11.705 -0.2086  0.0630 -0.0741
27224W        W42693   2.983   0.960   3.759  0.0738 -0.4738  0.2549
27225W        W42694  16.400   0.924   6.050  0.0425 -0.0984 -0.0742
27226W        W42695   8.411  14.902  14.508 -0.1631 -0.1467 -0.0908
27227W        W42696   5.115  11.327  13.442 -0.2849 -0.0662  0.0504
27228W        W42697   5.232  17.812  14.337  0.1048 -0.0024 -0.2397
27229W        W42698   0.736  16.544   2.408  0.0736  0.0302 -0.1441
27230W        W42699  15.591  15.252   1.682  0.0034 -0.1597  0.1890
27231W        W42700   5.787   1.610   0.200  0.2779  0.1685  0.1486
27232W        W42701   1.106   1.124   3.987  0.0281 -0.0865  0.2575
27233W        W42702  13.587   4.078  12.671  0.2589  0.0905 -0.0089
27234W        W42703  16.201   2.326   0.601 -0.0301 -0.0209 -0.0953
27235W        W42704  13.231  10.443  12.653  0.0337 -0.0637  0.2243
27236W        W42705  14.606   9.656   2.688  0.1642  0.0286 -0.4031
27237W        W42706  16.363   7.221  15.206 -0.1035  0.0139  0.2301
27238W        W42707  11.201  13.494  14.874 -0.3364 -0.2290  0.3461
27239W        W42708   6.292   2.464   4.773 -0.1591 -0.2047 -0.1131
27240W        W42709  15.627   8.185  10.423 -0.1510  0.0112 -0.1216
27241W        W42710   7.002   3.084   2.013 -0.2226 -0.0400  0.0061
27242W        W42711   5.783  12.359   5.825 -0.2121  0.1366  0.0048
27243W        W42712   2.945   6.451   2.474 -0.1910  0.0844  0.2305
27244W        W42713  14.109   6.732  11.601  0.1027  0.0618 -0.0117
27245W        W42714  13.915  12.630  11.113  0.0041 -0.2646 -0.0263
27246W        W42715   6.816   4.174   4.452 -0.1217 -0.2093  0.0911
27247W        W42716   8.549   8.430  12.165  0.0231 -0.1794 -0.0717
27248W        W42717  10.011   1.867  14.559 -0.1526  0.2372  0.0734
27249W        W42718   2.212   3.136   3.233  0.2271  0.0167  0.1035
27250W        W42719  14.845  14.653  14.000 -0.1815 -0.0311  0.1229
27251W        W42720   2.252  15.488   2.938  0.3323  0.0426  0.0306
27252W        W42721   8.453  14.775   0.442  0.1684 -0.1407 -0.2420
27253W        W42722  11.746  11.717  11.367 -0.1574  0.0118 -0.0858
27254W        W42723  16.356  16.923  13.062  0.2730  0.3816  0.2559
27255W        W42724   5.988  15.399   2.053 -0.2519  0.2072  0.2146
27256W        W42725   4.103   8.981  12.199 -0.0500  0.0260 -0.1251
27257W        W42726  13.418  11.729   5.077  0.0056 -0.2498 -0.1354
27258W        W42727   2.715  11.200   2.790  0.0046  0.1641  0.0286
27259W        W42728  16.189  10.043   3.164 -0.2598  0.1831 -0.3403
27260W        W42729   9.922  12.364   3.831 -0.0684  0.3683 -0.1862
27261W        W42730  16.160   5.643   5.691 -0.0167  0.0146  0.0858
27262W        W42731  16.086  10.021   4.710 -0.1463 -0.1328 -0.1583
27263W        W42732   7.800   4.337  11.482 -0.1149 -0.0727 -0.1869
27264W        W42733  15.850  11.015  16.104 -0.0294 -0.3642 -0.1399
27265W        W42734  13.705   9.938   3.839  0.1072  0.2109 -0.2391
27266W        W42735   0.086  14.064  14.392 -0.1525  0.1551  0.2839
27267W        W42736   4.440   2.750  14.321 -0.2460  0.0778 -0.1348
27268W        W42737  10.786  16.503   6.414  0.1860  0.0438 -0.0684
27269W        W42738   4.673   9.751  15.691  0.0754  0.1017 -0.0501
27270W        W42739   1.172   3.188  11.453 -0.1255  0.0647 -0.0525
27271W        W42740   7.760   0.791  15.511  0.1755 -0.1969  0.0590
27272W        W42741   0.464  15.254  11.548  0.2267  0.0088 -0.0989
27273W        W42742   4.615  15.672  11.082 -0.2358  0.1051 -0.0473
27274W        W42743   8.022   5.203   1.178 -0.1621  0.0207 -0.4113
27275W        W42744   0.906   8.663  13.564 -0.0510 -0.0244 -0.2251
27276W        W42745   5.944   2.102  12.944  0.1028 -0.2847  0.0434
27277W        W42746   7.259  17.184   2.538  0.1187  0.0057  0.0863
27278W        W42747   1.918   4.039  11.278  0.1705  0.2843 -0.0504
27279W        W42748  10.075   8.820  12.615 -0.3279  0.2577  0.3254
27280W        W42749  17.329   3.025  13.660  0.0691 -0.0146  0.0315
27281W        W42750   9.358   7.415  15.615 -0.0971 -0.2258 -0.2790
27282W        W42751   7.922  16.776  11.772  0.1919 -0.0658  0.1046
27283W        W42752  16.879  11.756  14.676  0.4460  0.1966 -0.0857
27284W        W42753   2.636  11.941   4.957 -0.0093 -0.0693 -0.0260
27285W        W42754   2.220   3.630   2.138 -0.2414 -0.0181  0.0970
27286W        W42755   8.255   0.200  15.467  0.1252 -0.0046  0.2902
27287W        W42756   0.839  17.442   3.985  0.0510 -0.0532 -0.0058
27288W        W42757   5.795   0.707   1.786 -0.4358 -0.1272  0.0744
27289W        W42758   5.593  12.497  15.248 -0.1786  0.0738  0.0756
27290W        W42759   9.596   5.030   5.095 -0.1595 -0.1202 -0.1581
27291W        W42760  16.460   7.963   0.771 -0.1356 -0.4289 -0.2511
27292W        W42761  12.221   6.741  11.868  0.0303  0.0168 -0.0845
27293W        W42762   3.275   7.261   1.951  0.1041 -0.2276 -0.2519
27294W        W42763  18.188   4.655  14.427 -0.0629 -0.1860  0.1136
27295W        W42764   0.296   6.597   1.600  0.0607 -0.1370 -0.1427
27296W        W42765   9.817   0.446   0.402  0.0954 -0.0074  0.0027
27297W        W42766   7.082   5.570  12.465 -0.3678  0.1539  0.0233
27298W        W42767  17.305   7.416   4.082  0.1175  0.2316 -0.0496
27299W        W42768   3.241   3.484  14.040 -0.0220 -0.1050 -0.2264
27300W        W42769  18.282  14.813  12.820 -0.0598  0.2241  0.0577
27301W        W42770   7.242   9.851  11.525  0.0952 -0.4592  0.0845
27302W        W42771  15.627   9.488   3.415  0.1643  0.1394  0.1800
27303W        W42772  14.168  16.759  15.715  0.1009 -0.0186  0.0306
27304W        W42773  15.629  11.825  12.316 -0.0042  0.1579 -0.1933
27305W        W42774   1.422  10.887  14.048 -0.2126  0.0989  0.0217
27306W        W42775  13.371   0.278   3.263 -0.0998  0.3121 -0.3409
27307W        W42776   2.653  16.958   6.124  0.4742 -0.2650  0.2076
27308W        W42777  13.645  17.671  13.135  0.0022 -0.2592  0.1688
27309W        W42778   4.382   9.523  15.355  0.1459  0.0391 -0.0619
27310W        W42779   8.752  10.622  10.968  0.1974 -0.2819  0.0586
27311W        W42780  10.672  11.000   0.581 -0.0840 -0.0739 -0.0890
27312W        W42781   4.888  13.208  12.800 -0.0814 -0.1726 -0.0646
27313W        W42782   8.769  17.290   1.864  0.0367 -0.1359  0.2226
27314W        W42783  10.249  13.013   5.909 -0.0294  0.4003  0.0114
27315W        W42784   0.358  14.619   5.421 -0.3078 -0.0545  0.3419
27316W        W42785  11.213   3.948  13.366 -0.0595  0.1126  0.2493
27317W        W42786  17.063  15.233  11.612  0.0960  0.1182  0.2467
27318W        W42787  11.624   0.615   0.351  0.1525  0.2284 -0.1157
27319W        W42788  10.159  17.304   0.490  0.0203 -0.0405  0.0751
27320W        W42789   1.247   5.387   0.386 -0.1044  0.1831  0.1801
27321W        W42790   3.561   9.958   3.042  0.1610  0.2465 -0.2654
27322W        W42791   3.341   9.717   2.047  0.3937  0.1158 -0.1226
27323W        W42792   5.330   7.304   3.541  0.3239 -0.0018  0.3986
27324W        W42793   8.740   3.805  16.058  0.0650  0.2094  0.1118
27325W        W42794  12.226   1.369   2.208 -0.0460  0.2139 -0.0450
27326W        W42795   9.450   7.597   4.911  0.1567 -0.2700  0.0099
27327W        W42796  14.089  15.607   2.319 -0.0558  0.0132 -0.0607
27328W        W42797   0.370   3.129  12.720  0.3305 -0.1872  0.1902
27329W        W42798  13.654  10.294   5.244  0.3199  0.0737  0.0041
27330W        W42799  12.569   0.139   1.363  0.1586 -0.0298  0.0120
27331W        W42800   5.793  11.895   5.439 -0.3326 -0.2368  0.1688
27332W        W42801   5.949   5.040   2.341  0.4670 -0.1455 -0.0848
27333W        W42802   5.421  10.477   3.772  0.2583  0.2166  0.0914
27334W        W42803  10.110  11.763   1.401  0.2036  0.0692  0.2276
27335W        W42804   8.726  18.133   5.565 -0.2841  0.1809  0.1235
27336W        W42805  17.152  12.146  11.757 -0.2143  0.0922  0.2337
27337W        W42806   3.658  10.580  12.246  0.0217  0.2904 -0.0324
27338W        W42807   8.823   3.993  15.205  0.1802 -0.0888  0.0060
27339W        W42808   3.247   5.499   1.407 -0.2059  0.1852 -0.0231
27340W        W42809   8.611   6.755   2.758 -0.0998 -0.0642  0.3417
27341W        W42810   7.268   7.987   3.828  0.0358  0.0993  0.0478
27342W        W42811   0.706   8.981  15.446  0.2519 -0.1265 -0.0513
27343W        W42812  12.357   0.973   1.299 -0.1853  0.2510  0.0586
27344W        W42813  16.921  13.291  13.675  0.2580 -0.0754 -0.0654
27345W        W42814   7.173  11.127  13.100  0.0545 -0.0967  0.1451
27346W        W42815   8.147  11.047   0.686 -0.1105 -0.3385 -0.1269
27347W        W42816   8.514  12.413  12.602  0.1358  0.0879 -0.1687
27348W        W42817   6.284   6.051  15.519 -0.1309 -0.3252 -0.1781
27349W        W42818   0.067   9.414   0.931 -0.0875  0.3178  0.0144
27350W        W42819   8.246  15.198   3.765  0.1113 -0.0839 -0.1286
27351W        W42820  17.573   3.923  12.077  0.0118  0.1479 -0.1301
27352W        W42821   7.919  15.807  11.183 -0.3261  0.1687 -0.0697
27353W        W42822   3.873  13.822   0.184  0.3351  0.0185 -0.0075
27354W        W42823   4.842   2.429   1.044 -0.0635 -0.0079 -0.0598
27355W        W42824   7.122  17.141   4.337  0.2733  0.2219  0.1072
27356W        W42825   8.568  10.348   1.212  0.0694  0.0106  0.0477
27357W        W42826   4.741  15.189   4.099 -0.3982  0.0912  0.1193
27358W        W42827  12.211   7.575  13.238  0.0602 -0.1004  0.4202
27359W        W42828   5.466   8.605  12.249  0.0934 -0.0050  0.2285
27360W        W42829  15.773   5.442  13.940 -0.1926  0.0367  0.0242
27361W        W42830   6.613   9.213   3.961  0.1220 -0.1836  0.1366
27362W        W42831   3.199  10.774   0.979  0.1384  0.1759  0.0704
27363W        W42832  10.076  17.698   3.613 -0.0798  0.0687  0.1384
27364W        W42833  15.012   5.917   0.520 -0.0471  0.1101 -0.2045
27365W        W42834  11.174  13.885   1.088  0.2795 -0.1871  0.2023
27366W        W42835  15.148   4.392  13.357  0.1995 -0.0780  0.0421
27367W        W42836   8.618   4.117   4.591  0.0210 -0.0311  0.2013
27368W        W42837  12.175  11.395   3.135  0.0094  0.1455 -0.0560
27369W        W42838  18.286   4.867   2.536 -0.1174  0.0564  0.0941
27370W        W42839  10.429   6.984   2.695  0.0935  0.1060  0.0418
27371W        W42840   4.498  13.500  10.370 -0.0419 -0.0709 -0.0873
27372W        W42841   1.588  11.003  11.586  0.1317 -0.1291 -0.1904
27373W        W42842   9.969  12.384  11.430  0.1990  0.2145 -0.0350
27374W        W42843  11.275   4.611  14.935  0.0304  0.2750  0.1011
27375W        W42844   3.573   2.951   6.271 -0.0845 -0.2493 -0.2187
27376W        W42845   7.807  13.676  14.148  0.0099 -0.1044 -0.0000
27377W        W42846  18.284   1.769   5.131  0.2862 -0.1400  0.1837
27378W        W42847  16.412   7.308   0.108  0.2312  0.0496  0.0550
27379W        W42848   0.003   9.760  14.666  0.3082  0.1600 -0.0780
27380W        W42849  10.245  17.259   3.601  0.3091  0.0532 -0.0886
27381W        W42850  14.200   9.220   4.853  0.1496  0.3136  0.1101
27382W        W42851  14.974  10.778  14.968 -0.0645 -0.2363 -0.3658
27383W        W42852   7.962   9.162  16.063  0.0462  0.1009  0.0051
27384W        W42853   0.427  13.951  11.697  0.1695 -0.0166  0.0938
27385W        W42854  18.201   7.654  15.486  0.0927  0.1361 -0.3445
27386W        W42855  16.594   1.356   2.669  0.0570  0.1783  0.1751
27387W        W42856  10.552   9.790   5.041 -0.0931 -0.0859 -0.0202
27388W        W42857   1.589  12.478   4.666 -0.2452  0.1712 -0.1930
27389W        W42858  11.094   8.755   4.195  0.2141  0.2545 -0.1151
27390W        W42859  17.890  16.492  13.471  0.3911 -0.1538 -0.1358
27391W        W42860   1.903   9.462  15.704  0.2241  0.2019 -0.0359
27392W        W42861   2.359   0.356   2.595  0.1240 -0.2138  0.0573
27393W        W42862  16.011   3.464  13.871 -0.4172  0.3547  0.0028
27394W        W42863   1.513   1.536  13.022  0.2774  0.2119 -0.2685
27395W        W42864  12.819   7.219  12.068  0.2330  0.0614  0.2082
27396W        W42865  13.792  12.787  13.153 -0.0262 -0.1956  0.2390
27397W        W42866   9.920   0.844  13.756  0.0416  0.3776 -0.2249
27398W        W42867   7.338  11.044  11.534 -0.0753 -0.0701 -0.2171
27399W        W42868  17.657   3.696  12.978 -0.1225 -0.3552 -0.1355
27400W        W42869  12.543   0.094  10.864 -0.4032  0.2773  0.1408
27401W        W42870   6.121   0.738   4.075 -0.0342  0.0784 -0.1026
27402W        W42871  13.128   6.153   1.927 -0.0189  0.0843  0.0635
27403W        W42872   9.106   3.238  11.445  0.0077 -0.1948  0.0167
27404W        W42873  11.814   3.526   2.648 -0.0967  0.4053  0.3729
27405W        W42874   6.886   2.809  12.154  0.0669 -0.0083  0.2201
27406W        W42875   3.557  17.288   1.147 -0.0860  0.1375  0.1534
27407W        W42876  17.545   8.458   0.246 -0.1370 -0.1103  0.0516
27408W        W42877  13.010   8.690  13.186  0.2363  0.1301 -0.0633
27409W        W42878   4.704  17.643   1.125  0.1265  0.0018 -0.2350
27410W        W42879  17.215   3.820   2.660  0.2079 -0.2758 -0.3521
27411W        W42880  13.099  11.479   2.384  0.2033  0.0277 -0.2021
27412W        W42881  15.265  10.666  13.124  0.1814  0.4248 -0.0319
27413W        W42882   6.306   9.073   2.913 -0.1736  0.1802 -0.4104
27414W        W42883   3.511   8.337   2.097  0.4963  0.1545  0.1420
27415W        W42884   1.459   0.907   4.271  0.2378 -0.2056  0.0107
27416W        W42885  17.063   4.523  11.687  0.1012  0.3202  0.0184
27417W        W42886   2.736  16.002  12.703  0.2085  0.0049  0.2924
27418W        W42887  12.408   2.297  12.568 -0.0740  0.0779 -0.0351
27419W        W42888  17.170  12.816  15.328  0.3557  0.1594 -0.0853
27420W        W42889  13.771   0.783   1.963 -0.0552 -0.2279  0.1481
27421W        W42890   1.606  13.865  13.069  0.3274  0.1806  0.3165
27422W        W42891   2.656   8.450   1.054 -0.1818  0.0821  0.0730
27423W        W42892  16.443   1.367  13.104  0.2129  0.0970 -0.0525
27424W        W42893   8.511  11.372   3.357  0.0183  0.2465 -0.0748
27425W        W42894  10.317   7.414   2.152 -0.2444  0.1490  0.0950
27426W        W42895   0.316  10.836   2.673  0.0761 -0.2207 -0.3342
27427W        W42896   6.758   8.329   1.884  0.0360  0.1668  0.1089
27428W        W42897   0.449   3.943   0.613  0.2061 -0.2675  0.0852
27429W        W42898  14.154   7.681  11.503 -0.0732  0.0824  0.1307
27430W        W42899  14.191  12.027   2.964  0.0309 -0.3417  0.1546
27431W        W42900  13.987  12.019  11.020  0.2086 -0.1408 -0.2600
27432W        W42901   3.111  16.484   4.788 -0.3775 -0.2187  0.0570
27433W        W42902  13.266  13.682  10.794 -0.0066 -0.0989 -0.1597
27434W        W42903   1.056   5.895  11.264  0.1861 -0.2116 -0.0770
27435W        W42904   4.889  12.588  15.622  0.1757  0.2975 -0.0606
27436W        W42905   5.830   5.669   3.624 -0.0671 -0.3789  0.0801
27437W        W42906   2.355   3.326   5.617  0.3883  0.1700  0.1720
27438W        W42907   4.669   1.951  12.757  0.0604 -0.1743  0.0268
27439W        W42908  16.393  14.609   0.420 -0.0787 -0.1720 -0.2774
27440W        W42909  12.604   3.010  11.049 -0.0753  0.2470 -0.3455
27441W        W42910   9.414  16.878   2.144  0.4214  0.0572  0.0666
27442W        W42911  12.995   5.783  11.471 -0.2190 -0.1399  0.0460
27443W        W42912   4.553  11.133  14.301  0.1274 -0.0696  0.1480
27444W        W42913   5.187  15.535  15.464  0.0087  0.1581 -0.1615
27445W        W42914  16.827   2.993  12.792 -0.2384  0.0177 -0.0492
27446W        W42915  17.810  17.354   0.768 -0.0587 -0.1755  0.0397
27447W        W42916   1.980  17.682  13.472  0.0323  0.1695 -0.2566
27448W        W42917  13.156   8.246  14.722  0.1400  0.0363 -0.0375
27449W        W42918   8.078  13.758   4.445 -0.1371 -0.1739 -0.1411
27450W        W42919   6.885   0.428   1.051 -0.0431 -0.0495  0.1224
27451W        W42920  14.987   5.347  12.733 -0.0437 -0.0346  0.2447
27452W        W42921   8.048   0.914   0.272 -0.1244 -0.0817  0.2541
27453W        W42922   9.412  14.854  13.727 -0.1536  0.0129 -0.0069
27454W        W42923   5.638   2.570   4.189 -0.1664 -0.1744 -0.0282
27455W        W42924  10.478   6.290  11.114 -0.0175 -0.2362 -0.1956
27456W        W42925   8.155   6.512   4.046 -0.1035 -0.1214  0.1122
27457W        W42926   3.138   5.395   4.163  0.0279 -0.0278 -0.2670
27458W        W42927   5.434  14.942   0.558  0.3310 -0.0984  0.0196
27459W        W42928  17.655  12.014  11.873 -0.1628  0.0022 -0.2531
27460W        W42929  17.073   3.832  15.838  0.2310 -0.1015 -0.0709
27461W        W42930   7.204  11.537   2.706 -0.2376  0.0090  0.3269
27462W        W42931  11.659  13.890   3.325 -0.0218 -0.0046  0.1786
27463W        W42932  13.912  12.335  15.857 -0.5134 -0.0327 -0.0392
27464W        W42933   5.105   4.737   0.020  0.1615  0.2185  0.0870
27465W        W42934  13.437  11.356  13.230  0.1164  0.0827 -0.0683
27466W        W42935   1.931   8.855   4.941  0.0079 -0.0098 -0.1444
27467W        W42936   3.694   4.103   2.373  0.0909 -0.1797 -0.0986
27468W        W42937  14.276  10.239  13.632 -0.1270  0.0743  0.2282
27469W        W42938   3.273  12.893   2.809 -0.0204 -0.3162 -0.0847
27470W        W42939  14.375  14.937   2.911 -0.0615 -0.0538  0.2488
27471W        W42940  17.956   9.906  15.013 -0.2208  0.3495  0.0688
27472W        W42941   9.591   2.288   2.308  0.1070 -0.2142  0.0822
27473W        W42942  14.496  10.747   1.661 -0.2829 -0.2636 -0.0791
27474W        W42943   4.982   2.411  11.538  0.1982 -0.2743  0.3580
27475W        W42944   6.163  17.947   0.652  0.2878  0.0225 -0.1051
27476W        W42945  13.559   6.741   1.996  0.0590 -0.2188 -0.3634
27477W        W42946   5.991   3.325  13.777  0.0302 -0.0790 -0.2028
27478W        W42947   3.933   0.084   4.981  0.1587 -0.2063  0.0701
27479W        W42948  15.826  17.471   2.997 -0.0335 -0.2181  0.3658
27480W        W42949  16.663  13.770   0.124 -0.0753  0.1849  0.1290
27481W        W42950  17.892  14.510  12.649 -0.1227  0.0438 -0.1318
27482W        W42951  18.214   8.113   2.918  0.2375  0.2649  0.1619
27483W        W42952   8.027  15.763   2.905  0.1783 -0.0472  0.0717
27484W        W42953   5.931   6.621  13.298  0.0430  0.0279 -0.1256
27485W        W42954   2.020  15.681   1.115  0.4183  0.2402  0.1718
27486W        W42955  16.582   6.631   1.196 -0.1674 -0.3927 -0.2061
27487W        W42956   6.969  12.755  12.289  0.1318 -0.0584  0.2645
27488W        W42957   2.527   6.448   2.209 -0.0819 -0.1471 -0.2182
27489W        W42958  10.627   8.436   0.408 -0.0331  0.0352 -0.4100
27490W        W42959  11.475  15.693  12.897 -0.1732 -0.0018  0.1502
27491W        W42960  16.518  18.251  12.246 -0.0845 -0.1098  0.0405
27492W        W42961   8.000  11.488  14.780  0.1895  0.1203  0.2636
27493W        W42962   9.408  10.071   1.331 -0.0723 -0.2150  0.0908
27494W        W42963   2.704  15.996  11.745  0.0910 -0.0013  0.0479
27495W        W42964  10.455  12.231  15.883 -0.1606  0.0175  0.1651
27496W        W42965   3.839   5.476  16.086 -0.4638  0.1142  0.1130
27497W        W42966   8.796  12.229   2.904 -0.0278  0.1287 -0.0518
27498W        W42967   5.806   3.351  13.198 -0.2403 -0.0961  0.0128
27499W        W42968   0.206  16.867   4.926  0.0003 -0.0240 -0.0721
27500W        W42969   5.761   2.525   0.619 -0.4161 -0.0488  0.0682
27501W        W42970   6.717   0.881   4.738 -0.0654 -0.1669  0.1029
27502W        W42971   8.817  16.828   5.428 -0.1974  0.0794 -0.2037
27503W        W42972   7.295  11.782   0.732 -0.0975  0.0832 -0.0760
27504W        W42973   1.149   4.473   1.562 -0.1518 -0.2606  0.1065
27505W        W42974  15.785  16.755  14.900 -0.0721  0.0181 -0.0648
27506W        W42975  12.763   7.227  13.009  0.1057  0.3138 -0.0858
27507W        W42976  14.163  15.904   0.089 -0.0194 -0.0152 -0.4756
27508W        W42977  12.070  12.282   5.631  0.3956  0.2812 -0.2675
27509W        W42978  15.073   5.850  13.080 -0.1905 -0.3142  0.0081
27510W        W42979  17.111   0.601  11.960 -0.4362  0.1353 -0.2122
27511W        W42980   3.732  16.893  15.407  0.2740  0.1466  0.0676
27512W        W42981   2.100   1.887  15.088 -0.1055 -0.2466  0.0085
27513W        W42982  15.149  11.994   0.967 -0.3603 -0.0778 -0.2044
27514W        W42983  17.201  17.901   2.570 -0.1718  0.0605  0.0330
27515W        W42984   2.775   6.926   1.190  0.1091 -0.1062  0.0532
27516W        W42985   3.006  13.089  15.553  0.0205 -0.0327 -0.0823
27517W        W42986   9.386   7.877   1.200  0.0442 -0.0251 -0.0225
27518W        W42987   3.727  16.945   5.280 -0.1768 -0.3698 -0.1925
27519W        W42988  10.999   2.816   1.501 -0.2282  0.0018 -0.2333
27520W        W42989  10.764  13.467  14.154 -0.0576  0.0175  0.0883
27521W        W42990   6.457  12.825  11.502 -0.1816 -0.0116  0.0712
27522W        W42991   4.798  11.484  14.788  0.2287 -0.0877  0.0529
27523W        W42992   6.675   3.515  16.051 -0.0582  0.0558  0.0411
27524W        W42993   8.954  14.308   3.535 -0.0141  0.0538  0.1080
27525W        W42994  12.882   1.361   3.003 -0.0209  0.2097 -0.1902
27526W        W42995  12.037   8.062  14.420  0.1234  0.0773  0.0402
27527W        W42996   2.718  11.126  15.786 -0.0084 -0.0267  0.0433
27528W        W42997  10.736  14.935  10.862 -0.0459  0.1503 -0.0807
27529W        W42998   5.074   2.601  15.129  0.0195  0.0730 -0.0796
27530W        W42999  11.424   6.321  11.916 -0.2704  0.0877 -0.2897
27531W        W43000   3.206   3.576   5.856  0.2189 -0.2110  0.0838
27532W        W43001   9.215  15.746  10.185  0.0642  0.0728  0.1747
27533W        W43002   6.091   7.189   0.629 -0.1790  0.2921 -0.1949
27534W        W43003   2.766  10.145  11.173 -0.0027 -0.1021  0.0499
27535W        W43004   2.115  12.509   0.431  0.0609 -0.0457  0.1026
27536W        W43005   5.128   5.954  12.324 -0.3188 -0.1904 -0.3107
27537W        W43006  10.434  16.393   0.174  0.1615 -0.2715 -0.0724
27538W        W43007  14.722   3.767  14.767  0.1606 -0.1025  0.1659
27539W        W43008   0.153  12.190   5.633 -0.1067  0.1050 -0.0763
27540W        W43009  11.671   5.547   1.884  0.0143 -0.0715  0.2138
27541W        W43010   9.536  11.140  14.955  0.4313 -0.0148  0.2533
27542W        W43011   1.804  15.321  15.997  0.2034 -0.0629 -0.1214
27543W        W43012   2.146   7.410  12.875 -0.0576 -0.1207  0.2216
27544W        W43013   1.021  12.316   6.615  0.2241  0.2964  0.1681
27545W        W43014  18.006  15.126  15.650  0.3748 -0.3639 -0.0759
27546W        W43015   2.672   1.909   4.225  0.1049 -0.3191  0.0189
27547W        W43016   2.668   1.630  11.814  0.1002 -0.0883  0.1359
27548W        W43017  13.160   0.742   3.331 -0.1885 -0.0249 -0.0053
27549W        W43018  11.942  17.575  11.564  0.0402  0.0075 -0.2869
27550W        W43019  17.400   3.069  15.302  0.0534 -0.1662  0.1092
27551W        W43020   3.915  16.487   0.343 -0.0996 -0.3122 -0.1428
27552W        W43021   4.382   8.521  16.029 -0.1428 -0.4036  0.1108
27553W        W43022   9.847   5.749  12.433 -0.0715 -0.4663 -0.0306
27554W        W43023   7.392   7.229   4.630  0.1986  0.0516 -0.1816
27555W        W43024  16.747  16.405   4.700 -0.0959  0.0275  0.0500
27556W        W43025  16.503  11.135  14.055  0.1186  0.0586  0.0246
27557W        W43026   3.590  11.241   3.169  0.0566  0.1636 -0.2512
27558W        W43027   8.443   0.586  11.487 -0.1510  0.0668  0.2005
27559W        W43028   2.574   8.981   1.794  0.0940  0.0773  0.0044
27560W        W43029  16.988   0.911  12.289  0.1870 -0.0626 -0.1121
27561W        W43030   8.154   5.382   4.030 -0.2224 -0.2884  0.0477
27562W        W43031  10.108   4.160   4.506 -0.1456 -0.0735 -0.1380
27563W        W43032  15.256   2.672   2.039 -0.1382  0.0393  0.0268
27564W        W43033  10.959   4.804  14.444 -0.0252  0.0622 -0.4045
27565W        W43034  15.430  17.946   0.500 -0.0798 -0.0672  0.0534
27566W        W43035  15.533  13.133  15.674 -0.0529  0.1623 -0.0081
27567W        W43036   1.314  15.499  15.919  0.3671 -0.1259 -0.0924
27568W        W43037   5.869  18.141   3.135  0.1258 -0.1831  0.2331
27569W        W43038  14.185   7.605   5.922 -0.1056 -0.0284 -0.2937
27570W        W43039   8.312   5.708  12.763 -0.0316  0.1530 -0.0870
27571W        W43040   7.303   3.473   1.830 -0.0972 -0.2179  0.1057
27572W        W43041   0.198  14.125   0.623  0.0050  0.0923  0.2339
27573W        W43042  16.836   2.775   5.380 -0.0588 -0.0205  0.2150
27574W        W43043   5.151  11.533   0.878  0.1113  0.0891 -0.0013
27575W        W43044   4.426  11.559   0.708 -0.0419  0.0955 -0.3670
27576W        W43045  10.000   6.951   0.317  0.1476  0.2073  0.1610
27577W        W43046   0.887   6.883  11.523 -0.0183  0.1781 -0.2255
27578W        W43047   2.645   2.184   3.785  0.0033 -0.2474  0.0492
27579W        W43048   2.067   9.395   0.508  0.1604  0.0357 -0.0286
27580W        W43049  11.856  14.034   0.962 -0.0137  0.3339  0.1235
27581W        W43050  11.048  12.583  14.444 -0.1433  0.2880  0.2707
27582W        W43051   3.066   8.306   0.006  0.0622 -0.0345 -0.1128
27583W        W43052   5.804  14.163   0.714 -0.0196 -0.1200  0.1342
27584W        W43053  17.175  16.432  11.400  0.1185 -0.1333  0.1706
27585W        W43054  11.654   4.924  11.186 -0.0071 -0.0042 -0.1543
27586W        W43055   5.765  12.511  13.798  0.0984  0.3553 -0.0314
27587W        W43056  12.955   6.244   1.011  0.2869 -0.1203  0.1961
27588W        W43057   1.881  17.193  14.673  0.1223 -0.1492 -0.0431
27589W        W43058   4.674   2.031  13.255 -0.1142  0.1504  0.1016
27590W        W43059  14.044  12.917   1.447 -0.2345 -0.1478 -0.1651
27591W        W43060   1.575   4.640  14.385 -0.1132 -0.0344 -0.2244
27592W        W43061   0.307  10.699   0.419 -0.2982  0.0237 -0.2498
27593W        W43062   3.490   5.655  14.064  0.2016 -0.0340 -0.1849
27594W        W43063   1.883  14.662   1.216  0.1262  0.1008 -0.1378
27595W        W43064   8.585   2.934   2.643 -0.0001  0.1152 -0.1476
27596W        W43065   5.733   1.762   4.428  0.2762 -0.1494  0.0219
27597W        W43066  14.050   3.873   4.845 -0.0524 -0.0137  0.1546
27598W        W43067  15.978  15.135   5.984 -0.3109 -0.2471  0.3354
27599W        W43068  17.143  14.616  14.738 -0.1105 -0.2026 -0.2062
27600W        W43069   4.622  13.478   0.488  0.0451  0.0784  0.0549
27601W        W43070  13.596   1.690  15.002 -0.0202  0.0616  0.0378
27602W        W43071  12.217  17.297  14.809 -0.0251 -0.2201  0.0037
27603W        W43072   5.077  17.156  15.539 -0.0295 -0.0951  0.1662
27604W        W43073   3.417   9.209  13.690  0.2897  0.1657 -0.2521
27605W        W43074   5.141   9.735   4.379  0.1227 -0.1361 -0.2237
27606W        W43075  13.396   4.205   2.841 -0.2351  0.1151 -0.0008
27607W        W43076  11.116  15.472  15.625  0.1123 -0.2718  0.0635
27608W        W43077  11.220   0.823   2.943  0.1998  0.0026  0.1038
27609W        W43078   7.045  16.763   2.910  0.0405  0.2930  0.1014
27610W        W43079  11.335   4.167  11.301 -0.1225 -0.1652  0.2221
27611W        W43080  10.084  16.292  14.799 -0.1157  0.2732 -0.2333
27612W        W43081   2.590  17.346  12.119  0.2828  0.0588 -0.0365
27613W        W43082  14.240   1.716   6.241 -0.1516 -0.0512  0.1484
27614W        W43083  10.970  17.320  15.652 -0.1962  0.0122  0.0787
27615W        W43084   1.937  15.385  14.613 -0.0350  0.3071  0.2005
27616W        W43085  14.100   6.437   4.384  0.1587 -0.0280 -0.0924
27617W        W43086   0.154   9.037   4.060 -0.2321  0.1084  0.1054
27618W        W43087   9.335   9.169   0.371  0.1676  0.0062 -0.4229
27619W        W43088   6.993  16.603   2.079  0.1732  0.0961 -0.1043
27620W        W43089  14.119  11.444   2.065  0.2152 -0.0672 -0.4939
27621W        W43090   3.072  18.233  11.177 -0.0664 -0.1218 -0.2645
27622W        W43091  10.962   3.764   0.332  0.0676  0.0258 -0.0206
27623W        W43092   7.964  16.847   3.168 -0.0510  0.0806  0.0398
27624W        W43093   3.829  11.372  14.663 -0.1058 -0.0779 -0.0020
27625W        W43094   9.427  13.135  11.749 -0.0639  0.2338  0.0643
27626W        W43095   9.586  13.971   3.877 -0.0823 -0.2946 -0.0032
27627W        W43096   3.157   0.345   2.467 -0.0957  0.1708 -0.1201
27628W        W43097   2.726   3.308  14.466  0.0032  0.0240  0.1950
27629W        W43098  13.130  12.443   1.163  0.1862 -0.0828  0.1070
27630W        W43099   4.357  12.434   5.245  0.2629  0.1306 -0.0505
27631W        W43100   3.892  14.947   3.248 -0.2482 -0.0009  0.1016
27632W        W43101   3.543   0.922  11.866  0.0406 -0.1165 -0.2573
27633W        W43102   7.893   3.076   2.988 -0.0351  0.2064  0.2644
27634W        W43103   1.774   1.538  10.701 -0.0679  0.2755 -0.1771
27635W        W43104  16.622  16.327   3.384 -0.1091  0.0827 -0.1731
27636W        W43105   4.989   8.418   3.113  0.2631  0.2092  0.1145
27637W        W43106   9.473   7.292   2.798  0.1335 -0.1291  0.2577
27638W        W43107   6.937  17.863   5.676  0.3676 -0.1051  0.0917
27639W        W43108  11.184   8.990   5.995 -0.0993  0.1106 -0.1250
27640W        W43109   6.491   6.196  11.194 -0.2989 -0.0345  0.0330
27641W        W43110  14.406  15.034  12.750 -0.1819 -0.0880  0.0459
27642W        W43111   6.092   2.717   4.335 -0.1448  0.1309  0.1231
27643W        W43112   5.863  10.958   0.912 -0.0711 -0.1944 -0.2173
27644W        W43113  13.938  10.937  14.735 -0.0648  0.2835 -0.0778
27645W        W43114   8.332   0.353   1.873  0.0838 -0.1245  0.1680
27646W        W43115   0.259  16.738   2.648  0.2539 -0.1948 -0.1108
27647W        W43116  12.204  11.425  15.970  0.2346 -0.1482  0.2818
27648W        W43117  16.662   7.039   2.215 -0.0348 -0.0205  0.1213
27649W        W43118   6.473  14.200  15.027  0.3899 -0.0843 -0.1214
27650W        W43119   1.607   8.358  15.496 -0.2495  0.0646 -0.0487
27651W        W43120  16.343   5.003  11.343 -0.0141  0.0306  0.1407
27652W        W43121  14.139  18.284   2.900 -0.0939 -0.0954  0.2928
27653W        W43122  12.685   4.907   1.434 -0.0137 -0.2039  0.1282
27654W        W43123   8.376   2.041  14.599 -0.1821  0.0838  0.0571
27655W        W43124   0.573  16.384  13.027  0.0102  0.4389 -0.0756
27656W        W43125   6.517   0.673   3.719 -0.0510 -0.2876  0.2754
27657W        W43126   1.274   2.383  14.936  0.1420 -0.0685 -0.1637
27658W        W43127  14.021   9.076   4.452 -0.0799  0.0666  0.1234
27659W        W43128  14.486  15.054  15.850  0.1452  0.0363  0.0656
27660W        W43129  12.885   9.095   1.414 -0.2196  0.1554  0.3842
27661W        W43130  16.793  12.919  13.334 -0.1448 -0.3429 -0.1157
27662W        W43131  11.504   6.106   4.004 -0.1242  0.0735  0.1298
27663W        W43132   4.267   8.100  14.732 -0.1582 -0.1567 -0.1755
27664W        W43133  18.199   6.282  15.419 -0.0351  0.0062  0.0092
27665W        W43134   2.924  16.444  11.731  0.0087  0.1237  0.1700
27666W        W43135  16.336  10.815   5.020 -0.0124 -0.3331  0.0437
27667W        W43136  14.408   8.840  10.239  0.0297 -0.0576  0.2041
27668W        W43137   6.023   8.043  15.126  0.2073 -0.0884 -0.0657
27669W        W43138   2.710   8.097   2.455  0.1195 -0.1663 -0.0020
27670W        W43139  18.161  14.436  13.223 -0.1792  0.0984  0.0437
27671W        W43140  16.607   0.330   2.969 -0.0361 -0.2177  0.2234
27672W        W43141   2.133  16.931   3.595 -0.0815  0.0681  0.1339
27673W        W43142   6.887  11.221   2.437 -0.0101  0.1177 -0.2510
27674W        W43143   9.903   1.762   1.124 -0.0899 -0.0757 -0.0182
27675W        W43144   2.595  18.257  12.889  0.3092  0.2179  0.1582
27676W        W43145   9.096  12.336  12.645 -0.1131 -0.2412  0.0301
27677W        W43146   9.226   2.964  15.221 -0.0346  0.1273 -0.2643
27678W        W43147   5.546   8.475   1.912  0.2107  0.1644 -0.1242
27679W        W43148  16.671  17.291   5.870 -0.1601  0.1559 -0.0939
27680W        W43149  16.427   8.376  13.621  0.1277 -0.0858 -0.2808
27681W        W43150   5.476  16.421  13.051 -0.2757 -0.0594 -0.3145
27682W        W43151  16.709  14.888   0.596 -0.2381 -0.1499 -0.2389
27683W        W43152  15.572   4.740  13.327 -0.3402 -0.0655 -0.1046
27684W        W43153   3.816   5.820   4.884  0.2032  0.2576 -0.0911
27685W        W43154  13.245  15.363   0.217  0.2583 -0.1215 -0.3504
27686W        W43155   1.685  10.172  13.685  0.2470  0.1647 -0.2208
27687W        W43156   4.739   5.970  12.659  0.0337  0.3064  0.0392
27688W        W43157   8.773   0.873  12.193 -0.0529  0.0310  0.0160
27689W        W43158   2.138  17.517  11.696 -0.1773 -0.2648 -0.3972
27690W        W43159   0.811  16.638   4.312 -0.1589 -0.2349 -0.1969
27691W        W43160  10.732  14.202  15.187  0.3694  0.0879 -0.0191
27692W        W43161   4.246   9.494  15.854 -0.1053  0.0744  0.0967
27693W        W43162   4.108   2.533   5.404 -0.0627 -0.2851  0.0786
27694W        W43163  14.354  11.459  15.970  0.3465  0.0203  0.0243
27695W        W43164  18.118   3.242  15.697 -0.1219 -0.3438  0.2763
27696W        W43165   4.009   5.671  11.902  0.1317  0.0965  0.0684
27697W        W43166  15.626  14.806   5.290  0.2910  0.2262 -0.2347
27698W        W43167   9.098  14.409  12.770  0.3220  0.1989 -0.1069
27699W        W43168   9.901   9.680   3.301 -0.2077  0.1623  0.1491
27700W        W43169  16.751   4.627   5.039 -0.1060  0.0714  0.3440
27701W        W43170   5.055   8.107   4.416 -0.1214 -0.1134 -0.0862
27702W        W43171   0.808  12.476   4.702  0.1801 -0.1590  0.1405
27703W        W43172   4.646   6.457   0.733 -0.0576 -0.2069  0.0097
27704W        W43173   2.784  11.847   0.120 -0.0113 -0.0421  0.0341
27705W        W43174  16.645   5.801   1.344 -0.0813 -0.3593  0.6304
27706W        W43175  15.031  13.231   3.971  0.0576  0.1340 -0.1510
27707W        W43176   7.079   5.395  14.076  0.0603 -0.1348  0.0102
27708W        W43177   0.939  15.149  11.603  0.1082 -0.0022  0.1210
27709W        W43178  16.827   4.419   0.002  0.2528  0.0383  0.1931
27710W        W43179  13.418   5.870   0.758  0.1851 -0.0128 -0.0014
27711W        W43180  10.598   3.256  14.614 -0.2003  0.1776  0.1852
27712W        W43181  12.526   6.388   2.005 -0.2737  0.2134  0.2044
27713W        W43182   7.044   0.790   0.544  0.0082 -0.0304 -0.1301
27714W        W43183   9.638  14.819   5.069 -0.4226  0.1678  0.0512
27715W        W43184   9.014  12.307   0.947 -0.0876  0.1771 -0.2983
27716W        W43185   6.855   9.465   1.740 -0.2302  0.1174  0.0977
27717W        W43186   9.065   6.502  10.744  0.0649 -0.0239 -0.1673
27718W        W43187  16.915   2.269  13.538  0.0422 -0.1023 -0.0993
27719W        W43188   7.166  14.787  14.848 -0.1323  0.0554 -0.0712
27720W        W43189   0.755   8.999  13.916  0.0726  0.0224  0.1909
27721W        W43190   2.404  13.206   1.712  0.0801 -0.0346  0.1079
27722W        W43191   6.561   0.482  15.140 -0.1735  0.2517  0.1938
27723W        W43192   6.376   6.287  13.314 -0.0785 -0.1441  0.0569
27724W        W43193   8.580   9.945  14.403  0.0256  0.1113  0.2368
27725W        W43194   9.437  12.965   1.283  0.0320 -0.0212 -0.2032
27726W        W43195  16.583  11.494  10.637  0.1182  0.2259 -0.2680
27727W        W43196   2.727   6.906  13.993  0.0775  0.1468  0.0666
27728W        W43197  10.473   5.048  11.460 -0.1449 -0.3406  0.1260
27729W        W43198  11.436   0.687  15.342 -0.0054 -0.0445 -0.1688
27730W        W43199   3.648  18.050  10.783 -0.1386  0.2607  0.0132
27731W        W43200  11.089  16.359  16.052  0.1170  0.3442 -0.1492
27732W        W43201   0.051   3.685   0.276  0.1816  0.2061  0.1441
27733W        W43202   7.464   6.692   4.640  0.1050  0.0905  0.2086
27734W        W43203   8.669   0.962   1.641  0.0611 -0.0479  0.2304
27735W        W43204  10.843  12.296  14.105  0.0974  0.0118  0.0774
27736W        W43205  15.026  11.735   3.318 -0.1024 -0.3773  0.1098
27737W        W43206  15.939   6.045  13.369 -0.4170  0.0993 -0.0679
27738W        W43207  18.147  14.319  15.496 -0.0336  0.2412 -0.0427
27739W        W43208  15.517   8.934  13.313  0.0407  0.0448 -0.3576
27740W        W43209   2.399   2.673   1.310 -0.3024 -0.0697  0.2352
27741W        W43210  10.934   9.727   0.168  0.3084 -0.3117 -0.1799
27742W        W43211  13.010  15.210   6.373 -0.0166 -0.0210  0.1286
27743W        W43212  11.318  15.065   5.267  0.1092  0.3416 -0.0575
27744W        W43213   3.373  14.164   0.193  0.1678  0.2191 -0.2573
27745W        W43214   3.213  11.029  14.047 -0.0643  0.1023 -0.1389
27746W        W43215  16.621  11.965  13.795 -0.0232 -0.0932 -0.0602
27747W        W43216  17.295   2.725   5.022  0.0394 -0.2616 -0.1214
27748W        W43217  11.514   5.399  13.797 -0.1265  0.0370 -0.2233
27749W        W43218  12.046   0.485   5.017 -0.2386 -0.2739 -0.2282
27750W        W43219  13.292   1.010   2.927 -0.0515  0.0913  0.0979
27751W        W43220  15.176   8.363   2.124  0.4189  0.2518  0.1796
27752W        W43221   7.838   4.107  13.402 -0.1113 -0.1507  0.0087
27753W        W43222  16.678   0.489  15.930 -0.0528 -0.2532  0.0674
27754W        W43223  11.272   8.633  12.708 -0.0064 -0.0957  0.1910
27755W        W43224   6.267   9.909  15.004 -0.1664  0.0698 -0.1814
27756W        W43225   5.976   9.020  11.837 -0.1211  0.1400  0.0797
27757W        W43226   4.786   9.309  11.664 -0.2193  0.0974  0.2749
27758W        W43227   1.058   8.213  13.455 -0.0115 -0.0646 -0.0132
27759W        W43228   6.071  12.499  12.340  0.0523 -0.0259  0.0935
27760W        W43229  16.827  10.046   4.416  0.0666  0.0053  0.1302
27761W        W43230   4.808   4.021  14.978 -0.0424  0.0205 -0.0019
27762W        W43231   4.202  16.466   1.651 -0.1545  0.0540 -0.0547
27763W        W43232   8.518   3.342  16.092 -0.0054 -0.1771  0.0411
27764W        W43233   1.948   8.856  14.044  0.0625 -0.0989  0.3549
27765W        W43234   4.713   9.749  14.522  0.3930 -0.2905  0.2513
27766W        W43235   1.670   7.092   0.049 -0.0304  0.1236  0.2092
27767W        W43236   7.439   4.350   5.235  0.2673  0.0493 -0.2624
27768W        W43237  16.370   3.124  15.504 -0.0700 -0.0205  0.1320
27769W        W43238   4.381  16.367   1.166 -0.0241 -0.0901  0.0218
27770W        W43239   4.729   1.936  15.778  0.0887 -0.4020 -0.2528
27771W        W43240   6.598   7.516   5.065 -0.1666 -0.0285  0.0172
27772W        W43241  16.387   8.002  12.569  0.2285  0.0218  0.1335
27773W        W43242  15.287  12.827  14.529  0.0338  0.0756 -0.2177
27774W        W43243  14.536   8.730  12.140 -0.0052  0.2188  0.0070
27775W        W43244  15.463  11.987  14.778 -0.3900 -0.1618 -0.3223
27776W        W43245  10.331  17.274  11.288 -0.0508  0.0889 -0.1819
27777W        W43246   9.740   2.688   1.337 -0.2553  0.4302 -0.0814
27778W        W43247  17.356  12.698   3.907 -0.0268 -0.0073  0.0731
27779W        W43248   6.675   3.760  13.507 -0.1864 -0.1036 -0.1408
27780W        W43249   5.607  12.095  11.201 -0.0162  0.1888  0.0315
27781W        W43250   9.049  13.568   2.923  0.1089 -0.1608  0.1300
27782W        W43251   2.803   6.850   2.695  0.3837  0.0452  0.1250
27783W        W43252   0.945   0.833  14.045  0.1634 -0.0360  0.2247
27784W        W43253   8.838  12.221  14.653  0.0514  0.1360 -0.0275
27785W        W43254  13.208  10.479   2.475  0.0072 -0.0308 -0.1769
27786W        W43255  17.348   5.487   4.833  0.0331  0.0792  0.2617
27787W        W43256  16.251   9.630   2.818 -0.0334 -0.1762  0.0084
27788W        W43257   2.388  12.312   2.902 -0.1255 -0.1224 -0.2463
27789W        W43258   2.976   5.057   2.505  0.0834  0.2924 -0.1038
27790W        W43259   3.946  15.824   4.594  0.1579 -0.2240 -0.1187
27791W        W43260   7.338   2.234   3.347  0.1157 -0.0002 -0.3048
27792W        W43261  16.788  13.836  13.860  0.1978 -0.1591  0.1705
27793W        W43262  18.059   7.575   3.867  0.2602 -0.0653  0.2315
27794W        W43263  12.805  14.367   1.367  0.0335  0.1840  0.0184
27795W        W43264  11.750   5.685   0.190 -0.0519  0.3353 -0.1247
27796W        W43265  12.355  16.467  14.495 -0.3740 -0.2159 -0.1525
27797W        W43266  15.828  15.104   1.195  0.1002  0.0989  0.1697
27798W        W43267   2.213  15.548   4.255 -0.3090 -0.5059  0.0807
27799W        W43268   4.286   6.916  13.732 -0.1317 -0.0020 -0.1267
27800W        W43269   8.701  13.659   2.013 -0.0041 -0.2404 -0.1448
27801W        W43270   2.512   4.279   4.789 -0.0204  0.0425 -0.1440
27802W        W43271   4.581  13.655   2.322  0.1835 -0.2708  0.4326
27803W        W43272   7.299   1.194  12.865  0.0273  0.0530 -0.1102
27804W        W43273   1.382   3.224   3.492  0.0864  0.2481 -0.1703
27805W        W43274  14.492  17.761   3.460  0.4862  0.0637 -0.2015
27806W        W43275   4.404   2.567   1.337 -0.1903 -0.0540 -0.1682
27807W        W43276   7.849  11.693   4.567  0.1366  0.0017 -0.0441
27808W        W43277  10.952   7.574   0.558 -0.0592  0.0515 -0.0897
27809W        W43278   4.222   4.942   1.309 -0.0277 -0.0055 -0.4130
27810W        W43279  10.736   0.400  14.552 -0.0299  0.0270  0.0663
27811W        W43280  10.242  17.895  12.444 -0.1298 -0.1505 -0.0751
27812W        W43281   7.206  16.360  11.295 -0.1501  0.0777  0.1513
27813W        W43282  16.932   9.575   1.003  0.2647  0.0324  0.3281
27814W        W43283  11.756   1.831   5.128  0.1278  0.1326 -0.0477
27815W        W43284  15.064   5.887  16.067  0.0235  0.2613  0.2027
27816W        W43285   1.945  17.069   1.361  0.0506  0.1458 -0.1356
27817W        W43286   0.268   4.278   4.206  0.0057 -0.1428 -0.1808
27818W        W43287  11.184  10.844   3.726  0.1329 -0.0760  0.0211
27819W        W43288  14.263   8.081  13.333 -0.0991  0.1685 -0.0126
27820W        W43289   5.876  16.677  12.244  0.0428  0.2242  0.1862
27821W        W43290   5.907   4.199  13.739 -0.0102  0.0373  0.1786
27822W        W43291   9.368   3.992   2.353 -0.0556 -0.0059  0.0992
27823W        W43292  14.327  17.891  10.658 -0.0048  0.0855 -0.2645
27824W        W43293   8.444  11.935   2.657 -0.0329 -0.5309  0.0459
27825W        W43294   5.376   3.480   2.431 -0.1359  0.0035 -0.1143
27826W        W43295  16.128  10.820  11.748 -0.2840 -0.3684  0.1663
27827W        W43296  14.004  13.534   2.474  0.2288  0.0385  0.1374
27828W        W43297   0.225   2.895  15.902  0.1190 -0.4310 -0.2262
27829W        W43298  17.728   1.773  12.158 -0.0939  0.1430  0.0204
27830W        W43299   6.955  10.326   3.381 -0.3521  0.0859 -0.0018
27831W        W43300  14.231  16.211  11.030  0.1770  0.0786  0.2013
27832W        W43301   5.646   9.933  11.119 -0.0997 -0.0020  0.2429
27833W        W43302   0.445  10.206  10.945 -0.2241 -0.1397 -0.1115
27834W        W43303  13.870   3.558  15.249 -0.0473  0.0547 -0.1702
27835W        W43304  12.814  17.031  16.106  0.0583  0.1835  0.2067
27836W        W43305   5.089   6.776   2.091  0.4383 -0.1393 -0.1000
27837W        W43306  12.577  10.297   5.764  0.2496  0.0887 -0.2720
27838W        W43307  16.984  11.161  14.178  0.0987 -0.1370  0.1395
27839W        W43308   3.925  17.035   0.798 -0.0757 -0.2172 -0.3258
27840W        W43309  12.912  10.248   2.095 -0.0705  0.3418  0.1018
27841W        W43310   1.952   8.534   4.352  0.0426 -0.0553 -0.0371
27842W        W43311  14.875   5.816   3.155  0.1781 -0.1202  0.0184
27843W        W43312   5.962   7.905   3.508  0.1919 -0.1177  0.3420
27844W        W43313   4.079  16.354  12.128 -0.2167  0.2005 -0.0132
27845W        W43314  13.913  11.599   4.963 -0.2651 -0.2207 -0.1201
27846W        W43315  11.267   9.350   0.427 -0.0674 -0.2765 -0.2156
27847W        W43316   9.825   6.808   3.779  0.2966 -0.3565  0.0510
27848W        W43317  14.097  13.528   1.559 -0.0426  0.0932 -0.0183
27849W        W43318  14.637  10.879   3.231  0.0216 -0.1888  0.0179
27850W        W43319   6.835   4.952  15.303  0.2886  0.1600  0.1104
27851W        W43320  15.319   1.706  13.972  0.1820  0.1007  0.0996
27852W        W43321  11.198   0.538   4.752 -0.1997 -0.0926 -0.0400
27853W        W43322   4.880  15.074  14.374  0.2602  0.3063 -0.0291
27854W        W43323  15.974   2.826   0.715 -0.0498  0.0626  0.0497
27855W        W43324   8.506   9.004  11.071 -0.0066 -0.0893 -0.3306
27856W        W43325   1.018  13.189   3.845  0.2433 -0.0168  0.1404
27857W        W43326   7.856  13.582  16.108  0.0262  0.0862 -0.2450
27858W        W43327   6.523   9.208  13.736 -0.2304 -0.0598  0.2239
27859W        W43328   6.940   6.489  14.316 -0.2223  0.1693  0.0127
27860W        W43329  12.220  12.230   4.696 -0.2387  0.1857 -0.1916
27861W        W43330  11.374   5.800  14.171 -0.0400  0.0392 -0.0533
27862W        W43331  17.786  11.276   2.055 -0.1448  0.2219  0.0446
27863W        W43332   8.028   6.762  13.495  0.1754  0.0739 -0.3198
27864W        W43333   8.395   8.038  14.110 -0.0327 -0.0749  0.1407
27865W        W43334  15.318   1.047   4.779 -0.2280  0.3856 -0.0442
27866W        W43335  11.242  14.030  12.170 -0.0864  0.2240  0.3526
27867W        W43336   6.974  13.627  15.554  0.3273 -0.3144 -0.3821
27868W        W43337  14.337   8.153   1.143 -0.0858 -0.0162  0.0390
27869W        W43338   6.410   0.692  14.703 -0.1472  0.0530  0.1264
27870W        W43339  12.160  13.465  14.375  0.0030  0.1013  0.0040
27871W        W43340  12.345  13.242  15.756 -0.0323 -0.2773 -0.3554
27872W        W43341   7.174   3.760   1.418 -0.0253  0.1459 -0.3335
27873W        W43342  14.560   1.843  12.039 -0.1385  0.0269  0.1356
27874W        W43343   6.486   7.994  11.378  0.1098 -0.0168  0.3159
27875W        W43344   6.041  12.384   0.797 -0.0091 -0.0702 -0.4151
27876W        W43345  17.413   0.071  15.039 -0.3414 -0.1459  0.1546
27877W        W43346  13.708   4.285   1.705 -0.0259 -0.0297 -0.0401
27878W        W43347  11.549   3.137   2.288 -0.1170 -0.1037 -0.0746
27879W        W43348   1.404  17.537   5.633  0.0682  0.0478 -0.1043
27880W        W43349  10.681  11.952  12.160 -0.1517 -0.1388 -0.1099
27881W        W43350  15.715  11.505  15.188  0.0110 -0.0638  0.2241
27882W        W43351   8.021  12.902  13.745 -0.0132 -0.1281 -0.1752
27883W        W43352  12.812  15.670  13.416 -0.3231 -0.0054 -0.0968
27884W        W43353   1.227   2.757  13.734 -0.1152  0.0514  0.0401
27885W        W43354   2.329  14.223  14.169  0.2115 -0.1593 -0.2796
27886W        W43355  10.519   8.243  10.953  0.0035 -0.1837 -0.0390
27887W        W43356  15.595  17.048   1.481 -0.0775  0.2291  0.5326
27888W        W43357   8.816  11.732  15.763  0.1007  0.0992 -0.1539
27889W        W43358  15.993  12.457  11.196 -0.0480 -0.0478 -0.0579
27890W        W43359   2.483   9.153  11.720  0.0236  0.2597 -0.0351
27891W        W43360   6.620   4.381  14.497 -0.0337 -0.0078  0.1473
27892W        W43361   8.618  13.151   2.718 -0.0395  0.0418  0.1197
27893W        W43362  12.504   8.725   1.402 -0.1630  0.0771  0.5460
27894W        W43363  11.410   7.656  13.099  0.0079  0.0043 -0.1570
27895W        W43364   1.579   1.005   3.729 -0.3846  0.1792  0.1104
27896W        W43365  15.864   1.535   6.187 -0.1314  0.2360  0.0279
27897W        W43366  10.831   9.412   3.417 -0.2360 -0.1121 -0.0714
27898W        W43367   5.899   4.141   2.827  0.2498 -0.0978  0.2627
27899W        W43368  16.670   4.321  14.455 -0.2822 -0.1396  0.1239
27900W        W43369  11.716  12.666   2.910  0.1360  0.0067 -0.3259
27901W        W43370   2.395   2.859  14.462 -0.0279 -0.0423 -0.0476
27902W        W43371   7.210   6.386   0.037  0.0771 -0.1144 -0.2440
27903W        W43372  14.399   1.456  14.794 -0.1382 -0.4909  0.1229
27904W        W43373  10.051  15.208   1.221  0.1205 -0.3221  0.1490
27905W        W43374   6.658   2.781  11.188 -0.2595 -0.1556  0.0873
27906W        W43375  15.020  13.334   2.063  0.0389 -0.1866  0.0427
27907W        W43376  14.277  12.290   2.577 -0.0831 -0.1447  0.3586
27908W        W43377  12.853   6.297  11.636 -0.1020 -0.4010 -0.3015
27909W        W43378  16.271  16.256   3.016 -0.0883  0.0807 -0.0123
27910W        W43379  11.973   2.522  12.936  0.2388 -0.4322 -0.2354
27911W        W43380   5.247   2.380  12.300  0.2231  0.1647 -0.2150
27912W        W43381  14.921  14.786   5.052 -0.3265  0.5497 -0.0474
27913W        W43382   1.844   0.467   5.038  0.3579  0.1017  0.1597
27914W        W43383  17.149   6.222   0.162 -0.0518  0.1890 -0.2239
27915W        W43384   5.711  15.999  12.937  0.1536  0.1636 -0.3074
27916W        W43385   4.943  13.295  15.861  0.0927 -0.0670 -0.2654
27917W        W43386   9.510   6.758   5.540 -0.1068  0.0347 -0.0738
27918W        W43387  17.736  16.133   2.501 -0.0820  0.1923  0.0258
27919W        W43388  16.768   3.949  13.952 -0.4839 -0.0013 -0.1485
27920W        W43389   1.346  13.400  13.144 -0.0971  0.1721 -0.1135
27921W        W43390  17.200   9.060  11.203 -0.0435  0.1513 -0.1851
27922W        W43391   9.125  16.212   4.173 -0.4441  0.0608 -0.1073
27923W        W43392   7.577   0.546   5.725  0.2538 -0.1903  0.1075
27924W        W43393  11.232   0.644  11.847  0.1846  0.0178  0.1555
27925W        W43394   2.588  13.039   0.620 -0.0334 -0.2275  0.1029
27926W        W43395  10.982  15.421   5.156  0.1287 -0.0342 -0.1325
27927W        W43396  17.826  16.225   5.250 -0.0519  0.0763 -0.1509
27928W        W43397   6.231  18.107  13.502  0.1395 -0.2294  0.1876
27929W        W43398  11.308   7.552  14.618  0.0825 -0.0333  0.1812
27930W        W43399  11.089  10.436   1.936 -0.0552  0.0119 -0.3639
27931W        W43400   4.774  13.502   0.957 -0.0768  0.0599 -0.3561
27932W        W43401   4.062   4.797  15.336  0.2984 -0.1858  0.0734
27933W        W43402   2.982   7.132   0.156 -0.2745 -0.1564 -0.1277
27934W        W43403   8.813   5.425   4.123  0.1834 -0.0236  0.0603
27935W        W43404  10.198   2.835   1.185 -0.2700 -0.0995 -0.1688
27936W        W43405   2.702  12.567  13.390  0.0519  0.0785  0.0444
27937W        W43406  13.754  12.246  15.289 -0.1464  0.0082  0.0343
27938W        W43407  12.391   4.469  11.974 -0.1172  0.1153 -0.0401
27939W        W43408   8.552   5.411  15.843  0.0231 -0.1587  0.0196
27940W        W43409  15.793  16.166   2.050 -0.2429 -0.2496 -0.2252
27941W        W43410   2.009   5.246   2.251  0.2556 -0.2128  0.0577
27942W        W43411   8.345   1.154  14.395 -0.0316 -0.0176  0.2494
27943W        W43412   0.089  17.789   5.063 -0.1025 -0.3095  0.0732
27944W        W43413  16.809  12.558   0.511  0.1213 -0.0251 -0.0401
27945W        W43414   3.489  16.206   4.670  0.3067  0.0146  0.1003
27946W        W43415  10.645  15.171   3.695  0.1095  0.0112  0.2945
27947W        W43416   1.182  12.120   0.501  0.1861 -0.0302 -0.0814
27948W        W43417   5.888  12.080  15.192 -0.0783  0.0098 -0.0845
27949W        W43418  10.435  13.956  14.867  0.2835 -0.0587 -0.0316
27950W        W43419   3.767  13.238   4.769 -0.3892  0.2690 -0.1025
27951W        W43420  16.230  13.536  15.036  0.0943 -0.4861  0.0978
27952W        W43421   5.998   6.743   0.710 -0.0208  0.3226  0.0734
27953W        W43422  13.309   2.299  12.344  0.0804 -0.1785  0.0311
27954W        W43423  17.195   7.937   4.064 -0.2494  0.1343  0.0890
27955W        W43424   3.461   5.888   2.190 -0.1220  0.0872  0.1082
27956W        W43425   1.904  17.968   0.278 -0.1257 -0.1602  0.2271
27957W        W43426   3.806  17.516  13.144  0.0486 -0.1082 -0.2915
27958W        W43427   9.054   6.485  12.675  0.3441 -0.0109  0.0205
27959W        W43428  15.374  11.683   2.037  0.0559  0.2538 -0.1962
27960W        W43429   2.841  13.413   0.872 -0.0648  0.1365 -0.0785
27961W        W43430  15.428   6.923  14.451 -0.2503 -0.4505  0.3711
27962W        W43431   3.870   9.017  10.607  0.1973  0.0510 -0.0724
27963W        W43432  10.618   5.189   4.157  0.2864  0.0313 -0.1230
27964W        W43433   5.176  15.855   2.008 -0.0101 -0.0724  0.2681
27965W        W43434   9.743  13.195   4.498  0.0450 -0.0260  0.1785
27966W        W43435   5.959  14.519  15.280 -0.3718 -0.0275  0.0178
27967W        W43436   2.693  17.268  13.798 -0.2005  0.1886  0.1688
27968W        W43437   9.932   6.672   4.771  0.2155  0.1926 -0.1113
27969W        W43438  10.173   2.977   3.320 -0.0125 -0.1027  0.0879
27970W        W43439  17.693   9.335   3.194 -0.1004 -0.0461  0.0148
27971W        W43440   5.686  11.626   0.048 -0.0046 -0.1131  0.1161
27972W        W43441   4.565   4.903   0.919 -0.3245  0.1392  0.1144
27973W        W43442   5.222  10.560   3.283  0.2201  0.1320  0.0747
27974W        W43443   6.317   2.950   0.759 -0.2718  0.0040  0.0110
27975W        W43444   2.206  17.177  10.521  0.1274  0.0964  0.0613
27976W        W43445   8.462   0.494   5.029 -0.3721 -0.0140 -0.0884
27977W        W43446  17.281   1.176   1.514  0.4168 -0.2025  0.0659
27978W        W43447   4.490   6.421   5.431  0.1744 -0.0580 -0.0640
27979W        W43448  10.371   4.715   0.577 -0.1208 -0.1087  0.0727
27980W        W43449   0.990   7.115  10.732  0.0407 -0.1206 -0.1906
27981W        W43450  13.780   1.833  11.637  0.0413 -0.1448  0.2144
27982W        W43451   0.577  11.657  15.981  0.0637  0.2453  0.1123
27983W        W43452  11.243  14.660   0.628  0.0916 -0.1258 -0.2494
27984W        W43453  10.226   3.345   0.774  0.0461  0.0416 -0.0888
27985W        W43454   8.314  14.099   1.027 -0.0480 -0.0669  0.1382
27986W        W43455   5.333  13.994  14.511 -0.2729 -0.1265 -0.2836
27987W        W43456  18.281   7.612  16.030 -0.0958 -0.1359  0.2183
27988W        W43457   5.235  12.492   2.293 -0.2154 -0.0293  0.1160
27989W        W43458  17.708   0.254  13.866 -0.2024 -0.0965 -0.0269
27990W        W43459   8.921  14.321   1.079 -0.1269  0.0367  0.0489
27991W        W43460  17.192  15.544   3.026 -0.1309 -0.0307  0.0146
27992W        W43461   4.588   1.917   3.460 -0.2739 -0.1435 -0.0760
27993W        W43462  11.670  16.322  12.038  0.5064  0.0581 -0.1505
27994W        W43463  13.410   2.795   2.911  0.3956 -0.0174 -0.3391
27995W        W43464  11.183   5.400  14.504  0.1037  0.1823  0.1286
27996W        W43465  14.396  13.952  14.841 -0.0280 -0.0974  0.2407
27997W        W43466   5.865   2.049   0.379  0.2104 -0.1310 -0.0230
27998W        W43467   9.549   5.237   3.031 -0.1506 -0.0010 -0.1099
27999W        W43468  12.050   1.405   3.682 -0.0425 -0.1981 -0.1459
28000W        W43469  17.503   3.613  12.506  0.1134  0.1001  0.1759
28001W        W43470   8.572  11.206   1.303  0.1471  0.0413 -0.1280
28002W        W43471  10.198   4.780   1.948  0.1066  0.0847 -0.1976
28003W        W43472   4.939  13.654  14.707  0.1396 -0.0383  0.4551
28004W        W43473  12.448   8.011   0.560  0.0270  0.0201 -0.0788
28005W        W43474   0.741   5.065   3.318  0.1388 -0.3182  0.2499
28006W        W43475   9.389  16.481  11.959  0.2714 -0.0169  0.1859
28007W        W43476   5.684  11.163   4.856  0.1814  0.3275  0.1749
28008W        W43477   1.427  13.610  14.968  0.2658 -0.3632  0.1638
28009W        W43478   1.970  16.981   3.141  0.0203 -0.0421  0.2343
28010W        W43479   7.836  14.988  13.642  0.0211 -0.1493 -0.2373
28011W        W43480  11.047  13.355  12.839  0.1896 -0.0471 -0.2758
28012W        W43481  14.044  16.492   0.057 -0.1316 -0.2020 -0.0605
28013W        W43482   4.751   1.142   4.992 -0.0419  0.0628 -0.2476
28014W        W43483   0.524   6.082  14.037 -0.0211  0.1307  0.1776
28015W        W43484   6.431   8.019  12.843  0.0671 -0.1255  0.1437
28016W        W43485  11.118   8.202  11.766  0.4063  0.0116  0.3247
28017W        W43486   4.096   1.360   0.608  0.0361  0.1389 -0.1357
28018W        W43487  12.186  13.050  11.935  0.0899 -0.0543  0.1863
28019W        W43488   8.849   4.516   5.423 -0.0856  0.3404  0.3691
28020W        W43489   4.766  14.853   3.470 -0.0749 -0.1235 -0.0169
28021W        W43490   9.325   8.172  12.234  0.0793  0.2303 -0.0977
28022W        W43491  17.432   3.519  13.445  0.0313 -0.0448  0.1577
28023W        W43492   3.172  15.775  13.581 -0.2624 -0.0144 -0.0835
28024W        W43493   4.891   9.062  13.078 -0.0903  0.1974  0.1835
28025W        W43494  11.562   9.770  12.247  0.0529 -0.3079 -0.2683
28026W        W43495   8.944   3.408  11.881 -0.0549 -0.0803 -0.1075
28027W        W43496  15.745  11.864  14.317  0.0151 -0.0361 -0.1852
28028W        W43497  17.727  12.915  15.852 -0.0971 -0.2767  0.0414
28029W        W43498   6.687   4.572  12.202 -0.2048  0.0836 -0.0256
28030W        W43499   4.569   2.528  11.799  0.1821  0.0138  0.0386
28031W        W43500  14.758   0.629  13.468  0.1477  0.1108 -0.2148
28032W        W43501   5.470  10.140  14.870 -0.1303  0.0686 -0.0345
28033W        W43502  17.974  14.789  11.382  0.2853 -0.0857 -0.2298
28034W        W43503   4.987  10.973   0.171  0.2784 -0.1610  0.2929
28035W        W43504  14.035   4.816  12.520  0.3244 -0.0797  0.2180
28036W        W43505  11.108  15.853  14.832  0.1825  0.3136 -0.1052
28037W        W43506  12.263   4.240   3.654  0.2340 -0.1939 -0.1086
28038W        W43507  12.201   0.555  12.039 -0.2198  0.1131 -0.1049
28039W        W43508  12.695  10.573   0.735  0.1126  0.2688  0.2569
28040W        W43509   2.654   9.489  13.895  0.2462 -0.0579 -0.2203
28041W        W43510   0.218  17.562  11.372 -0.0324 -0.0158 -0.0755
28042W        W43511  14.754   4.798   0.095 -0.1148 -0.1256  0.1410
28043W        W43512  11.278  14.695   3.169  0.0504 -0.3305  0.3133
28044W        W43513  14.035  12.252  14.837 -0.3706  0.0625 -0.1110
28045W        W43514  15.280  10.822  14.581 -0.0070 -0.2605 -0.0490
28046W        W43515   4.570   2.293   4.849 -0.2493 -0.1979  0.1221
28047W        W43516   9.226   0.169  15.579 -0.1193 -0.1345  0.3353
28048W        W43517  14.545  14.138   2.028 -0.1558 -0.2170 -0.0856
28049W        W43518  16.994   0.532  11.482  0.1389 -0.1422  0.0301
28050W        W43519  17.827  17.699  14.374 -0.4467  0.0804 -0.1646
28051W        W43520  15.343   4.022  11.398 -0.0269  0.2643  0.2333
28052W        W43521   9.049  17.545  10.398 -0.1072 -0.1292  0.4262
28053W        W43522   7.051   6.541   3.784  0.0064  0.1431  0.2620
28054W        W43523   5.131  15.555   3.018  0.1315  0.1121  0.2256
28055W        W43524   8.224   0.984   0.713 -0.1958 -0.2368  0.3570
28056W        W43525   3.210  11.179   5.296 -0.2069  0.2146  0.1580
28057W        W43526   1.319   1.531   5.325  0.0747  0.2536 -0.2026
28058W        W43527   4.505   0.045  14.515 -0.2300  0.3751 -0.2869
28059W        W43528   1.656   0.308   3.252  0.0480  0.0470  0.2152
28060W        W43529  11.576   5.867  10.323  0.1970  0.1314  0.1976
28061W        W43530  13.737  15.446  11.445  0.0966  0.1575 -0.1966
28062W        W43531  15.114   4.658   1.853  0.0730 -0.0458  0.0556
28063W        W43532   5.749  13.307   0.011 -0.2064  0.2533  0.3489
28064W        W43533  11.339   0.977   3.505 -0.0114 -0.0073 -0.0068
28065W        W43534  11.556   8.810  15.067 -0.0098 -0.0519  0.0058
28066W        W43535   3.615  15.521   3.395  0.2982  0.0413  0.2013
28067W        W43536   7.169   9.724  13.530 -0.1777 -0.1837  0.1350
28068W        W43537  15.103  13.339   5.743  0.2687  0.0128  0.0242
28069W        W43538  13.780   1.875   5.356  0.1344 -0.2456 -0.0912
28070W        W43539   6.376   9.584  14.172 -0.1756  0.0929  0.0813
28071W        W43540  11.794   8.015   1.363  0.0684  0.0105 -0.0410
28072W        W43541   1.451   5.138   2.737 -0.0554  0.1725 -0.1052
28073W        W43542  10.112  16.698  11.119 -0.1426 -0.0042 -0.2177
28074W        W43543  15.316   3.135  13.489 -0.0320  0.2723 -0.0937
28075W        W43544   0.076  10.867  14.208 -0.1139  0.2108  0.0613
28076W        W43545   2.183  17.446  12.409  0.0166  0.2584 -0.1350
28077W        W43546   1.348   0.078   3.631 -0.2331  0.0178 -0.0256
28078W        W43547   9.306   2.686  12.217 -0.0115  0.1530  0.1202
28079W        W43548   8.999   3.677   4.885 -0.2766  0.0403 -0.0876
28080W        W43549   7.634  17.830  15.797  0.0694  0.1913 -0.1778
28081W        W43550  15.037   1.760   5.080  0.3742 -0.1054  0.3149
28082W        W43551   4.750   0.418   4.370  0.2807  0.2096  0.1000
28083W        W43552   4.869  13.958  12.385  0.1447 -0.0692  0.0244
28084W        W43553   1.753   3.135   5.472  0.0947 -0.4284 -0.2536
28085W        W43554  11.128   4.562   4.439 -0.1164  0.0618 -0.1008
28086W        W43555   1.429  12.200  13.808  0.0576  0.3185 -0.0330
28087W        W43556   5.059   0.263   4.718 -0.2406  0.0465  0.1612
28088W        W43557   7.243  10.966  12.082  0.0125 -0.2327 -0.0642
28089W        W43558  12.119   3.957   4.108  0.1936  0.0419  0.1196
28090W        W43559   9.641  16.323  11.230 -0.2503 -0.1134 -0.0008
28091W        W43560  10.887   4.032  15.086 -0.0931 -0.2627 -0.1436
28092W        W43561  17.878   4.574  11.339  0.2477 -0.2568 -0.3498
28093W        W43562   2.655   9.424  11.321  0.0986  0.1489  0.1643
28094W        W43563   0.849   5.013  14.849  0.2363 -0.0058  0.0787
28095W        W43564   8.097  16.482  15.418  0.0995  0.1669 -0.0562
28096W        W43565   7.102   5.137  12.622  0.1712  0.1286  0.0965
28097W        W43566   1.924   8.253   3.784 -0.2083  0.1703 -0.0200
28098W        W43567   2.007  16.922  15.470  0.1496 -0.1840 -0.1683
28099W        W43568   3.218  11.902   4.826 -0.1972  0.0423 -0.2801
28100W        W43569  16.274   2.546   5.331 -0.0144  0.0499  0.0694
28101W        W43570  13.344  12.260  15.844  0.2604  0.1748  0.0847
28102W        W43571  17.057   7.530  15.201  0.1372 -0.0141 -0.0179
28103W        W43572  15.252  15.633   5.387  0.3341  0.1340  0.0749
28104W        W43573   9.395  11.197   3.869 -0.1604  0.0471 -0.0527
28105W        W43574  16.602  12.044   3.897  0.1322  0.0468  0.0424
28106W        W43575   6.962  12.788  12.810 -0.0131  0.0347 -0.3326
28107W        W43576  15.029   0.990  14.003 -0.2220  0.1770 -0.1047
28108W        W43577   9.547   0.042  13.265 -0.1148  0.1395 -0.1190
28109W        W43578  18.114   6.309  16.108 -0.2654 -0.1411 -0.1301
28110W        W43579   0.553  16.028  15.070  0.1415  0.1501 -0.2765
28111W        W43580  15.624  14.898   2.171 -0.1246  0.0352  0.0984
28112W        W43581  15.014  13.747   2.767  0.3322  0.0063 -0.1026
28113W        W43582   9.736  13.550  11.736 -0.0801  0.0428 -0.0176
28114W        W43583   7.614   6.618   3.720 -0.1069  0.2873  0.2368
28115W        W43584   1.857   2.127   5.215 -0.1407 -0.1087 -0.1971
28116W        W43585  16.730   7.594   3.940 -0.2275  0.2234  0.0809
28117W        W43586  15.833  13.864   4.395 -0.1100 -0.2943 -0.1110
28118W        W43587   4.456  10.651  13.524  0.1574  0.1017  0.2316
28119W        W43588  15.156  10.084  11.128 -0.1449 -0.3148 -0.0718
28120W        W43589  17.101   5.827  11.147  0.1435 -0.4579  0.0742
28121W        W43590  13.456   2.849  14.610  0.1531 -0.1494  0.0757
28122W        W43591   4.272  18.136  16.043 -0.0330 -0.0055  0.2565
28123W        W43592  15.358   7.427   0.916 -0.1550  0.2140  0.0584
28124W        W43593   8.820   7.189  13.281 -0.2691  0.0821  0.3981
28125W        W43594   4.699   7.838  15.129  0.0704  0.1027  0.0821
28126W        W43595  11.522   8.068  14.921  0.1266 -0.1296 -0.1390
28127W        W43596   7.727  12.220  12.518  0.0848 -0.1087 -0.3490
28128W        W43597  15.253   7.717   4.152  0.0016  0.0427  0.2119
28129W        W43598   0.472  15.747  13.333 -0.0510  0.3285 -0.2555
28130W        W43599   8.679  17.098  11.096 -0.1504  0.2363  0.1302
28131W        W43600  17.038  15.787   5.329 -0.1911  0.0629  0.1021
28132W        W43601   0.954   6.587  13.165  0.1815 -0.0158  0.1442
28133W        W43602  13.671  13.971   3.245  0.3292 -0.4429  0.0876
28134W        W43603  15.067  11.375   4.850 -0.1614 -0.2099  0.0661
28135W        W43604  15.612  16.071   0.276  0.1086  0.0215  0.0871
28136W        W43605   5.678   5.888   2.178 -0.0956  0.0635  0.0459
28137W        W43606   3.534  12.829   0.062  0.0326 -0.2020 -0.3793
28138W        W43607   8.934  12.215  13.922 -0.0660  0.1862 -0.0692
28139W        W43608  12.943   4.893  11.446 -0.0715 -0.2583  0.0618
28140W        W43609  14.217  15.212  11.554 -0.1379 -0.0211  0.2037
28141W        W43610  14.363   8.823   1.643  0.4055  0.0068 -0.1773
28142W        W43611  12.800   1.051   0.480  0.3777 -0.2380  0.0380
28143W        W43612   0.867  17.957  13.669 -0.1943 -0.0149  0.0033
28144W        W43613   9.567   2.383  13.039  0.1102  0.0010 -0.0255
28145W        W43614   0.372   8.146  10.204  0.1674  0.1065  0.1688
28146W        W43615   4.174  16.064  15.006 -0.1830  0.1141  0.0991
28147W        W43616  14.183  10.313   4.443  0.0444 -0.0849  0.2854
28148W        W43617   7.122  16.506   1.273  0.0675  0.2070  0.0740
28149W        W43618   9.986   4.201  11.929  0.0316  0.0829  0.1427
28150W        W43619   4.609   2.179   2.147  0.3287 -0.1824  0.1784
28151W        W43620  15.851   0.506  11.543  0.1033  0.0641 -0.3014
28152W        W43621  11.232  13.666   1.515 -0.2180  0.1725  0.0796
28153W        W43622  12.137  13.871  12.284  0.2168  0.0212  0.3737
28154W        W43623   3.008  11.632   5.307  0.1586  0.0733  0.0852
28155W        W43624  15.554   0.611  15.679 -0.0465  0.1750 -0.2433
28156W        W43625   1.135   1.931   1.959 -0.1065 -0.5468  0.1650
28157W        W43626   6.011   6.514  14.867 -0.0037  0.1781  0.2090
28158W        W43627   2.999  11.570  13.999  0.2970  0.1537 -0.1306
28159W        W43628   6.748  17.875   1.510  0.3438 -0.2277 -0.1260
28160W        W43629  11.721  12.065   3.910  0.0708 -0.0067 -0.0397
28161W        W43630  18.180  16.984   3.011 -0.1923 -0.0507  0.1693
28162W        W43631  12.142   9.470   3.955  0.0589  0.3721  0.1908
28163W        W43632  15.262  17.129   5.173 -0.0603  0.0107 -0.4733
28164W        W43633   5.224  18.026  11.364 -0.1543  0.1473 -0.3699
28165W        W43634   2.684  14.891   3.145 -0.1488  0.0057  0.0889
28166W        W43635   1.116  17.739   4.402 -0.3232 -0.1078 -0.1402
28167W        W43636  15.409   6.788  12.616  0.0677 -0.0952  0.2798
28168W        W43637   5.677   3.452   5.019  0.1048 -0.1607 -0.3237
28169W        W43638   3.332   8.671   3.925  0.2022  0.1524  0.0924
28170W        W43639  14.106   0.942  15.784 -0.0883  0.0002 -0.1388
28171W        W43640   2.901   1.086  15.163 -0.3071  0.0236  0.0107
28172W        W43641  11.061  16.772   3.312  0.3627  0.0207  0.0521
28173W        W43642   8.317   9.797   2.504  0.1213  0.3571 -0.3301
28174W        W43643  17.947  15.055   0.633  0.0705  0.1514 -0.0073
28175W        W43644  13.860  16.917   1.291  0.0213  0.1116 -0.1755
28176W        W43645   6.888  11.781   0.360  0.0883 -0.1774 -0.2306
28177W        W43646   6.809  17.015  14.782  0.1449  0.2602  0.1445
28178W        W43647  10.083   1.910  15.934 -0.1141  0.0711  0.2656
28179W        W43648  10.921  13.799  13.770  0.2805 -0.0875  0.3763
28180W        W43649   7.792   4.744  11.186 -0.0799  0.1044  0.1385
28181W        W43650  16.513  10.832   0.644 -0.0060  0.0399  0.3326
28182W        W43651   6.938  15.472  15.447  0.1027 -0.3223 -0.1676
28183W        W43652   8.338  17.910  12.534 -0.1256  0.2209 -0.3905
28184W        W43653  13.627  12.841   5.374  0.1568  0.3141 -0.2065
28185W        W43654   5.671  12.427   2.090 -0.0005 -0.2354 -0.1452
28186W        W43655   4.753   0.746   0.849  0.3623  0.0122 -0.2332
28187W        W43656  17.200   9.304  14.058  0.1363  0.1956  0.0877
28188W        W43657  12.772   2.536  12.880  0.2835 -0.2458  0.0385
28189W        W43658   6.117   3.505  12.757  0.0154  0.0970  0.2023
28190W        W43659  12.095   3.207  12.891  0.2399  0.1379 -0.0586
28191W        W43660   3.680  14.897   0.219 -0.0519 -0.0782  0.0385
28192W        W43661   4.461   9.668  11.823  0.0586 -0.0005  0.4191
28193W        W43662  13.005   3.211  13.460 -0.1585 -0.1890  0.0626
28194W        W43663   0.007   6.179   0.573 -0.0824  0.0312  0.0708
28195W        W43664  16.155   8.777  11.164  0.1185 -0.0949 -0.2108
28196W        W43665  13.917   3.883   4.237 -0.2811  0.2461  0.2173
28197W        W43666   9.701  16.874   3.624  0.0852 -0.4766  0.0916
28198W        W43667   1.110   7.526  15.209 -0.0249 -0.0525  0.0768
28199W        W43668  14.001  14.586   4.640 -0.0035  0.0322 -0.2002
28200W        W43669  18.016   7.645   2.832  0.0912 -0.0943 -0.1871
28201W        W43670  10.813   4.358  11.849 -0.0771  0.0837 -0.0310
28202W        W43671   0.221   2.190  10.789 -0.0861 -0.1029 -0.0762
28203W        W43672  13.749  17.386  11.347 -0.0632  0.0327  0.1573
28204W        W43673   9.922   9.183  11.819  0.1041  0.2641 -0.2586
28205W        W43674   7.289  14.999   0.504  0.0562  0.2504 -0.0052
28206W        W43675   4.884   2.154   4.459 -0.0118 -0.0147 -0.1308
28207W        W43676  15.473  11.167  11.460  0.2583  0.1537 -0.2113
28208W        W43677  12.449   1.160   1.725 -0.2011 -0.0111  0.0845
28209W        W43678  16.113   6.525   3.388  0.2319 -0.2591  0.3211
28210W        W43679   8.444   7.222  12.256  0.0095  0.2149  0.2322
28211W        W43680   7.824  17.238   0.665  0.2155  0.0096  0.1154
28212W        W43681  14.908   1.928  14.183  0.1191  0.0076 -0.2885
28213W        W43682   3.417  11.002  12.488 -0.1704 -0.4434  0.2247
28214W        W43683   0.850  17.409  14.918 -0.1153 -0.0305  0.2083
28215W        W43684   8.322   2.342  15.418  0.0052 -0.3044 -0.2225
28216W        W43685   1.029   7.709   1.446 -0.0581 -0.1639  0.2572
28217W        W43686  11.814   4.018  13.370  0.1476  0.2419 -0.3234
28218W        W43687  10.975   2.002  14.652 -0.2917 -0.0100  0.1639
28219W        W43688  16.651  11.324   2.279  0.2587 -0.1984 -0.2661
28220W        W43689   3.642   7.220   4.725  0.0013  0.1303 -0.0394
28221W        W43690  17.469  11.982   0.930  0.1496 -0.2188  0.1750
28222W        W43691  13.904   2.677   4.230 -0.0951  0.1890  0.0600
28223W        W43692   8.967  11.862  14.356  0.2518  0.1181  0.4663
28224W        W43693   0.322   0.471  14.786  0.1500 -0.0715  0.2190
28225W        W43694  13.709  15.049   4.131  0.2036 -0.0297 -0.1058
28226W        W43695  15.511  16.206   1.454 -0.2696 -0.0384 -0.1971
28227W        W43696  13.138   3.258  15.479  0.0263 -0.0003 -0.1331
28228W        W43697   2.679  12.805  12.599  0.0573 -0.3266  0.0860
28229W        W43698   8.688  17.655   4.449 -0.1157 -0.3202  0.1411
28230W        W43699   3.022  17.858   3.532  0.1652  0.0268 -0.0504
28231W        W43700   5.493   2.640   1.842  0.0183 -0.1172  0.4175
28232W        W43701   3.357  16.712  15.741  0.0925 -0.0215 -0.3731
28233W        W43702   2.165  11.782   4.697  0.4195 -0.1636  0.1483
28234W        W43703   6.145  10.112  10.976 -0.1014  0.0778 -0.0630
28235W        W43704   0.478  14.964   0.519 -0.2907 -0.0206 -0.0617
28236W        W43705  13.300  14.442   0.647 -0.0137  0.1250  0.1388
28237W        W43706   3.965   0.689   9.940 -0.5727 -0.0116  0.1990
28238W        W43707  14.191   7.566  15.603  0.3407 -0.2058  0.0895
28239W        W43708  10.505   2.211   4.391  0.1565 -0.0177 -0.3560
28240W        W43709  17.024  14.604   0.844  0.0097 -0.0421 -0.3896
28241W        W43710   9.174  14.064   5.398  0.3639  0.0731 -0.1309
28242W        W43711   9.195   3.355  14.837  0.0317  0.1098  0.0151
28243W        W43712   5.517   0.091  11.084 -0.1272 -0.1981 -0.0315
28244W        W43713   6.411   2.683   1.302 -0.5164  0.2450  0.0466
28245W        W43714   7.161  13.742   4.171  0.0511 -0.1119  0.1831
28246W        W43715   3.449  13.810  11.181  0.3863 -0.0402  0.3766
28247W        W43716   2.392  11.270   4.272  0.2889 -0.1268 -0.1325
28248W        W43717   7.748   9.162  11.431  0.5379 -0.2195  0.2166
28249W        W43718  15.442   2.082  11.931 -0.0268 -0.1937 -0.0017
28250W        W43719  11.567   9.323  15.161 -0.0989  0.1427  0.2206
28251W        W43720  16.590  12.226   1.257  0.1457  0.0141 -0.2775
28252W        W43721  14.264   4.323  13.298 -0.2411  0.2091  0.0567
28253W        W43722   6.014  10.139  11.885  0.2069 -0.2589 -0.2698
28254W        W43723   4.741   1.820   1.200 -0.0438 -0.2022 -0.2029
28255W        W43724  10.512   7.241   0.494  0.0220  0.2490 -0.2718
28256W        W43725   5.955   4.377   3.572 -0.2021 -0.0523  0.1437
28257W        W43726   0.937  16.216  15.307 -0.1928 -0.1053 -0.1987
28258W        W43727   2.702  14.251   1.622  0.2122 -0.0707  0.0692
28259W        W43728   7.965  11.525  14.267  0.1814  0.1002  0.2205
28260W        W43729   9.771   8.965   4.464 -0.0083  0.0772  0.2646
28261W        W43730   5.671   9.188  12.360 -0.1472 -0.3421  0.0729
28262W        W43731  17.915  16.588   1.196  0.0251  0.1313 -0.0501
28263W        W43732  10.661  15.852   4.913  0.1953 -0.0366 -0.1597
28264W        W43733  16.437  13.992   5.637 -0.2982 -0.0729  0.0183
28265W        W43734   2.298   3.144   3.784 -0.0276  0.4192 -0.1594
28266W        W43735  11.209  13.464   4.659 -0.0203  0.4144  0.0092
28267W        W43736   7.808  12.855   0.607  0.2596 -0.1230  0.0774
28268W        W43737  17.437  17.310   3.400  0.2300  0.0328 -0.1047
28269W        W43738  11.856  16.107  12.588 -0.0157  0.1606  0.1192
28270W        W43739   4.236   1.304   4.205  0.1381 -0.1722  0.8053
28271W        W43740   3.676  10.162  15.654 -0.2250 -0.0180  0.4608
28272W        W43741  17.517  16.785   5.720 -0.0204 -0.2987 -0.3174
28273W        W43742  18.113  11.560   1.638 -0.2389 -0.2525  0.0763
28274W        W43743   9.701   5.994  11.160  0.0453  0.0461 -0.1767
28275W        W43744  10.552  13.214   1.122 -0.2106 -0.0779  0.0097
28276W        W43745  17.409  13.005   1.465  0.0203  0.0147  0.2261
28277W        W43746  13.689   8.535   5.719  0.1006 -0.0858  0.0793
28278W        W43747  10.289  14.310   4.034 -0.0625  0.0589 -0.1939
28279W        W43748  17.547   4.667   4.968 -0.0748 -0.0356 -0.1233
28280W        W43749  17.127  15.806   0.343  0.4005 -0.0528 -0.0055
28281W        W43750   1.956  13.865  13.496 -0.0937 -0.0693  0.1006
28282W        W43751   4.469  11.527   5.097  0.0945 -0.3696  0.1304
28283W        W43752   0.997  15.277  14.853 -0.0256 -0.1061 -0.0171
28284W        W43753   2.280  10.709   5.976  0.3607  0.0328  0.1689
28285W        W43754   1.895   4.006   2.259  0.0857  0.3192  0.0854
28286W        W43755  11.058  15.415   0.896  0.1068  0.0185 -0.0781
28287W        W43756  17.937  15.234   0.068  0.0893 -0.2174  0.0786
28288W        W43757  10.103  14.266   1.571  0.1564 -0.0188 -0.1351
28289W        W43758   1.829   9.489  11.922  0.1871 -0.2886 -0.0670
28290W        W43759   9.769  12.308  14.156  0.2756  0.2370 -0.1454
28291W        W43760  17.943   8.408  15.503  0.1112  0.0744  0.0145
28292W        W43761   0.019   3.793  14.817  0.4859 -0.2180 -0.0310
28293W        W43762  13.658  16.684  12.960  0.0594  0.2627 -0.1378
28294W        W43763  17.486  10.275   1.360 -0.0561 -0.1644  0.1021
28295W        W43764  15.500   0.411   3.074 -0.1965  0.1194 -0.1051
28296W        W43765  14.186   1.790  11.252 -0.0026  0.1156  0.1448
28297W        W43766  11.059  17.130  15.159  0.4993  0.4124  0.0739
28298W        W43767   8.627   8.906   3.695 -0.3230 -0.2552 -0.0473
28299W        W43768  15.431   6.128   3.746 -0.3816  0.0397 -0.0116
28300W        W43769   0.031   0.448   5.036 -0.0982 -0.0458 -0.3294
28301W        W43770   6.604  11.879  10.525  0.0724  0.0902  0.1853
28302W        W43771   5.828   9.062  10.897 -0.1681  0.2091  0.2344
28303W        W43772  12.451  11.052  10.329  0.1137 -0.3448 -0.0415
28304W        W43773   1.718   8.905   0.631 -0.2362 -0.0400  0.0974
28305W        W43774  16.561   4.814   0.271  0.1771 -0.1356  0.1727
28306W        W43775  12.678   9.100  13.465 -0.1302 -0.0851 -0.1621
28307W        W43776  14.608   1.952   2.068 -0.2360  0.1361  0.0449
28308W        W43777   4.226  10.146   4.681 -0.2245 -0.2306  0.0758
28309W        W43778   2.500   5.281  15.103  0.0708  0.1368 -0.1908
28310W        W43779   1.863   0.087  14.818  0.0308  0.1376 -0.0357
28311W        W43780   4.229  11.547  12.078 -0.0178  0.0798  0.0910
28312W        W43781  10.792   2.657   4.209  0.1634  0.0107  0.2224
28313W        W43782   1.715  10.276   4.600  0.2133 -0.1562 -0.0602
28314W        W43783   0.311  11.582  11.755 -0.3245 -0.0375  0.0598
28315W        W43784   7.029  16.048   3.369 -0.2449  0.1569 -0.1091
28316W        W43785  16.998   1.369   4.583  0.4963 -0.1457 -0.1290
28317W        W43786  10.254   6.396   1.178 -0.1114 -0.1262 -0.0467
28318W        W43787  13.465  15.880  14.136  0.0448  0.0109  0.0117
28319W        W43788   4.896   9.844   2.726  0.1696  0.2072  0.0280
28320W        W43789   4.629   2.859   0.856  0.2315 -0.4194  0.0258
28321W        W43790   8.139   8.026   9.883  0.3729  0.0297 -0.1295
28322W        W43791  10.790  11.618   3.858  0.0890 -0.1171 -0.0266
28323W        W43792  14.176   1.435  12.647 -0.2355  0.0367 -0.2599
28324W        W43793   1.130   3.393   2.354 -0.0524  0.1216  0.0814
28325W        W43794   2.221  13.848   0.462  0.2672 -0.5081  0.2413
28326W        W43795   7.646   3.283  11.595  0.0731  0.0311 -0.2253
28327W        W43796  14.621   7.582   0.353  0.1156 -0.1309 -0.0051
28328W        W43797  12.138   3.029   2.862 -0.1504  0.1609 -0.1243
28329W        W43798   0.229   8.318   1.375  0.0599 -0.4472 -0.0606
28330W        W43799  13.217   8.177   1.632 -0.0269 -0.0812  0.2687
28331W        W43800  16.070  17.370   2.130  0.1290  0.1060  0.0445
28332W        W43801  17.537  16.175   2.047 -0.0906 -0.0348 -0.0234
28333W        W43802   0.943  13.726   0.408  0.1655 -0.2680  0.1841
28334W        W43803  10.418   6.426   2.547 -0.1565  0.0653 -0.1157
28335W        W43804   4.418  12.493  13.819  0.0254 -0.0154 -0.1225
28336W        W43805  15.600   3.687   5.127 -0.3319 -0.0461 -0.2105
28337W        W43806  12.481   9.824  13.494 -0.1179  0.1443  0.1685
28338W        W43807   5.163  14.507   5.289  0.0677  0.0779 -0.0813
28339W        W43808   9.787   7.866  15.393 -0.0038 -0.0296 -0.2049
28340W        W43809  10.944   3.001   4.776 -0.0971  0.3717 -0.1255
28341W        W43810   9.219  10.442   0.592  0.0304  0.0148 -0.2854
28342W        W43811  14.532   9.904  15.455 -0.2417  0.1409  0.0229
28343W        W43812   8.839  11.571   1.202  0.1715  0.1237 -0.2876
28344W        W43813  11.173   8.814  15.390  0.1847  0.1992 -0.1672
28345W        W43814  11.723  10.146   0.387  0.1246  0.1572  0.2116
28346W        W43815  11.288   2.736  15.231  0.2607 -0.0415 -0.0724
28347W        W43816   3.107   1.075  13.005 -0.3000  0.0949  0.2242
28348W        W43817  15.885  13.283   2.889 -0.0617 -0.1503 -0.0868
28349W        W43818   3.007  12.593   4.564  0.2099 -0.1069 -0.3813
28350W        W43819  11.737  17.869  14.171  0.0119 -0.1542  0.3118
28351W        W43820  12.152   6.179  13.924 -0.1753 -0.1579  0.1827
28352W        W43821  10.170  16.297  11.350  0.4468 -0.2603  0.0497
28353W        W43822  11.194   8.837   0.299  0.4921 -0.2635  0.1414
28354W        W43823  16.265   2.707  12.794  0.0967 -0.0405  0.1679
28355W        W43824   8.845   5.152   2.032  0.3011  0.0837  0.0059
28356W        W43825  14.086   3.509   6.310 -0.0506 -0.1358 -0.0167
28357W        W43826   9.319   3.001   0.462  0.1397 -0.1310 -0.3748
28358W        W43827  11.286   8.351   2.493 -0.0903  0.3032  0.0050
28359W        W43828  17.586   4.220   2.689  0.0354  0.1390  0.0786
28360W        W43829  15.190  11.365   2.997  0.0198 -0.0488 -0.0586
28361W        W43830   2.538   4.568  12.970  0.2307 -0.2405 -0.0497
28362W        W43831  13.794  12.896  12.427  0.0250 -0.1130 -0.1131
28363W        W43832   2.707   2.654  12.017 -0.0330 -0.1230  0.0276
28364W        W43833   6.598   3.127   3.007 -0.0531  0.0249 -0.1209
28365W        W43834  15.715   7.001  13.023  0.0498 -0.3111  0.3792
28366W        W43835  14.546  13.877  13.543  0.0966 -0.1871 -0.0966
28367W        W43836   9.516   9.029  12.679  0.0997 -0.0741  0.1263
28368W        W43837   6.297   1.751  14.997 -0.2645 -0.0480 -0.0520
28369W        W43838   2.912   3.421  10.728 -0.0998 -0.0732 -0.0115
28370W        W43839   2.954  11.836   3.873 -0.1022 -0.0073 -0.2100
28371W        W43840   0.395   8.280  11.020  0.0449 -0.1614 -0.0225
28372W        W43841  14.465  15.059  10.996 -0.0227 -0.0281  0.1935
28373W        W43842   6.578  16.929  13.867 -0.1284  0.0540  0.0508
28374W        W43843  16.220   4.730  11.852 -0.0635  0.3145  0.1499
28375W        W43844   0.084   2.766  12.958  0.1603 -0.1487  0.0036
28376W        W43845  17.409  11.384  13.310 -0.0226  0.1520 -0.2479
28377W        W43846  14.330  13.377   0.343  0.0275  0.1079 -0.1230
28378W        W43847  16.178  18.151  14.121 -0.3676 -0.0788 -0.0816
28379W        W43848   1.573  17.977  12.925 -0.3042 -0.0682  0.4483
28380W        W43849   4.295   1.537   1.278  0.0169  0.0968  0.1608
28381W        W43850   0.883   3.864   2.390 -0.0157  0.0080  0.2619
28382W        W43851  16.052   3.076  13.086  0.1420  0.0830 -0.1055
28383W        W43852  18.283  12.236  14.543 -0.1437  0.1448 -0.1983
28384W        W43853   7.096   6.695  13.818  0.3134  0.1455  0.0293
28385W        W43854   1.232  14.560   5.513 -0.3939  0.1427 -0.0885
28386W        W43855   6.625   3.167   3.586 -0.2537 -0.1879  0.1399
28387W        W43856  13.236  13.353   5.444 -0.0255  0.0135 -0.0589
28388W        W43857   7.215   4.490   0.412 -0.2485  0.0970  0.4714
28389W        W43858  18.240  17.069  15.886  0.2682  0.2913  0.0170
28390W        W43859  10.613  14.565   0.758 -0.0152 -0.0608 -0.1886
28391W        W43860   9.626  10.297  11.078  0.0924 -0.1788 -0.0543
28392W        W43861   7.851  18.033  12.474 -0.5932 -0.0356 -0.1153
28393W        W43862   9.376  16.117  11.602  0.0865  0.4049 -0.3360
28394W        W43863  17.733  11.397  12.001 -0.2764 -0.1292 -0.0206
28395W        W43864  17.488  12.979  10.785  0.0339 -0.0554  0.1194
28396W        W43865  18.017  15.960   3.943  0.1564 -0.0215 -0.0283
28397W        W43866  11.187   9.642  13.305  0.0191  0.2857  0.3307
28398W        W43867   9.639   1.556  13.305  0.1404 -0.0626  0.0330
28399W        W43868  14.015   6.663   3.925  0.2930  0.0426 -0.0529
28400W        W43869  13.789   5.745   4.393  0.0334 -0.0073 -0.1256
28401W        W43870  11.997   8.246  12.115  0.1091 -0.0920  0.1798
28402W        W43871   0.958   8.429   5.662  0.5200  0.0086  0.1507
28403W        W43872  14.707  15.489  13.727 -0.3024  0.2540  0.1002
28404W        W43873   3.019  16.317  10.128 -0.2997 -0.0259  0.3426
28405W        W43874   0.331   0.819   1.172 -0.0033 -0.1706  0.1799
28406W        W43875  11.824   5.095   2.108 -0.0894  0.1368 -0.0737
28407W        W43876   9.504   3.317   4.062  0.1528 -0.3524 -0.1854
28408W        W43877   0.260   7.903   2.621 -0.2174 -0.0523  0.2217
28409W        W43878  14.879  16.013   0.744  0.4593  0.2558  0.2848
28410W        W43879   9.539   3.995   0.282 -0.0305 -0.0166  0.0872
28411W        W43880  17.794   4.259  11.771  0.3202 -0.0281  0.0140
28412W        W43881   4.910   9.360  12.134 -0.2226 -0.2412 -0.0790
28413W        W43882  17.515  15.400  13.786  0.0111  0.3995 -0.2159
28414W        W43883   0.851   2.732  14.028  0.1573 -0.2976  0.0379
28415W        W43884  13.804   5.923   2.478 -0.1426  0.0467  0.0137
28416W        W43885  17.064   5.467   1.373  0.0365  0.0051  0.3063
28417W        W43886   0.099   8.372   9.645 -0.1312 -0.0240 -0.0411
28418W        W43887   3.461  10.774   3.347 -0.2372  0.0434 -0.0977
28419W        W43888   3.604   1.877   4.023 -0.2846  0.1639  0.0342
28420W        W43889   7.995  15.572   0.013  0.0497  0.0528  0.1150
28421W        W43890   4.192  14.992  11.728 -0.4324  0.1682  0.1123
28422W        W43891  17.433   2.797   2.264 -0.2668 -0.1807  0.4067
28423W        W43892  17.059   8.630  11.536 -0.2238 -0.3074  0.0914
28424W        W43893   5.034   0.127  14.332 -0.1663 -0.3754 -0.3906
28425W        W43894   9.941   1.071  10.157 -0.0550 -0.1560  0.2640
28426W        W43895  10.451   0.961   4.382  0.0306  0.0276  0.4338
28427W        W43896  10.428   8.989  11.788  0.3473 -0.1527 -0.0436
28428W        W43897   7.745   2.182  13.836 -0.2280 -0.3133  0.1450
28429W        W43898  10.201  17.238  13.353 -0.2556 -0.1033  0.0986
28430W        W43899  10.437  11.009   1.633 -0.1219 -0.2863  0.0696
28431W        W43900   0.121  15.291   4.126  0.2304 -0.2487  0.0407
28432W        W43901   7.874   0.517   2.011 -0.3091  0.4831 -0.1138
28433W        W43902   2.021   2.661   2.915 -0.0714  0.1012 -0.1705
28434W        W43903  10.289   9.244  12.417  0.4176 -0.1018  0.1471
28435W        W43904   6.221   4.793   0.541  0.1495  0.1392 -0.3432
28436W        W43905  17.863  17.156  14.351  0.0837  0.0459  0.0292
28437W        W43906   7.496  15.424  13.459  0.2172 -0.1770  0.0539
28438W        W43907  10.204  10.096  15.501 -0.0293 -0.2785  0.0605
28439W        W43908   0.688  10.574   2.411  0.1080 -0.2170  0.0516
28440W        W43909   4.515   3.184   2.034 -0.1418  0.0496 -0.1992
28441W        W43910   0.876   3.372   1.299 -0.2312  0.0809  0.2972
28442W        W43911   4.129   8.522   0.422  0.0189  0.0180 -0.1596
28443W        W43912   6.658   2.442  10.724  0.2070 -0.2470  0.0275
28444W        W43913   7.975   7.415   4.045 -0.1627 -0.1462  0.0427
28445W        W43914   3.789  12.448   0.983  0.2482  0.1734 -0.0520
28446W        W43915  14.373   8.937   3.106  0.4079  0.2054  0.1600
28447W        W43916  12.369  10.885  15.791 -0.0867 -0.0902 -0.3058
28448W        W43917   0.357   8.488   0.531  0.1030  0.0162  0.3739
28449W        W43918   3.708   1.273   4.307  0.1080 -0.2051 -0.0227
28450W        W43919   8.123   8.789  14.121  0.1985 -0.0014  0.3116
28451W        W43920   0.716   2.988   2.246 -0.1273  0.3081 -0.1675
28452W        W43921  16.924   0.380  13.698 -0.1298  0.1137  0.3425
28453W        W43922   6.762  17.390  13.904 -0.0584 -0.3178 -0.2076
28454W        W43923   8.535   1.750  12.895 -0.1479  0.1881  0.3238
28455W        W43924  13.888  16.457   0.571  0.0398  0.0687 -0.0401
28456W        W43925   2.446  14.546   4.197  0.1838 -0.1345 -0.1615
28457W        W43926   7.263   9.931   2.563 -0.1414 -0.1557  0.1199
28458W        W43927   4.602  15.275  13.988  0.3406 -0.2712 -0.1790
28459W        W43928   3.922  14.919   1.266  0.1070 -0.1599 -0.0732
28460W        W43929   4.970   5.313   4.000 -0.1844  0.0258 -0.0029
28461W        W43930   0.425   7.158  14.854  0.0748 -0.2039  0.4157
28462W        W43931   3.223   4.128  14.713  0.0933 -0.2505  0.0855
28463W        W43932   8.399  18.139   3.467  0.0749 -0.5164  0.0206
28464W        W43933  12.294   0.299   4.384 -0.0864 -0.0897 -0.0207
28465W        W43934  16.610   1.496  15.273  0.2828 -0.0894  0.1017
28466W        W43935  10.671  10.113   1.342  0.3761  0.0621  0.2698
28467W        W43936  17.432   1.627   3.707 -0.0655 -0.3999 -0.0563
28468W        W43937   0.222   3.501  14.455 -0.2290  0.0342 -0.0733
28469W        W43938   7.020  11.886  11.740  0.1795 -0.0899  0.1723
28470W        W43939   3.705   6.976  15.627  0.4352  0.0083  0.1145
28471W        W43940  18.257   4.081   0.649 -0.2049  0.2952 -0.0173
28472W        W43941  10.715  17.360  13.380 -0.1677 -0.2207 -0.1300
28473W        W43942  11.087  14.056  11.116  0.0332 -0.0385  0.2628
28474W        W43943   4.426  12.970  12.756  0.3672 -0.0207 -0.0670
28475W        W43944  18.261  18.114   0.617 -0.0623 -0.0241  0.0441
28476W        W43945   4.412   4.378  10.912  0.2042  0.0905 -0.0068
28477W        W43946   2.307   8.617  12.828  0.0983 -0.1363 -0.0123
28478W        W43947   2.857  17.902   2.594  0.1003 -0.0917  0.1222
28479W        W43948   6.414  18.213   4.479  0.0850  0.1027 -0.3049
28480W        W43949  17.348   5.979  11.532  0.0442 -0.1146  0.0034
28481W        W43950   4.452   8.996  11.403 -0.2047 -0.0392 -0.0391
28482W        W43951  15.786   9.895   0.194  0.1733 -0.1363 -0.0355
28483W        W43952   7.805  12.145  10.828  0.0480  0.0573 -0.0752
28484W        W43953  10.361   2.105   3.051  0.0266  0.1966  0.0688
28485W        W43954   9.836   1.495  15.664  0.1769  0.2521 -0.1815
28486W        W43955   9.608   6.416   3.562 -0.1286  0.0368  0.0216
28487W        W43956  13.888   9.235   0.832  0.2430 -0.0635  0.3497
28488W        W43957  13.556  17.442   1.941 -0.1879  0.0750 -0.0307
28489W        W43958  12.771   3.879   1.294 -0.1068 -0.2504  0.1266
28490W        W43959  17.437   4.698   5.520  0.1704 -0.0898  0.1082
28491W        W43960   1.717   4.949  12.688 -0.2222 -0.5118  0.1265
28492W        W43961  17.675   6.124  11.873 -0.1728  0.1931  0.1793
28493W        W43962  10.355   9.601  15.014  0.0455 -0.0160  0.1251
28494W        W43963   9.047  10.572  15.231 -0.0783 -0.0647 -0.0575
28495W        W43964   7.869  10.260   0.459 -0.1968 -0.0561  0.2301
28496W        W43965   3.305   7.665  10.891 -0.1357  0.1634 -0.0726
28497W        W43966  16.955  16.018  14.445  0.2821 -0.0986 -0.1120
28498W        W43967  13.004   9.486  13.443 -0.4035 -0.1786  0.2085
28499W        W43968   2.716  11.513   0.614 -0.2002  0.0791  0.0666
28500W        W43969   5.404   8.431   1.371  0.1895 -0.0183  0.0904
28501W        W43970   7.862  17.784   0.555 -0.2599  0.3613  0.0179
28502W        W43971  15.494   5.328   2.800 -0.0435 -0.1247  0.0155
28503W        W43972   7.738  14.099   2.644  0.1244 -0.2845  0.2397
28504W        W43973   5.118   9.975   1.051  0.0447 -0.0160  0.0525
28505W        W43974   0.551  17.174   5.802 -0.2146 -0.4689  0.0759
28506W        W43975  11.583   1.059   0.684 -0.1949  0.2742 -0.3787
28507W        W43976   6.091  10.109   1.079 -0.0410  0.0298 -0.4920
28508W        W43977  14.986  16.561  11.335 -0.2340  0.2811  0.1347
28509W        W43978   0.870   4.973  12.890  0.3007  0.1669 -0.1245
28510W        W43979   6.847   0.562  12.243 -0.1061  0.1029 -0.1501
28511W        W43980   9.204  12.765  10.280 -0.0074  0.3512  0.0695
28512W        W43981  17.624   1.336   5.362  0.1974  0.0373 -0.1792
28513W        W43982   3.342  14.516   4.028 -0.1555 -0.0062  0.0490
28514W        W43983   9.723  10.784  11.098  0.0304 -0.4826  0.0554
28515W        W43984  15.723  12.637   1.150  0.1331 -0.2543 -0.1416
28516W        W43985  18.124  18.144   1.736 -0.2139  0.0405 -0.0032
28517W        W43986  10.489   4.460   4.407  0.1151 -0.2028 -0.3327
28518W        W43987   9.335  10.176  15.814  0.1171  0.1920 -0.0048
28519W        W43988   2.134  14.538   5.333  0.2421  0.1863 -0.0945
28520W        W43989  12.911   6.297  13.372  0.1131  0.0405  0.0362
28521W        W43990   9.985   7.041  15.941 -0.0168 -0.1621 -0.1590
28522W        W43991   2.088   8.079  12.104  0.0883  0.1163 -0.2858
28523W        W43992   0.971   2.318   2.782 -0.0815 -0.1088 -0.0701
28524W        W43993   6.467  13.168   2.283 -0.2406 -0.1185 -0.0995
28525W        W43994  12.699   9.610   1.225 -0.1050 -0.4744  0.1192
28526W        W43995   8.828   3.963   2.488 -0.1611 -0.0326  0.0161
28527W        W43996   2.614  16.011   6.430  0.3021 -0.1335 -0.0930
28528W        W43997  16.856   9.006   4.166  0.0208  0.0341 -0.2562
28529W        W43998   3.343   8.128  12.800 -0.0534 -0.2408  0.0986
28530W        W43999  15.804  16.299  13.204  0.1097 -0.3149 -0.1642
28531W        W44000   0.226   9.543  14.187  0.1964  0.2669 -0.0380
28532W        W44001  11.046   2.240   4.211  0.1613  0.1198  0.1698
28533W        W44002  11.271  17.295   2.196  0.1183 -0.2869  0.0785
28534W        W44003  17.852   3.539  10.322 -0.0337  0.0931  0.0644
28535W        W44004   2.151   3.187   1.873  0.1137 -0.2005 -0.0652
28536W        W44005  13.983  16.696   5.086 -0.0453 -0.1207  0.1006
28537W        W44006  11.400   5.036  15.143 -0.0900  0.0583  0.0178
28538W        W44007   9.568  13.064  15.797  0.0038 -0.0015  0.2851
28539W        W44008  16.114   9.041   0.518 -0.1660  0.2358  0.1308
28540W        W44009  11.405   5.131   1.726 -0.2791 -0.1176  0.0669
28541W        W44010   1.807   5.403  13.009  0.1081 -0.2575 -0.4481
28542W        W44011   4.862  18.140  15.279 -0.0912 -0.0280 -0.0638
28543W        W44012   0.334   3.983  12.306 -0.0435 -0.0261 -0.0098
28544W        W44013  17.797   6.215  13.946  0.0676  0.0517  0.1554
28545W        W44014   0.264  13.967  15.939 -0.1315  0.0791  0.0426
28546W        W44015   2.520   1.189  12.188  0.1508 -0.0704  0.1034
28547W        W44016  14.378  10.601  12.269  0.1948  0.0482  0.1820
28548W        W44017   3.779  10.060   1.425 -0.1240 -0.1663 -0.1075
28549W        W44018   6.624  18.211  12.494  0.2209 -0.1633 -0.0584
28550W        W44019   7.107   0.032   1.564 -0.1581  0.0906 -0.2086
28551W        W44020   6.790  11.866   2.752  0.0008 -0.0098 -0.0948
28552W        W44021   7.918   2.767   1.320 -0.0209 -0.2217 -0.2070
28553W        W44022  10.602  16.231  14.777 -0.1728  0.0526  0.1496
28554W        W44023   7.296   0.495  15.722  0.0201  0.1536  0.0105
28555W        W44024   6.798   5.249   0.134  0.0506  0.1961  0.3607
28556W        W44025   3.823   9.393  14.058 -0.0109  0.1734  0.0230
28557W        W44026   0.594   6.284  10.906 -0.4374 -0.1268 -0.0447
28558W        W44027   9.069  16.710   4.510  0.1219 -0.1994  0.0106
28559W        W44028  17.994   6.983   4.320 -0.0202  0.2659  0.0642
28560W        W44029  13.080   8.892  15.230  0.0197  0.0768 -0.0524
28561W        W44030   2.412  13.431   0.447  0.0276 -0.0862 -0.2768
28562W        W44031   8.918   7.639   4.245  0.1851  0.1581 -0.1344
28563W        W44032   8.409  18.063  13.535  0.0663  0.0255  0.0047
28564W        W44033   2.426  11.805   4.293 -0.1934  0.0745  0.0688
28565W        W44034   1.143  13.832  13.366 -0.2323  0.2238 -0.1081
28566W        W44035  13.620   5.100   1.081 -0.1807  0.0258  0.1817
28567W        W44036  13.937   6.274   5.205  0.0391 -0.0103 -0.1099
28568W        W44037  16.279   8.195   0.380  0.4898 -0.0922  0.2584
28569W        W44038  17.666   3.789  14.231  0.1023  0.1122 -0.1256
28570W        W44039   8.697   8.811  11.788  0.1670 -0.0095  0.7063
28571W        W44040  16.526   1.996  14.867 -0.2506  0.2794 -0.0710
28572W        W44041   9.928   4.641   4.615  0.1349 -0.0805  0.2391
28573W        W44042  14.929  15.836   3.509 -0.0143  0.0668  0.1801
28574W        W44043  18.006   1.752  13.761  0.0190  0.2103 -0.0734
28575W        W44044   5.975  10.809  15.379 -0.0384 -0.0777 -0.2336
28576W        W44045   6.105  17.817  10.818  0.2803 -0.0361 -0.1879
28577W        W44046  11.542   9.384   1.456 -0.0273 -0.0439 -0.0770
28578W        W44047  17.726   0.906  12.643  0.2763  0.0851  0.1242
28579W        W44048   0.432   6.450   0.653  0.1884 -0.0820 -0.1725
28580W        W44049   0.287   4.709   5.259 -0.1444  0.2062 -0.2455
28581W        W44050  13.944   0.654  13.898  0.1392 -0.0074 -0.0480
28582W        W44051   6.993  10.096  14.477 -0.3660  0.2623  0.2716
28583W        W44052  15.596   9.379   1.121  0.0016 -0.2222 -0.3260
28584W        W44053  13.664  12.248   2.946 -0.2098 -0.0720 -0.1242
28585W        W44054   0.401  10.688  10.794 -0.0340  0.1819 -0.4178
28586W        W44055   4.922   8.101  10.523  0.1689  0.0822  0.1865
28587W        W44056  17.321  13.465  12.317  0.3170 -0.0260 -0.1005
28588W        W44057   7.576  10.033  13.580  0.2772 -0.2673 -0.5118
28589W        W44058  13.486   5.661  11.669 -0.2614 -0.1161  0.1914
28590W        W44059   4.359  10.374   3.829  0.2162 -0.0696  0.4454
28591W        W44060  17.471  14.444  13.825 -0.1205  0.0994  0.0175
28592W        W44061  11.111  10.101   1.571 -0.1792 -0.0182  0.0792
28593W        W44062  15.615   3.138  11.510 -0.3341  0.1514  0.1945
28594W        W44063  10.422  15.338  12.194 -0.1836  0.2667 -0.2129
28595W        W44064  14.783  14.177   4.604  0.1344 -0.0272  0.2218
28596W        W44065  11.570  12.371  13.031 -0.0970 -0.0741 -0.4780
28597W        W44066  14.687  14.203  12.356 -0.0935  0.0159 -0.1903
28598W        W44067  17.087  16.226  15.142  0.3044  0.0385 -0.1467
28599W        W44068   1.158   7.488  13.272 -0.1122 -0.0112  0.0147
28600W        W44069  13.867   4.992  11.016 -0.0780  0.0622  0.0839
28601W        W44070   3.918  17.857   2.348  0.1290  0.0743 -0.1206
28602W        W44071  10.875  16.133   2.609  0.0241 -0.2226  0.2137
28603W        W44072  14.018  12.666   3.074 -0.0702 -0.2751  0.3474
28604W        W44073   9.890  17.433  14.285  0.0109  0.1205  0.1105
28605W        W44074   5.055   1.689   3.199  0.2628  0.0089 -0.3795
28606W        W44075   3.061   0.926   0.685  0.0166 -0.1396  0.0262
28607W        W44076   0.100   5.489  11.805 -0.1952 -0.0059 -0.1369
28608W        W44077  17.535   1.927   2.155  0.2680 -0.1920  0.0008
28609W        W44078  10.193   6.512   0.669 -0.0170  0.0987  0.0136
28610W        W44079  13.618   5.621   1.155 -0.0886 -0.1520 -0.1799
28611W        W44080  15.825  11.883   3.506 -0.2292  0.2569  0.1709
28612W        W44081   6.685  13.558  16.053 -0.0778  0.3478 -0.0344
28613W        W44082  11.492  17.675   1.729  0.3957 -0.1896 -0.0233
28614W        W44083  17.714  15.469  14.293  0.0739 -0.2067  0.0054
28615W        W44084   1.701  12.483   4.162 -0.2692 -0.4771 -0.0220
28616W        W44085   6.301   2.375   3.394 -0.0386  0.1532  0.2561
28617W        W44086   4.987  11.188   4.454 -0.0684  0.2136 -0.0614
28618W        W44087   0.082   7.967  13.555 -0.0703  0.1142  0.2374
28619W        W44088  13.069   6.341   5.415 -0.0400 -0.1237 -0.0787
28620W        W44089   7.913   3.014  11.254 -0.1284 -0.0787 -0.3283
28621W        W44090   6.546   1.931   5.481 -0.1035  0.0305  0.2069
28622W        W44091   5.206   3.126   2.788 -0.0170  0.1033 -0.0388
28623W        W44092  14.664  12.061   2.773 -0.0585 -0.0254  0.2336
28624W        W44093  10.684  15.081  14.846 -0.0487  0.1852  0.0102
28625W        W44094   0.502   7.679  14.748 -0.2860  0.0002 -0.3582
28626W        W44095  16.792   5.391  12.599 -0.1990  0.1267 -0.2182
28627W        W44096  11.908  16.652   5.724 -0.0344  0.3397  0.2412
28628W        W44097  14.328  17.567  14.098 -0.1704  0.1872  0.2313
28629W        W44098   1.021   5.481   2.672  0.0564  0.2126  0.1718
28630W        W44099  13.656   7.035   3.393  0.3132 -0.0973  0.0434
28631W        W44100  18.122   0.548  14.066 -0.0763  0.2053  0.2756
28632W        W44101   9.128   1.101   1.848 -0.0186  0.0640 -0.0046
28633W        W44102   2.238  15.994  15.570 -0.2570  0.0935 -0.0025
28634W        W44103   2.703   9.847   1.554  0.1419  0.0099  0.2134
28635W        W44104   7.166   5.636   2.604 -0.1126  0.0131 -0.1321
28636W        W44105  14.153   6.278  11.713  0.0270  0.2501  0.0944
28637W        W44106   4.665   9.493  14.041 -0.0766 -0.1018  0.2700
28638W        W44107  16.395   8.244  15.102  0.1479 -0.3614 -0.0387
28639W        W44108   3.923  12.704  14.528  0.1005  0.0645 -0.2417
28640W        W44109   8.921   5.529   3.209  0.1116  0.2491  0.3728
28641W        W44110   1.147  10.267   4.671  0.0008 -0.0153 -0.0708
28642W        W44111   9.442   5.149   1.392 -0.0161 -0.1920  0.2359
28643W        W44112  15.845  13.631  13.583 -0.2400 -0.0118  0.5442
28644W        W44113  10.693   3.438   3.960  0.0772 -0.2500  0.1471
28645W        W44114   3.005   7.919   5.206 -0.0439 -0.1627  0.0561
28646W        W44115   7.689  17.307  10.763 -0.1060  0.0831  0.0463
28647W        W44116  12.201   3.745   1.865 -0.2268  0.1050  0.0911
28648W        W44117   4.385   2.426  12.620 -0.1724 -0.0850 -0.0988
28649W        W44118  12.891  11.527   1.856 -0.0693  0.2647  0.0420
28650W        W44119  16.525   4.250   5.903  0.2235 -0.1010 -0.0076
28651W        W44120  15.119   7.221   5.369 -0.0132  0.2339  0.1956
28652W        W44121   5.215   8.176  12.144 -0.1404  0.0696 -0.0643
28653W        W44122   1.562   8.056   2.317  0.1081 -0.2117  0.3141
28654W        W44123   6.725   9.398  11.562 -0.0871 -0.1482 -0.1193
28655W        W44124   0.904  10.534  10.975 -0.2989  0.0791 -0.2917
28656W        W44125   7.251   1.665  13.015 -0.1043 -0.1983 -0.0107
28657W        W44126   4.393  14.813   4.886  0.0514 -0.1473 -0.1945
28658W        W44127   3.180   8.274  14.302  0.0749 -0.0388  0.0343
28659W        W44128  10.803   1.277   3.471  0.0642  0.1209  0.2617
28660W        W44129  12.975   3.524   2.602 -0.0334 -0.2937 -0.1983
28661W        W44130  15.976   3.218   4.640  0.0015 -0.2082 -0.1530
28662W        W44131   5.248   7.676  14.767 -0.0509  0.3554  0.0691
28663W        W44132   2.217  13.326   3.565 -0.0605  0.3590  0.2184
28664W        W44133  16.854   4.332  13.122  0.0855 -0.1713  0.0978
28665W        W44134  17.906   2.369   1.486  0.2420 -0.1512 -0.1733
28666W        W44135   4.532   6.572  14.712 -0.3644 -0.0337  0.1540
28667W        W44136  10.514   6.168   0.411 -0.2385 -0.0130 -0.1964
28668W        W44137   9.313   0.158   3.683  0.1976 -0.1700 -0.0069
28669W        W44138  11.259   6.718   5.657 -0.4784 -0.0743  0.2301
28670W        W44139  14.564  12.187  14.714  0.2211  0.1064  0.0069
28671W        W44140   1.464  12.466   2.796  0.0204 -0.0121 -0.0848
28672W        W44141   1.898  12.712   4.983  0.0627  0.1847  0.0202
28673W        W44142   4.922  17.089   4.377 -0.0255  0.1575 -0.2694
28674W        W44143  10.961  11.655   1.214 -0.2018 -0.1130  0.1977
28675W        W44144  15.243   2.164   5.778 -0.2324 -0.0667  0.0971
28676W        W44145  16.469  13.317  13.369  0.1844  0.2723  0.2731
28677W        W44146   1.008  15.078   0.837 -0.0969 -0.1087  0.0294
28678W        W44147  13.641  11.691   5.677  0.1419 -0.1412  0.1670
28679W        W44148   8.113   7.841  14.461 -0.0545 -0.0040  0.2021
28680W        W44149  16.330   0.269   5.135 -0.1593 -0.1069 -0.0976
28681W        W44150   8.343   8.550   0.643  0.0260 -0.1395 -0.2206
28682W        W44151   6.979   0.050  11.545  0.2902 -0.1214 -0.2780
28683W        W44152   0.183  17.346   3.234 -0.1258 -0.0686 -0.0140
28684W        W44153   4.105  17.870  14.568  0.0536 -0.1996  0.0578
28685W        W44154  11.073  18.005  14.444 -0.1535  0.1262  0.1084
28686W        W44155  12.542   4.017  14.571 -0.0442 -0.2799  0.2129
28687W        W44156   7.097   5.462  13.558  0.1677 -0.0588  0.0117
28688W        W44157  17.691   1.796   1.738 -0.0617  0.0167 -0.0098
28689W        W44158   1.988  17.641  14.073 -0.0735  0.4281  0.2658
28690W        W44159   5.602  13.116   4.755  0.2256 -0.0943 -0.2165
28691W        W44160  12.886  10.298   2.872  0.1113  0.3224 -0.0426
28692W        W44161  12.132   3.153   1.882  0.1004  0.4596 -0.0774
28693W        W44162  10.145   5.224  15.760 -0.1112  0.1134 -0.3139
28694W        W44163  16.765   1.646  11.015 -0.0224  0.1845  0.0836
28695W        W44164   5.768   9.188   9.585  0.0971  0.2013  0.2340
28696W        W44165   3.109   5.283  11.207  0.0919  0.0023 -0.0949
28697W        W44166   4.120   6.697  15.750  0.1603 -0.3270 -0.0591
28698W        W44167  11.259   1.602   4.973  0.1515  0.0547 -0.3658
28699W        W44168  10.175  10.539  11.923 -0.1321 -0.0905 -0.1284
28700W        W44169  17.482   4.502   1.891 -0.0716  0.0751  0.0591
28701W        W44170  11.536   5.229  13.321  0.0797 -0.1561  0.1139
28702W        W44171   8.119  14.692  11.057 -0.2587  0.1605  0.1465
28703W        W44172  15.287  10.652   1.001  0.0981 -0.0700  0.1274
28704W        W44173   2.933   7.053  15.346 -0.0313  0.0750  0.0209
28705W        W44174  17.763   1.508  11.029 -0.2406 -0.2329  0.3426
28706W        W44175  13.449  10.367   3.941  0.0992 -0.0898  0.1707
28707W        W44176  17.670   8.321  12.279  0.2009 -0.0036  0.0302
28708W        W44177  12.415   4.799   0.226  0.2989  0.0578  0.1879
28709W        W44178  10.619  14.592  15.891  0.2185 -0.1498  0.0106
28710W        W44179   4.874   1.442  12.849 -0.1496  0.0686 -0.0484
28711W        W44180   5.379   3.807  14.589 -0.1405 -0.0440 -0.0408
28712W        W44181  18.046  10.339   3.986 -0.2102  0.1474  0.1777
28713W        W44182   1.397   0.497   2.748 -0.0739 -0.0403 -0.3429
28714W        W44183   7.096  10.188  11.882  0.2587 -0.2359  0.2837
28715W        W44184   0.825  11.986   5.111  0.3049  0.1899 -0.0224
28716W        W44185  10.505  16.113  15.581 -0.0245 -0.1153 -0.1290
28717W        W44186   8.264  11.428   0.457  0.1601 -0.1843 -0.0075
28718W        W44187  15.177   5.671  10.886  0.0516  0.0444 -0.0305
28719W        W44188   6.397   7.345  10.081  0.1528 -0.0927  0.1162
28720W        W44189   1.041   4.486  12.845 -0.1097 -0.1884  0.0050
28721W        W44190   1.338   5.602  13.006  0.0457 -0.1493 -0.1139
28722W        W44191  17.174  11.228   3.992 -0.1191 -0.1745  0.2393
28723W        W44192  11.561  16.004   5.567  0.0454 -0.1682 -0.3307
28724W        W44193   3.432  17.817   5.516 -0.0459 -0.1437  0.0732
28725W        W44194   7.153   1.702  11.336  0.1014 -0.2198 -0.0535
28726W        W44195  15.217  13.697  12.518 -0.0875  0.0155  0.0873
28727W        W44196   1.922  17.484   3.212 -0.0283 -0.2629 -0.1311
28728W        W44197   9.468   9.022   3.475 -0.4839 -0.0847 -0.0610
28729W        W44198   9.150   8.994  13.112 -0.2312  0.1321 -0.0762
28730W        W44199   5.442  17.939  13.515  0.0642 -0.2079  0.1813
28731W        W44200  14.940  17.344  12.371  0.0672 -0.1432  0.0463
28732W        W44201   5.082   0.078  13.469  0.2675  0.1153  0.0915
28733W        W44202   4.131   6.785   3.136 -0.0218 -0.0525  0.0001
28734W        W44203  14.856  10.464  12.196  0.2742 -0.0115  0.0033
28735W        W44204   8.969   9.109  15.247 -0.3672 -0.3427 -0.3246
28736W        W44205  12.179   9.912   2.604 -0.0945  0.1350  0.3141
28737W        W44206   6.386   0.390  10.951 -0.2481 -0.2254 -0.0946
28738W        W44207  17.483  17.576   1.643 -0.2905  0.1984 -0.0557
28739W        W44208   7.496   2.099  12.961  0.1927  0.1180 -0.1215
28740W        W44209   5.025  16.784  11.902  0.0756  0.0082  0.0327
28741W        W44210   5.440   1.346   4.505  0.1518  0.0978 -0.0634
28742W        W44211  16.676   0.235  11.775  0.2035 -0.0184  0.0280
28743W        W44212   0.842  14.354   3.364 -0.0135 -0.2111  0.1155
28744W        W44213   3.581  16.224   2.721 -0.1592 -0.2401 -0.0473
28745W        W44214   0.235  12.317   1.550  0.6161 -0.0552  0.0661
28746W        W44215   8.963   6.611   4.040 -0.3132 -0.0070  0.0159
28747W        W44216   6.443   5.598   0.300 -0.0938  0.2560  0.1778
28748W        W44217   7.359  16.582  14.638  0.0200 -0.0681 -0.2982
28749W        W44218  10.720  11.069   3.890 -0.0406 -0.0765 -0.1620
28750W        W44219  15.227   6.606   1.768 -0.2653 -0.0346 -0.1650
28751W        W44220   7.447   4.682   0.019 -0.0633 -0.0859 -0.2204
28752W        W44221   2.807  10.311  13.476 -0.0692  0.0968 -0.0043
28753W        W44222   9.725   2.781  15.645  0.3336 -0.0017 -0.3022
28754W        W44223  14.592  10.200  15.005 -0.1064  0.0574  0.0366
28755W        W44224  11.497  13.184  12.747 -0.0285  0.2845 -0.0645
28756W        W44225  12.143   1.663   2.651  0.3683  0.0910  0.2185
28757W        W44226  12.453  10.588   3.002  0.0043  0.1142  0.0763
28758W        W44227   8.539  13.467   0.788  0.3796 -0.0448 -0.0346
28759W        W44228  18.184  17.367   4.911  0.1099 -0.4972 -0.2805
28760W        W44229  15.575  13.574   2.035  0.1691  0.0538 -0.2206
28761W        W44230  14.713   6.777  12.103 -0.0378  0.0440  0.1121
28762W        W44231   1.603   0.373  13.843  0.1429  0.2465 -0.1542
28763W        W44232   9.594   5.304  15.553  0.3499  0.0424 -0.0689
28764W        W44233  12.047   1.355  11.124  0.1323 -0.1661  0.0289
28765W        W44234   5.368   8.994   5.796 -0.1264 -0.0418 -0.1789
28766W        W44235  18.002   6.592  13.650  0.3227  0.1824 -0.0582
28767W        W44236  14.726  17.057   2.276 -0.1741 -0.0179  0.1332
28768W        W44237   2.751  18.027   3.098 -0.1763  0.0855 -0.2145
28769W        W44238   6.936   2.007  12.879  0.0303  0.0865 -0.2951
28770W        W44239   7.317   6.968  15.507 -0.0683 -0.0553  0.3801
28771W        W44240  15.584  10.347   3.771  0.0663  0.1114 -0.2095
28772W        W44241   3.450   9.102   1.159  0.1234 -0.0236  0.0323
28773W        W44242  14.823   6.545   3.175  0.3128 -0.0283  0.1152
28774W        W44243   8.343  14.594   3.155 -0.0913  0.0499  0.1215
28775W        W44244  12.795  11.214   3.942 -0.0178 -0.1746 -0.1595
28776W        W44245   5.419  12.746  13.572  0.1059 -0.2630  0.4131
28777W        W44246   7.456  13.346   2.422 -0.0270  0.3119  0.1451
28778W        W44247   7.635   4.510   3.795 -0.0793 -0.1904  0.2929
28779W        W44248   2.420  14.451  15.422 -0.0351  0.1827  0.2829
28780W        W44249   9.397   1.892  13.060 -0.0957  0.1717 -0.0125
28781W        W44250   2.891   3.851   2.699 -0.1430 -0.1222 -0.2129
28782W        W44251  12.097  13.072   2.915  0.1092 -0.0024  0.3691
28783W        W44252   9.186  13.712  13.560  0.1613 -0.1932 -0.0958
28784W        W44253   3.163   9.530  13.986  0.0150  0.0383  0.1938
28785W        W44254   1.639   8.626   3.584  0.0445  0.0548  0.3702
28786W        W44255  17.622  14.234   4.191  0.1446  0.0758  0.1358
28787W        W44256   4.236   7.223   2.422  0.0955 -0.1844 -0.0645
28788W        W44257   0.526   8.471   5.459  0.0970 -0.0569 -0.0079
28789W        W44258   2.168  11.639   0.705  0.0206 -0.2126 -0.1535
28790W        W44259  15.682   8.436   2.631 -0.0764  0.1826  0.0815
28791W        W44260  11.060   2.481   1.090 -0.0894  0.2004 -0.0572
28792W        W44261   8.805   5.683   2.660 -0.0063 -0.1958  0.1202
28793W        W44262   5.605   6.301   4.285  0.2754  0.1153  0.2494
28794W        W44263  16.659  12.402   3.330  0.5102 -0.2344 -0.0092
28795W        W44264  12.553  17.013   1.015 -0.1401  0.1566  0.2193
28796W        W44265  15.142  15.829   1.510 -0.2260 -0.1762 -0.1176
28797W        W44266  11.481  15.558  14.599  0.0306 -0.2131 -0.0256
28798W        W44267  13.650   2.452   3.779  0.0008  0.0980  0.0833
28799W        W44268   1.355  12.125  12.753 -0.3510 -0.1142 -0.1213
28800W        W44269   9.898  10.258   4.699 -0.1788  0.0868  0.0416
28801W        W44270   3.962   6.343  11.682  0.2176 -0.1707  0.2591
28802W        W44271  17.263   3.813  14.634 -0.3209  0.1236  0.0892
28803W        W44272  10.112  14.623   4.858 -0.4175 -0.0787 -0.1869
28804W        W44273  14.940  17.543   1.603  0.1683  0.3298 -0.0792
28805W        W44274   1.689   6.946   5.204  0.2806 -0.2629  0.3586
28806W        W44275  13.505   5.908   0.275 -0.0710 -0.0195  0.2612
28807W        W44276   4.504  14.394   0.764 -0.3396 -0.2525 -0.1108
28808W        W44277   4.778   5.648  14.999 -0.0470 -0.0756  0.2923
28809W        W44278   0.489   2.221  13.771 -0.1215  0.4305 -0.2572
28810W        W44279   2.145  16.361   6.377 -0.0203 -0.0521 -0.0778
28811W        W44280   6.750   8.811  13.561 -0.1966  0.1779 -0.0710
28812W        W44281   2.427  16.035   0.271  0.1208 -0.2412 -0.0663
28813W        W44282  15.112   8.176   4.943 -0.1564  0.0065 -0.0981
28814W        W44283   4.672   3.473  15.041  0.0436  0.0561  0.0358
28815W        W44284  16.828   3.741   4.277 -0.1533  0.1851 -0.0793
28816W        W44285  15.746   3.725   0.411  0.2557 -0.2183  0.0040
28817W        W44286  16.918   7.764  15.619  0.3292  0.2717  0.0965
28818W        W44287  16.299   5.650   2.661 -0.2166 -0.4282  0.0123
28819W        W44288   5.147  11.633  13.051  0.0299 -0.1394  0.0670
28820W        W44289   1.062   9.376  14.635  0.1070 -0.1159 -0.1039
28821W        W44290  14.457   9.605  15.907 -0.1242 -0.0806  0.1855
28822W        W44291   3.077  15.250  15.273 -0.2442  0.0780 -0.1793
28823W        W44292  17.754   7.643   0.032  0.0714 -0.0760  0.1683
28824W        W44293   7.926   5.858   0.471 -0.3337 -0.0755  0.1626
28825W        W44294   9.756   6.167  15.594  0.0246  0.4334  0.1244
28826W        W44295   3.761   9.130   2.496  0.1178 -0.2791 -0.2074
28827W        W44296   7.571   9.502   2.424 -0.1154  0.2693  0.1632
28828W        W44297   9.912   3.532   1.830  0.0618  0.1894 -0.1963
28829W        W44298  18.279   9.078  12.250  0.1291 -0.1384  0.0997
28830W        W44299   5.907  15.785   3.548  0.0573 -0.3538  0.0035
28831W        W44300   7.357  10.032   5.264 -0.4852 -0.0370  0.1866
28832W        W44301   8.689  12.617  14.048 -0.3406 -0.1768 -0.1181
28833W        W44302  13.337  18.147   5.730  0.0641 -0.1402 -0.3651
28834W        W44303   7.397  14.239  15.728  0.0269 -0.0051 -0.1101
28835W        W44304   8.691   5.413   0.205  0.0903 -0.1820 -0.1693
28836W        W44305   1.071  10.861  11.753 -0.0539  0.2427  0.0653
28837W        W44306  12.781   7.287   1.179 -0.0999 -0.0681 -0.3246
28838W        W44307   5.509  10.885  15.697  0.1284  0.1333  0.2533
28839W        W44308  15.189   7.800   1.381 -0.0515  0.0001  0.1044
28840W        W44309   2.860   8.745  12.057  0.0299 -0.3557 -0.1321
28841W        W44310  15.675   5.887  15.285  0.0839 -0.2675 -0.0350
28842W        W44311   8.578  12.398   4.356  0.3030 -0.2840 -0.1800
28843W        W44312   2.970  12.148  13.181 -0.2211 -0.0537 -0.1433
28844W        W44313   2.919   2.830  14.650  0.2574 -0.3478 -0.1794
28845W        W44314   2.576   2.960   4.268 -0.1251  0.0311  0.3984
28846W        W44315  12.697  16.844   3.431 -0.1284  0.1738 -0.1387
28847W        W44316   4.859   3.860   0.035  0.1639 -0.0624 -0.0143
28848W        W44317   6.767  16.787  15.428 -0.0648 -0.2412  0.1541
28849W        W44318   7.937  17.244   4.149  0.1459 -0.1262  0.5951
28850W        W44319  16.289   6.619  12.014  0.0583 -0.1458  0.0080
28851W        W44320   8.156   3.834   0.738  0.1509 -0.2400 -0.2815
28852W        W44321   8.015   3.257   3.622 -0.2244 -0.3769  0.1167
28853W        W44322   7.194  16.702  15.175  0.0004 -0.0299  0.2369
28854W        W44323   9.138  10.850  13.498 -0.0781 -0.1488 -0.3182
28855W        W44324   7.198   1.972   2.332  0.3386  0.1045 -0.0663
28856W        W44325   4.689  14.599   0.147 -0.1598  0.0427  0.1579
28857W        W44326  13.817   4.573   2.842  0.1873  0.0764 -0.1664
28858W        W44327  13.009   1.911  13.123  0.0874 -0.1041  0.2328
28859W        W44328   4.398   4.778  12.122  0.1117  0.1320  0.2372
28860W        W44329  10.312  12.686  13.783 -0.2929  0.1812  0.0889
28861W        W44330   0.443   3.476  15.045  0.0110  0.1002 -0.0495
28862W        W44331   3.437   1.975   5.257 -0.2697 -0.3729 -0.1065
28863W        W44332   7.481  17.501  12.471  0.0253 -0.1142 -0.3986
28864W        W44333  17.205   5.434  11.615 -0.1317 -0.2180 -0.1147
28865W        W44334   7.853  15.895  14.047  0.0979 -0.1402  0.1365
28866W        W44335  13.867  15.587  13.917 -0.0730  0.0674  0.1148
28867W        W44336   8.316  16.877   2.804 -0.0559  0.0733 -0.0801
28868W        W44337  10.863   8.446  16.041  0.1133  0.3084 -0.2257
28869W        W44338   8.570  10.129  13.634 -0.1856 -0.2996 -0.0173
28870W        W44339  15.681  15.468  13.718 -0.0961 -0.0158 -0.0915
28871W        W44340  13.958  17.156   4.805  0.0545 -0.0895 -0.1222
28872W        W44341  18.224   2.969   0.613 -0.0441  0.1057 -0.0365
28873W        W44342  10.177  17.612  11.683 -0.2611  0.0342  0.1374
28874W        W44343  13.164  14.782   1.048 -0.1305  0.1532 -0.2724
28875W        W44344   2.815  10.677   5.738 -0.1456 -0.2869 -0.1832
28876W        W44345   3.489  12.993   1.548 -0.0354  0.0630 -0.1394
28877W        W44346  13.887  12.874   4.410  0.0751 -0.0091  0.2910
28878W        W44347   8.283  17.977   0.283 -0.0196  0.1399  0.1591
28879W        W44348   0.492   0.903   4.635 -0.0563  0.1259  0.0397
28880W        W44349  16.016  16.935   3.612  0.3230  0.0314 -0.0731
28881W        W44350  16.841   4.359   2.171  0.0055  0.0974  0.0265
28882W        W44351   0.243   4.759   1.930  0.0487  0.0107 -0.2441
28883W        W44352   8.165   6.977   3.201  0.0767  0.1527  0.1722
28884W        W44353   6.934  11.581   4.943 -0.0851 -0.0679  0.0586
28885W        W44354  13.013   4.762   4.720  0.2602 -0.0332  0.4622
28886W        W44355  14.047   5.504  10.998  0.2324  0.0842 -0.2167
28887W        W44356  12.312   5.972   2.151 -0.1361  0.0720  0.4049
28888W        W44357   3.509  16.290   1.017  0.3001  0.1952  0.1833
28889W        W44358   9.639  15.582   3.799  0.1328  0.2942  0.1346
28890W        W44359  16.173  11.173   4.743 -0.1922 -0.1641  0.4137
28891W        W44360  11.142  11.485  14.485  0.0368  0.1706 -0.0626
28892W        W44361  11.081   3.858  12.065 -0.3153 -0.0156  0.2363
28893W        W44362   8.909  14.895   2.313 -0.2698 -0.0586  0.3786
28894W        W44363  17.563   3.154  12.158 -0.0765  0.0294 -0.0588
28895W        W44364   6.776   9.807  10.747  0.0789  0.1693  0.1404
28896W        W44365   7.450  11.903  12.872 -0.0941 -0.2187  0.0056
28897W        W44366   0.646   4.380   2.357 -0.0483 -0.0532 -0.0534
28898W        W44367  15.617  10.197  10.397  0.3877  0.2151 -0.0121
28899W        W44368  14.235  13.092  15.012  0.7043 -0.1169  0.1269
28900W        W44369  14.918  12.148  13.146  0.1155  0.0721  0.0998
28901W        W44370   2.032  14.495   1.650 -0.1086  0.1332  0.1360
28902W        W44371  16.815   0.384  14.423  0.1504 -0.0304  0.0589
28903W        W44372   3.352  17.850  14.920  0.0737  0.1163  0.1343
28904W        W44373   8.656  12.245  15.886 -0.1458 -0.1499  0.2284
28905W        W44374  12.511  17.053  13.474 -0.4475  0.1130 -0.0177
28906W        W44375   2.840  17.657   1.663 -0.2594 -0.1166 -0.1186
28907W        W44376   4.198  13.636   2.635 -0.0523  0.2034  0.2508
28908W        W44377   5.815  15.321   0.093  0.0740  0.1697 -0.2210
28909W        W44378   5.904   2.849   2.252  0.1144 -0.0914  0.0568
28910W        W44379  15.104  17.394   0.394 -0.1979  0.1382 -0.1607
28911W        W44380   9.358   5.133  12.811 -0.4313  0.0130 -0.1259
28912W        W44381  15.651   8.263   3.776 -0.0749  0.1735  0.1035
28913W        W44382   3.809  11.716   1.222 -0.3647  0.0642  0.2566
28914W        W44383   8.329  13.741  14.206  0.1167  0.0063  0.0503
28915W        W44384   7.724   9.636  11.491  0.1482 -0.3593 -0.2543
28916W        W44385   0.756  10.274   5.502 -0.0397 -0.4083  0.1618
28917W        W44386   0.243   9.362  10.847  0.1441 -0.0410  0.0526
28918W        W44387  14.046   8.436   1.433  0.1147 -0.1705  0.3484
28919W        W44388   3.220   6.297   4.384  0.0084 -0.2703 -0.0452
28920W        W44389   3.528  17.735   3.460 -0.2570 -0.1248  0.0336
28921W        W44390   5.304   5.490  13.508 -0.1315  0.0726  0.1322
28922W        W44391  17.303   7.415   2.509 -0.1388  0.0073 -0.1680
28923W        W44392  11.344  11.238   3.260  0.1012 -0.2060 -0.0387
28924W        W44393  10.892   9.739   2.221 -0.2760 -0.0766 -0.1325
28925W        W44394   1.448   4.516  12.129 -0.0285 -0.0757  0.0484
28926W        W44395  10.956   4.966   0.573  0.0795  0.2812  0.3238
28927W        W44396  14.170  14.837   5.452  0.1303 -0.0381  0.1001
28928W        W44397   6.780   2.804   2.410  0.1085  0.2538 -0.0346
28929W        W44398   0.440  16.228   4.323  0.2872  0.4227 -0.0293
28930W        W44399   3.707   1.791  13.973 -0.0007 -0.2085 -0.0778
28931W        W44400  12.968  14.530  11.958 -0.3140  0.3862 -0.0573
28932W        W44401  13.517  16.657   0.234  0.0733  0.0903  0.1882
28933W        W44402  11.848   2.840   1.440  0.1029 -0.0037  0.0753
28934W        W44403  13.490  10.549   5.631 -0.1978  0.3635 -0.1492
28935W        W44404   1.852   7.453   4.409 -0.1513 -0.0136  0.1928
28936W        W44405  13.182  16.584  13.102 -0.1153  0.0436 -0.0288
28937W        W44406  13.201  11.192   0.342 -0.1036  0.3613  0.0665
28938W        W44407   0.594  11.653  14.567  0.1164  0.1812  0.2219
28939W        W44408  15.014   8.889  11.918 -0.1012  0.1422  0.1137
28940W        W44409  18.240   8.934   1.193  0.0223 -0.0926 -0.0534
28941W        W44410  15.780   8.509   1.173  0.0837  0.1592 -0.1014
28942W        W44411   3.820   5.460   0.485  0.0042 -0.2160 -0.2426
28943W        W44412  12.108   1.099  15.974 -0.1563 -0.0471 -0.1968
28944W        W44413   6.468   8.991   3.390 -0.1724  0.1131 -0.1245
28945W        W44414  17.433   8.394  11.760 -0.3601 -0.0084 -0.0105
28946W        W44415  12.969   0.360   3.791 -0.1435 -0.0493  0.1493
28947W        W44416  10.937   0.023   0.451 -0.1255  0.0468  0.2200
28948W        W44417   0.520   9.889  15.324  0.1242 -0.0814 -0.0219
28949W        W44418   9.911  15.702   1.774  0.0120  0.2881 -0.0773
28950W        W44419   2.340  14.859  13.846  0.1906  0.2988 -0.2357
28951W        W44420   0.538   2.864   4.962  0.1455 -0.1053  0.0530
28952W        W44421   5.974  17.677  12.206  0.2607 -0.4076  0.1945
28953W        W44422   0.682   8.236   3.351  0.1369  0.1862 -0.0153
28954W        W44423  15.039   4.272  15.019  0.0249 -0.0338  0.0458
28955W        W44424  18.117   8.508  12.196 -0.0642  0.0979 -0.1928
28956W        W44425  13.823  14.832   2.018 -0.1052  0.0286 -0.0508
28957W        W44426   4.897   8.717   3.532  0.0677 -0.0044 -0.3818
28958W        W44427   4.162   9.240  11.785  0.0079 -0.1032  0.2357
28959W        W44428  13.784  11.189   3.023  0.3528 -0.0176  0.0745
28960W        W44429  12.489   0.027   0.357  0.4299  0.4826 -0.0565
28961W        W44430   3.418   5.404  15.310  0.0112 -0.1536  0.2947
28962W        W44431  14.510   6.524  13.312 -0.1408  0.3031 -0.1566
28963W        W44432  15.370  13.332   2.829  0.0376  0.0346  0.1327
28964W        W44433  10.059   7.291  12.007  0.1897 -0.0610  0.2347
28965W        W44434   8.785   7.193  15.711  0.2122  0.2514 -0.0040
28966W        W44435   6.749   3.018  13.537  0.0295 -0.0127  0.0885
28967W        W44436   0.087  14.916   1.091  0.1979  0.1672 -0.0946
28968W        W44437  12.557   5.842   1.332 -0.3378  0.1345  0.0893
28969W        W44438   7.260   6.005   4.595 -0.2004 -0.1034  0.0942
28970W        W44439  17.705   3.551   1.697  0.0755  0.0654  0.1738
28971W        W44440   8.810   5.599   5.424 -0.3178  0.0825  0.1358
28972W        W44441   3.258  10.360   3.055 -0.2543  0.0109 -0.0297
28973W        W44442   2.943   5.484  15.096 -0.0593  0.2106  0.2179
28974W        W44443   2.994   3.983   4.961  0.1768 -0.1713 -0.0006
28975W        W44444   8.361   6.341  16.068  0.1010  0.1456  0.1311
28976W        W44445   7.587   7.784   1.599 -0.1386  0.0241  0.5013
28977W        W44446  16.027  11.444  12.425 -0.0726  0.0362  0.3387
28978W        W44447   4.158  13.975   1.583 -0.1136 -0.2514  0.0747
28979W        W44448  11.757   7.494   0.074 -0.0287 -0.0545 -0.1168
28980W        W44449   7.020   6.711   1.257 -0.2208  0.1489 -0.0089
28981W        W44450   7.774  14.814  10.013  0.1610 -0.1784  0.2308
28982W        W44451   6.948  15.157   3.896  0.0024 -0.1638 -0.1843
28983W        W44452  11.591  18.003   2.914  0.2122 -0.1467  0.0229
28984W        W44453  10.642   2.723   5.732 -0.1113  0.2317 -0.3274
28985W        W44454  11.849  12.929   5.514 -0.1624  0.2131 -0.0652
28986W        W44455   6.065   2.475  10.639 -0.0092 -0.1128  0.1307
28987W        W44456  15.401  10.872  15.831  0.2987 -0.0751 -0.0022
28988W        W44457  17.096   5.210   4.257 -0.2883  0.1254  0.2761
28989W        W44458  15.141   3.729  15.069 -0.1095  0.0364 -0.0950
28990W        W44459   8.990   2.701  13.489  0.1755 -0.3362  0.2212
28991W        W44460  13.988  15.873  10.645  0.0251 -0.2744  0.0478
28992W        W44461  11.557   0.687  10.442 -0.0811 -0.0249  0.0580
28993W        W44462  12.148  16.220  13.525 -0.3648  0.2562  0.3938
28994W        W44463   3.713   3.930  14.105  0.0468  0.0704  0.1828
28995W        W44464   6.032  13.557   2.511 -0.0783  0.0441  0.0340
28996W        W44465   0.290   1.445  14.928 -0.1008 -0.1906 -0.0330
28997W        W44466   0.308   8.256  14.385  0.1045 -0.1354 -0.0044
28998W        W44467  15.432   1.360   6.497 -0.0243  0.0188  0.0416
28999W        W44468   6.094  11.232  11.052  0.0549 -0.0077 -0.2216
29000W        W44469   3.851  16.140   5.026 -0.1649 -0.2073  0.2263
29001W        W44470  12.046   5.938  10.547 -0.4009  0.1005  0.1389
29002W        W44471  16.821   4.781   3.762  0.1181  0.5116 -0.1019
29003W        W44472   4.528  11.055  11.966  0.1214 -0.0264 -0.2255
29004W        W44473   1.876  10.685  13.838 -0.4034  0.2396  0.1024
29005W        W44474  17.904   9.901  11.707  0.0007 -0.3135 -0.2815
29006W        W44475   1.229  16.004  15.698 -0.0043  0.2116 -0.3641
29007W        W44476   6.702   0.566   5.183 -0.3250  0.2831  0.1342
29008W        W44477   1.017   8.606   4.704 -0.0845 -0.1011  0.2310
29009W        W44478   0.177  13.728   5.140 -0.2468  0.0035 -0.1159
29010W        W44479   8.917   2.705  11.396  0.1255  0.0268  0.0248
29011W        W44480   9.862  14.934  13.925 -0.0137  0.0178 -0.1458
29012W        W44481   9.308   9.571   5.002 -0.0154 -0.0189 -0.0983
29013W        W44482  12.373   8.554  12.098 -0.0050  0.1135  0.0034
29014W        W44483  10.504  12.340  11.436 -0.0183  0.1519  0.1682
29015W        W44484  14.608   8.543   1.963  0.4099  0.0459 -0.0844
29016W        W44485  14.509  17.979  11.193 -0.0364  0.3322 -0.0923
29017W        W44486  17.580  10.259  14.792  0.1090  0.2571  0.0437
29018W        W44487  17.662  14.823  13.013 -0.0183 -0.3455 -0.0280
29019W        W44488   0.394  11.607   1.496 -0.1908 -0.1381  0.0029
29020W        W44489   4.976   9.326  11.166  0.0416 -0.1225  0.0854
29021W        W44490  12.629   0.592   4.066  0.2230  0.0564 -0.0636
29022W        W44491   6.177  11.449  15.896  0.3805  0.0563  0.1568
29023W        W44492  18.282  17.573  12.558 -0.2234 -0.3523 -0.0682
29024W        W44493   7.555  13.656   4.618 -0.1407 -0.0412  0.2244
29025W        W44494  17.036  15.062   4.949  0.1864 -0.0361 -0.1751
29026W        W44495   5.027   2.717   5.362 -0.1745 -0.0377  0.1729
29027W        W44496   8.620  14.096  10.763 -0.3447  0.0868 -0.1677
29028W        W44497  10.481  10.833  14.827  0.0841 -0.1878 -0.1078
29029W        W44498   5.857  13.794   1.216 -0.0196  0.1096 -0.1162
29030W        W44499  10.249  15.684   1.328 -0.1836  0.0159  0.0426
29031W        W44500   6.826   2.692   5.051  0.2552  0.1329 -0.0388
29032W        W44501  13.637   2.835  11.761 -0.3162 -0.1301  0.0486
29033W        W44502  12.230   7.095  10.981  0.1527  0.2686 -0.0343
29034W        W44503   5.879  12.913  12.189 -0.0668  0.1312  0.0261
29035W        W44504   2.252   3.702  11.842 -0.1521  0.1134  0.1755
29036W        W44505   3.616   7.795   2.098  0.0444  0.0420  0.0430
29037W        W44506  15.122   8.610   5.202 -0.3431  0.1182 -0.1523
29038W        W44507  12.284   5.109   5.251 -0.1729 -0.0981 -0.1995
29039W        W44508   3.316   0.572   1.485  0.0445  0.5249 -0.0185
29040W        W44509   9.490   9.044  14.538 -0.3175  0.3385 -0.0364
29041W        W44510   7.834   3.553   4.039  0.3065  0.2880 -0.1588
29042W        W44511   6.371   8.320   5.028 -0.2444 -0.0426  0.2890
29043W        W44512   7.562   6.736   5.868 -0.0036 -0.2729 -0.1345
29044W        W44513  13.723   7.048  11.730  0.0956 -0.1982  0.1996
29045W        W44514   1.599   7.760   9.948 -0.1620 -0.6705  0.0709
29046W        W44515   3.632  11.244   4.156  0.0013  0.1147 -0.1304
29047W        W44516   7.575  17.810   3.352 -0.2506 -0.0254 -0.0966
29048W        W44517   3.564  14.798   6.100  0.1247 -0.1930 -0.2549
29049W        W44518  12.880   7.518   5.861  0.0589  0.0088 -0.1530
29050W        W44519   4.160   9.885   5.149  0.2049 -0.1234  0.0141
29051W        W44520   0.577   6.248  12.208  0.2010  0.2484  0.1041
29052W        W44521  10.051  10.871   1.181  0.3285 -0.2351 -0.0897
29053W        W44522  15.600   7.228  12.502 -0.1250  0.2967 -0.0467
29054W        W44523   5.844   2.032   2.909  0.2892 -0.1564 -0.2060
29055W        W44524  13.116   9.884   3.051 -0.0344 -0.1617 -0.2348
29056W        W44525  15.350   6.407   4.230 -0.0534  0.0979  0.2364
29057W        W44526   4.301   6.140   4.656 -0.2304  0.1583 -0.0908
29058W        W44527  10.545  13.843   3.922  0.2220 -0.0370 -0.3646
29059W        W44528  15.932   3.931  12.968  0.0234  0.1574  0.0306
29060W        W44529  13.261  17.206   4.237  0.0086 -0.1373 -0.1769
29061W        W44530  13.726   5.537   3.190 -0.1141 -0.1183 -0.2829
29062W        W44531  16.743  17.137   5.352 -0.1274 -0.1309 -0.2499
29063W        W44532  15.335   1.968  12.762  0.0583 -0.0925  0.1775
29064W        W44533  10.307   2.037  11.241 -0.2192  0.2495 -0.1948
29065W        W44534  14.928   7.740   5.319  0.0719  0.3347 -0.0622
29066W        W44535  15.636  16.364  14.136 -0.0732  0.1142 -0.0641
29067W        W44536  15.081   6.725  14.856  0.1665  0.0348  0.0165
29068W        W44537   5.926  13.732  12.366 -0.1162 -0.1249  0.0712
29069W        W44538   5.014   0.209  16.072 -0.0913 -0.0833  0.0789
29070W        W44539   8.484  17.657   1.627  0.0684 -0.2413 -0.3479
29071W        W44540   2.929   1.209   1.197 -0.0373  0.1873  0.2475
29072W        W44541   1.093  12.666  14.929 -0.0409  0.0585  0.1988
29073W        W44542   1.016   2.887   1.325 -0.2685 -0.0546  0.0079
29074W        W44543  12.678  16.659  13.187  0.0398  0.0031  0.2377
29075W        W44544  15.155  17.340  11.874  0.0560 -0.0442  0.0109
29076W        W44545   5.396   2.591   5.060 -0.3458  0.3175 -0.0239
29077W        W44546  15.550   3.364  12.165  0.1886  0.1548 -0.0102
29078W        W44547  15.754  12.542   4.520  0.2248 -0.4671 -0.2148
29079W        W44548  11.623  15.691   3.893 -0.0606 -0.0629 -0.2354
29080W        W44549  15.854   4.051   1.345  0.1297  0.0457  0.0365
29081W        W44550  12.079  10.462   5.834  0.0449 -0.0806  0.2681
29082W        W44551  13.655  10.618  12.904 -0.3843  0.0541  0.1635
29083W        W44552  13.324  15.755   3.627  0.3649 -0.0714  0.2678
29084W        W44553  10.203   2.606   1.680  0.0071  0.1908  0.0118
29085W        W44554  13.540  13.005  11.908  0.3087 -0.0774 -0.0661
29086W        W44555   4.263  14.556   3.570  0.0245 -0.0633 -0.2195
29087W        W44556   2.981   6.113  11.813  0.0135 -0.3275  0.0126
29088W        W44557  10.716   2.897   1.003  0.0644 -0.0186 -0.1200
29089W        W44558  15.728   1.025  13.816 -0.0298  0.2437  0.2307
29090W        W44559   9.852  11.048  15.511 -0.1380 -0.0478 -0.0224
29091W        W44560   8.323  16.273   0.426 -0.1862  0.1188  0.5446
29092W        W44561  10.427   6.941   0.034  0.0422 -0.2253  0.0744
29093W        W44562   2.591  17.120  15.002 -0.1302  0.1774  0.0093
29094W        W44563   5.338   7.068  11.766  0.1940  0.0840  0.2645
29095W        W44564  15.577   5.935  12.894  0.0709 -0.4844  0.0536
29096W        W44565  15.242  16.226   3.574 -0.4189 -0.1136  0.1312
29097W        W44566   8.489   9.078  15.105 -0.0201 -0.0418 -0.0504
29098W        W44567   0.164   3.336  13.163 -0.0806 -0.2396 -0.1413
29099W        W44568  17.434  12.484  12.033  0.1933  0.0289  0.0346
29100W        W44569   8.148   8.344  13.390  0.3209 -0.2346  0.0042
29101W        W44570  10.860   2.361   1.699 -0.4321 -0.1654 -0.1657
29102W        W44571  10.763  14.200   3.579  0.0586  0.3836  0.0956
29103W        W44572  12.223   9.184   1.413 -0.1957 -0.0666  0.1997
29104W        W44573  11.007   9.847   3.596  0.0790  0.0748  0.2798
29105W        W44574   7.798   9.726   4.335  0.2840  0.0549  0.0424
29106W        W44575  12.757   4.144  15.907 -0.2206 -0.1778  0.2583
29107W        W44576  14.873   4.343  15.713 -0.0578 -0.0115  0.0097
29108W        W44577  17.479   2.357   5.808 -0.2737  0.2370 -0.1853
29109W        W44578   9.717  17.230   1.424 -0.0131 -0.0269 -0.1407
29110W        W44579  18.186  10.630  15.415  0.2301  0.1966  0.3341
29111W        W44580  16.377   7.020   3.548  0.0724  0.0632  0.3562
29112W        W44581   0.360   5.888   2.838  0.2475  0.1303 -0.0544
29113W        W44582   4.677   1.777   1.710  0.0814  0.1273  0.1540
29114W        W44583   0.126  11.375  14.553  0.0690  0.1185  0.2090
29115W        W44584   4.602  16.119  14.779  0.1230  0.0055 -0.0209
29116W        W44585  10.235   2.227  12.494 -0.0128 -0.0820 -0.0153
29117W        W44586  13.921  17.777  11.568 -0.1495 -0.1287  0.1492
29118W        W44587  17.223   0.357   3.712 -0.5120  0.0614 -0.1364
29119W        W44588   7.845   7.874  14.927  0.4370 -0.5219 -0.2600
29120W        W44589  12.412   0.213   4.903 -0.2688 -0.0976 -0.1458
29121W        W44590   2.348  12.000  14.334 -0.2029  0.3579 -0.0363
29122W        W44591   8.188   4.054  11.902  0.1743  0.1173 -0.0185
29123W        W44592  11.140   1.317   0.892 -0.3510 -0.0497 -0.0085
29124W        W44593  10.788   9.883  13.068  0.3484  0.1821  0.3430
29125W        W44594  10.640  11.721   2.628 -0.0333  0.2159 -0.0859
29126W        W44595  13.720   1.140   0.898  0.1536  0.1837 -0.4056
29127W        W44596  17.003   1.375  13.585 -0.1566 -0.2271 -0.0524
29128W        W44597  13.215  13.519   3.979  0.0227 -0.1161 -0.0960
29129W        W44598   2.839  10.430   3.301 -0.1040  0.0352 -0.1742
29130W        W44599  10.974   5.135  14.912  0.2004 -0.1949 -0.1523
29131W        W44600   5.381   4.003  15.601  0.1794 -0.0500 -0.1830
29132W        W44601  16.834   9.712  14.225  0.1590  0.1499  0.0749
29133W        W44602  10.503  15.118   1.429  0.0441 -0.0050 -0.2176
29134W        W44603   3.515  15.229   0.498 -0.0430 -0.1627 -0.1096
29135W        W44604   3.362   6.002  10.808  0.0743  0.0914 -0.2969
29136W        W44605  15.328   8.989  11.008  0.2461 -0.1213  0.0472
29137W        W44606  16.780   7.096  13.799  0.0007  0.2171  0.1887
29138W        W44607   8.876   2.039  14.698 -0.0875 -0.0914 -0.0587
29139W        W44608  18.251   6.036   2.498 -0.1334 -0.3953 -0.0290
29140W        W44609   8.088   5.144  15.627 -0.0177 -0.0110 -0.0973
29141W        W44610   4.475  12.480  11.992 -0.1261  0.1923  0.1853
29142W        W44611   0.049   1.936  10.341  0.0811 -0.1245 -0.4363
29143W        W44612  18.117  17.973  12.894  0.0384 -0.0069  0.1829
29144W        W44613  13.912  18.029   1.445  0.5656  0.2561 -0.5321
29145W        W44614   6.809  12.945  15.192 -0.1623  0.0011  0.1588
29146W        W44615  12.005   9.172   0.840  0.1158 -0.1309  0.1795
29147W        W44616  15.928  12.411  11.730 -0.0328  0.1057  0.0499
29148W        W44617   2.680   0.445   1.895  0.0429 -0.0045 -0.1369
29149W        W44618   2.432  14.709  16.091  0.2645 -0.1892  0.2266
29150W        W44619   2.688   5.941  14.313 -0.3998 -0.1351  0.2980
29151W        W44620  10.232  11.436  11.452 -0.2264  0.1890 -0.1290
29152W        W44621  13.157   8.474  12.706  0.0570 -0.1229 -0.0185
29153W        W44622  10.945   7.754  11.714  0.2361 -0.0439 -0.2111
29154W        W44623  15.780  12.326  14.191 -0.2004 -0.0237 -0.1399
29155W        W44624   6.888   3.400  13.230  0.0192  0.0138  0.0080
29156W        W44625  14.863  14.802  14.917 -0.0225 -0.0978 -0.1449
29157W        W44626   5.360  11.970   5.717  0.2380  0.1450  0.1917
29158W        W44627  12.278  14.167  14.905  0.0933 -0.3032 -0.0555
29159W        W44628   7.318  16.214  14.979  0.0726 -0.2494  0.3560
29160W        W44629   9.337  14.340   1.420  0.1240 -0.2689 -0.1749
29161W        W44630   6.227  17.605  11.751  0.0013 -0.2310  0.0423
29162W        W44631   3.585  15.440  13.495 -0.0317  0.3349  0.0453
29163W        W44632  14.551   4.559   4.113 -0.3368 -0.1925 -0.1053
29164W        W44633   1.714   9.370   3.768 -0.3203 -0.0817 -0.4558
29165W        W44634  15.572  14.464   3.367  0.1939  0.2517  0.2869
29166W        W44635   2.237   5.241  11.724  0.2034  0.0928  0.1804
29167W        W44636  10.939  12.651   4.170 -0.1655 -0.0265 -0.0419
29168W        W44637  10.222  14.024   5.558  0.2327 -0.1707 -0.0156
29169W        W44638  14.534   4.138  12.386 -0.2365 -0.0059  0.2222
29170W        W44639   6.743   4.148   5.615  0.0391 -0.0298  0.2013
29171W        W44640   9.843   7.682   2.114  0.1428  0.1227  0.1442
29172W        W44641   9.570  13.933  12.104 -0.1304 -0.3923 -0.2139
29173W        W44642   1.643  12.953  11.710 -0.0813  0.1642 -0.1861
29174W        W44643   5.940   7.108  13.060 -0.2518  0.1833 -0.1353
29175W        W44644  12.588   9.970  10.929  0.1436 -0.0034 -0.0913
29176W        W44645   1.335  15.501   1.110 -0.1780 -0.0821  0.1197
29177W        W44646   4.372  11.636  12.567  0.0062  0.0486 -0.0031
29178W        W44647   0.048  16.939   3.496 -0.0736  0.0106  0.1869
29179W        W44648  18.056  16.774   3.917 -0.1629  0.2323  0.0818
29180W        W44649   2.353   4.504   3.600 -0.1668  0.0079  0.1186
29181W        W44650   9.651  15.701   5.877  0.0609 -0.0926  0.1143
29182W        W44651  10.177   3.974   1.874 -0.1510  0.0012  0.0220
29183W        W44652  10.668   9.265  10.545 -0.1505  0.1051  0.0440
29184W        W44653  17.003   6.479   3.487  0.0590 -0.0395 -0.0858
29185W        W44654  11.892  12.182   2.407 -0.1150 -0.1154  0.1023
29186W        W44655   5.686   3.005   5.219 -0.0551 -0.3468 -0.1275
29187W        W44656  15.433  13.650  16.019  0.3550 -0.3579  0.0341
29188W        W44657  10.869  10.977  15.352  0.0060  0.0990 -0.1410
29189W        W44658   4.004   9.168   0.984 -0.1595 -0.3644 -0.0985
29190W        W44659  14.283  13.119   4.512  0.0208 -0.0055  0.2663
29191W        W44660  11.587  15.043   0.537  0.0920 -0.0832 -0.1955
29192W        W44661  10.923  11.989   3.536 -0.0004  0.1148  0.0115
29193W        W44662  17.893   1.052  14.871  0.0747 -0.0780  0.0285
29194W        W44663  12.572  18.029  15.447 -0.1768 -0.0715 -0.0510
29195W        W44664   8.158   1.232   3.269 -0.1890 -0.1379 -0.0884
29196W        W44665   3.805  15.766  10.127 -0.1881  0.2006 -0.0518
29197W        W44666   8.191  13.113   2.466 -0.0786 -0.2001 -0.2471
29198W        W44667   8.494  16.084   4.856 -0.1411  0.4542 -0.0206
29199W        W44668   3.334   2.370  13.237 -0.0914 -0.1877 -0.0451
29200W        W44669   3.887   6.820  12.397  0.2544  0.0020 -0.3241
29201W        W44670   1.317   9.763  11.148 -0.1248  0.0599  0.0696
29202W        W44671  16.973  17.483  14.698 -0.1047  0.0904 -0.1267
29203W        W44672   6.102   4.122  10.968 -0.0690 -0.4188  0.1746
29204W        W44673   9.054  17.133  14.254  0.0691  0.0670  0.1013
29205W        W44674  15.916   3.617   5.513 -0.3605 -0.0212 -0.0576
29206W        W44675  11.307  16.892  15.581 -0.3086 -0.0529 -0.2957
29207W        W44676  10.214   0.612  14.730 -0.0572  0.3462 -0.1910
29208W        W44677  16.727  17.980  11.146  0.2627 -0.4163  0.3035
29209W        W44678  16.922  13.835  11.825 -0.0143 -0.2781 -0.0476
29210W        W44679   1.172  14.654  13.374 -0.5286 -0.4217  0.1608
29211W        W44680  14.753  16.493   1.529  0.0614 -0.3211 -0.3363
29212W        W44681   0.644  13.053   0.195 -0.3103 -0.2805 -0.2510
29213W        W44682  13.464   4.483   0.426  0.0945 -0.1581  0.1965
29214W        W44683   5.368  12.999  14.068 -0.2346 -0.0086  0.0701
29215W        W44684   7.057  12.071   4.836 -0.0252 -0.4409  0.2421
29216W        W44685  16.770   4.677  14.826  0.2282  0.4055 -0.0241
29217W        W44686   9.276   1.630   4.950 -0.1960  0.3862  0.0796
29218W        W44687   0.244   8.820  10.886 -0.1140  0.1771 -0.2364
29219W        W44688  17.975  17.966  14.827  0.4119 -0.1785  0.2420
29220W        W44689   3.218   3.484  11.556  0.1208 -0.0391  0.0804
29221W        W44690  14.766   4.401  14.630  0.3217  0.2040  0.0095
29222W        W44691  13.766  15.865  15.395 -0.1540 -0.0192  0.1468
29223W        W44692  11.595  17.004   5.914  0.1572 -0.2426  0.0399
29224W        W44693  17.305   0.221   2.549  0.2219  0.3268 -0.2204
29225W        W44694   8.515  15.023  12.840 -0.0485  0.1810  0.0447
29226W        W44695   0.318   8.347   4.278 -0.0834 -0.0425 -0.1195
29227W        W44696   7.583  11.106  13.347 -0.0392  0.2042  0.1068
29228W        W44697  17.757   7.954  11.399 -0.0406  0.2161  0.2376
29229W        W44698  11.471   8.594  11.894 -0.0829  0.0723 -0.1265
29230W        W44699   0.682  18.094   1.113 -0.2116 -0.3403  0.0583
29231W        W44700  13.404   9.456  12.528  0.0976  0.0003  0.1523
29232W        W44701  13.996   0.839   3.313 -0.0586 -0.1372  0.1211
29233W        W44702   5.364   4.329   2.002 -0.0025 -0.0657 -0.3223
29234W        W44703   5.299  11.537   4.062 -0.0687  0.1822 -0.1353
29235W        W44704   6.305   7.117  12.167  0.1362 -0.0582  0.0127
29236W        W44705  15.430  17.783  12.830  0.1576  0.1537 -0.0330
29237W        W44706   9.603   5.303   0.580 -0.0858 -0.3325 -0.0839
29238W        W44707   3.954   0.950   4.017  0.0806 -0.1221  0.0105
29239W        W44708  11.750  11.724   1.813  0.1135  0.1339  0.1006
29240W        W44709   2.768   0.157   2.918 -0.1988  0.2056  0.0088
29241W        W44710   6.094   3.323   5.266 -0.0806  0.2543  0.5509
29242W        W44711   5.331  17.768  12.975  0.0966  0.1547  0.1530
29243W        W44712   4.073   1.060  11.793  0.2123  0.1277  0.0127
29244W        W44713  14.778  13.730   2.322  0.1237  0.1048 -0.2925
29245W        W44714   0.232  11.077  10.994  0.0674 -0.1017  0.2051
29246W        W44715   6.739   7.808   2.085 -0.1029 -0.1705  0.3447
29247W        W44716   9.050   5.870  15.983  0.0587  0.0836  0.3348
29248W        W44717   2.193   1.894   4.947  0.0026  0.3069 -0.5142
29249W        W44718  11.442  17.275   0.716 -0.0362 -0.1748  0.1664
29250W        W44719   0.966   0.462   0.016 -0.1638 -0.0162  0.1839
29251W        W44720  12.273   6.141   1.621  0.1075  0.0299 -0.0331
29252W        W44721  15.724   8.892   3.291 -0.1430 -0.1839 -0.1788
29253W        W44722  10.349  15.446  13.077  0.1278 -0.3048  0.0445
29254W        W44723   3.926   0.185  11.425 -0.1512 -0.1583  0.2667
29255W        W44724   7.290   5.491  11.088 -0.1232  0.0462  0.0966
29256W        W44725   4.870   9.691   1.484  0.3108  0.0944 -0.0404
29257W        W44726   1.070  14.612   4.337 -0.4294  0.0998  0.1347
29258W        W44727  16.206   7.432   1.277  0.2571  0.3042 -0.0685
29259W        W44728   1.442   8.989  11.931 -0.1018  0.0608 -0.0233
29260W        W44729   3.722   8.570   3.133 -0.1924  0.3343  0.1385
29261W        W44730   3.072  16.782   3.666  0.1993 -0.0308  0.0552
29262W        W44731  17.801  14.968  15.112  0.4774  0.1091 -0.0080
29263W        W44732  10.794   4.239   4.751 -0.1253  0.0802 -0.0226
29264W        W44733   7.854   6.061  13.919 -0.1074 -0.1025 -0.0021
29265W        W44734   0.557   6.603   1.128 -0.1456 -0.0054  0.0676
29266W        W44735  12.679  10.748  13.323  0.0596  0.2321 -0.1221
29267W        W44736   8.594  15.219  14.155  0.0066  0.1344  0.2053
29268W        W44737   9.347  18.265  14.718 -0.1100 -0.1967  0.0886
29269W        W44738  15.062   3.070   5.513  0.1742 -0.0628 -0.3232
29270W        W44739   9.946   5.540   3.303 -0.2831  0.0366 -0.3669
29271W        W44740  16.864  12.352  12.106  0.0634 -0.1804 -0.0667
29272W        W44741   1.548   0.364  15.052 -0.4093  0.0537  0.2110
29273W        W44742  14.392   4.425   2.291  0.0195 -0.0015  0.1496
29274W        W44743   1.818  11.478  12.718  0.4383 -0.0093 -0.0567
29275W        W44744  17.106  11.253  14.610 -0.0362 -0.1121  0.2017
29276W        W44745  11.637  14.777   0.009 -0.0235  0.0704  0.0729
29277W        W44746  12.408  16.229  12.543  0.1632  0.1097  0.0323
29278W        W44747   8.775   3.571   1.490  0.0420  0.1824 -0.0257
29279W        W44748  15.320   2.559   5.159 -0.1738  0.1979 -0.1637
29280W        W44749   9.249  14.603   4.608 -0.0888  0.1251  0.0056
29281W        W44750   9.701  15.051   2.607  0.1709 -0.1615  0.0605
29282W        W44751   9.803   5.484  13.428 -0.3987  0.0619  0.1887
29283W        W44752   1.963   4.459   2.586 -0.0161 -0.1529 -0.0316
29284W        W44753  10.851  14.247  12.588  0.1367 -0.0982 -0.2068
29285W        W44754   8.672  15.559   1.712 -0.0625  0.3515  0.1315
29286W        W44755  14.118   1.819  14.747 -0.0367 -0.3062  0.2281
29287W        W44756   3.154   3.298  15.391 -0.2816  0.2485  0.3821
29288W        W44757  11.432   1.103  11.656  0.2369  0.2207  0.0062
29289W        W44758  11.952  16.630   3.120 -0.2096  0.1696  0.0814
29290W        W44759  14.426   8.372  14.121  0.0798 -0.2087 -0.1353
29291W        W44760   8.570  16.934   2.172 -0.1572 -0.1637  0.2614
29292W        W44761  11.239   7.907  15.480 -0.0069 -0.0585  0.3125
29293W        W44762   4.796   9.547  13.279  0.0742  0.0384 -0.1348
29294W        W44763   2.295   8.181  14.541  0.3446  0.2283  0.1331
29295W        W44764   2.341   6.579  12.256 -0.0712  0.1969 -0.1899
29296W        W44765  17.755   2.340  13.688 -0.1839 -0.2542 -0.0036
29297W        W44766  11.809  15.790   1.495  0.0302  0.2209  0.0622
29298W        W44767   9.729  12.527   1.540 -0.2125  0.1661 -0.0988
29299W        W44768   6.504  11.702  13.278 -0.0050  0.2301  0.0962
29300W        W44769   9.197   4.335  14.494 -0.1288 -0.1908 -0.1837
29301W        W44770   4.721  17.920   2.570 -0.2234  0.2614  0.0824
29302W        W44771   4.834   8.707  10.412  0.1427 -0.0361  0.0059
29303W        W44772   1.553  18.119  16.112 -0.2270 -0.0353 -0.1532
29304W        W44773   8.709  16.037   0.322 -0.0097 -0.0159  0.1396
29305W        W44774  13.721  11.288   0.867  0.1245  0.0457 -0.0864
29306W        W44775   8.783  13.979   4.943 -0.1461 -0.0413 -0.0916
29307W        W44776  12.714  13.483   5.362 -0.5048  0.0464  0.0457
29308W        W44777   9.227  10.572  11.142 -0.1739  0.0919  0.0017
29309W        W44778   4.655   5.753   4.054 -0.0033 -0.0226 -0.1792
29310W        W44779  12.223   1.865   3.622  0.2466  0.2338 -0.2480
29311W        W44780   9.749  12.234  14.672  0.1207  0.1951  0.1656
29312W        W44781   7.951   8.929   0.754  0.2067 -0.0090 -0.1397
29313W        W44782  16.843   6.196  12.289  0.0462 -0.1114 -0.0444
29314W        W44783  14.040  17.654  12.797 -0.1001  0.1098 -0.0239
29315W        W44784   4.019  16.963   6.322 -0.1104 -0.1622  0.1388
29316W        W44785  10.250  17.891  15.152  0.2497 -0.0928  0.0191
29317W        W44786   0.912   2.703  14.833 -0.0951  0.4872 -0.2071
29318W        W44787  14.347   5.777   3.156  0.0325  0.3196  0.1061
29319W        W44788   7.209   8.053   2.911  0.1551  0.3104  0.0861
29320W        W44789  11.268  15.632  13.407  0.0323 -0.0193  0.0266
29321W        W44790  13.486  12.072  12.140 -0.0931  0.0731 -0.2460
29322W        W44791   5.810  13.769   2.091  0.2192 -0.0905  0.1809
29323W        W44792  15.946  16.783   5.387  0.1431  0.0223  0.0780
29324W        W44793  17.915   6.177   2.090  0.1685  0.2571 -0.0645
29325W        W44794   4.882   7.657  12.972 -0.0124 -0.1571  0.0741
29326W        W44795  17.872   1.412  13.104  0.0021  0.3796  0.0986
29327W        W44796   2.266   2.143   4.118  0.1218  0.1292  0.2458
29328W        W44797   1.949  17.985   2.481 -0.1567  0.2994 -0.2455
29329W        W44798  17.376   9.364  13.491 -0.1682  0.2144 -0.0668
29330W        W44799  10.332  12.976   1.613 -0.0691  0.2321  0.0423
29331W        W44800   5.556   9.274   0.832  0.0189 -0.0591 -0.0504
29332W        W44801   9.031  17.537  12.016 -0.2070  0.0138  0.2113
29333W        W44802  18.069   4.953  12.767  0.0002  0.3960  0.5346
29334W        W44803   1.105   5.585   3.760 -0.2441  0.0958  0.1256
29335W        W44804   3.421  11.166  11.540  0.1775  0.1062  0.2879
29336W        W44805  16.896   5.170  14.142  0.0838  0.2294 -0.0404
29337W        W44806  12.843  15.005  11.987  0.0604  0.1619 -0.2813
29338W        W44807   2.307   8.785   4.577 -0.1805 -0.2835 -0.2048
29339W        W44808   4.019   9.876  10.962  0.1470  0.2536  0.1370
29340W        W44809  14.301  12.606   5.882  0.0999  0.3485  0.0640
29341W        W44810  15.965   3.421  11.754  0.4148 -0.2744  0.0122
29342W        W44811  14.640   9.072  11.690  0.2179 -0.1169  0.0152
29343W        W44812  16.778   6.648  12.026  0.0298  0.1590  0.0352
29344W        W44813   6.547  12.514   2.078  0.0303  0.0101  0.4322
29345W        W44814  11.023  15.452   4.605  0.0910 -0.2021  0.0367
29346W        W44815   0.341  17.848  13.885 -0.0586 -0.0528  0.2707
29347W        W44816  14.797   0.998   3.624 -0.1908  0.1197 -0.1075
29348W        W44817   2.127   7.720  14.341 -0.0773 -0.2597 -0.3031
29349W        W44818  14.616   8.299  12.548  0.1771 -0.0683  0.2830
29350W        W44819   0.478   5.504   6.007  0.1907 -0.2252 -0.3979
29351W        W44820  15.850   5.024   1.423 -0.0416  0.0697 -0.2212
29352W        W44821  14.493  14.713   3.819  0.0913 -0.3292  0.0375
29353W        W44822   8.744  15.913  12.234  0.0537 -0.0012 -0.2937
29354W        W44823   6.837   1.492  12.187 -0.1016 -0.2653  0.0575
29355W        W44824   8.365  11.900  14.724 -0.3097  0.0245 -0.3359
29356W        W44825   1.007   5.386  13.819  0.2083 -0.3376 -0.1767
29357W        W44826  16.848   7.752   4.381  0.2346  0.0044 -0.0616
29358W        W44827   6.921   8.232  12.255  0.1430  0.2656 -0.0821
29359W        W44828   3.433  11.742   3.147  0.1456 -0.0191 -0.0748
29360W        W44829  17.568   0.998   4.478  0.2285 -0.1402 -0.3245
29361W        W44830  16.021   1.845   0.444 -0.3614 -0.0307  0.2084
29362W        W44831  11.979   0.723  13.395  0.0902 -0.1408 -0.1860
29363W        W44832  11.177  12.394  12.686  0.3194 -0.0277 -0.2937
29364W        W44833   0.201   5.243   1.240 -0.2830 -0.2813 -0.0357
29365W        W44834   3.769  17.252   3.524  0.1778  0.1023 -0.1146
29366W        W44835  17.893  16.732  15.768  0.5235 -0.0839  0.1453
29367W        W44836   0.393   0.622   3.412 -0.1249 -0.2977 -0.0682
29368W        W44837   5.561   4.251   3.227  0.3937 -0.2237  0.0378
29369W        W44838   4.880  10.799   3.580 -0.0605 -0.0215  0.2084
29370W        W44839   6.448  18.115   2.366  0.2178 -0.0621  0.0641
29371W        W44840  13.987  13.589  15.017  0.1944  0.0342 -0.0735
29372W        W44841   9.619  17.489   4.501 -0.0858  0.0451 -0.0528
29373W        W44842   4.850  14.882  12.891 -0.2665  0.0151  0.1891
29374W        W44843   8.818   6.707   0.885 -0.0258 -0.0463 -0.0723
29375W        W44844   1.299   7.193   1.134  0.1203  0.0382  0.4135
29376W        W44845   4.356  10.637  15.074 -0.0046  0.1646 -0.0258
29377W        W44846   9.493  13.169   0.565 -0.0147  0.1210 -0.2180
29378W        W44847   8.729  15.334  11.498  0.1111  0.0456  0.1444
29379W        W44848   7.298  12.793  15.095 -0.0943 -0.1875  0.0013
29380W        W44849  11.752   1.664  11.455  0.4428  0.0512  0.2980
29381W        W44850  13.643  16.190   2.879 -0.0943  0.0193  0.0196
29382W        W44851  12.475  16.285  11.563  0.1114  0.0919 -0.0217
29383W        W44852   7.743   8.582  13.767 -0.1772 -0.2956  0.1239
29384W        W44853  17.612  18.156  12.105 -0.0307  0.1839  0.2026
29385W        W44854  18.048   3.429   1.988  0.1794 -0.3865  0.4357
29386W        W44855   5.815  16.321   3.423  0.1072 -0.1532 -0.2252
29387W        W44856   0.796  15.188   3.573  0.0395 -0.0321 -0.0791
29388W        W44857  12.142   4.281  14.374  0.2157 -0.2531 -0.0324
29389W        W44858  15.912   7.887  11.344 -0.0916 -0.1300 -0.0944
29390W        W44859   3.576  15.370  10.850  0.2215 -0.0963 -0.2296
29391W        W44860   6.976  16.857   0.213  0.4355  0.1931 -0.2097
29392W        W44861  13.164   9.927  12.310 -0.2476 -0.2079 -0.1316
29393W        W44862   5.531   1.631  15.385 -0.0829 -0.1158 -0.0611
29394W        W44863   8.228  12.608  10.104 -0.0701  0.2134 -0.0388
29395W        W44864   4.932  17.503   2.310 -0.1859  0.0419 -0.1721
29396W        W44865  16.450   8.884  12.345  0.3168  0.1216 -0.0347
29397W        W44866   6.751  10.720   2.918 -0.1228 -0.1277  0.1471
29398W        W44867   6.496   4.247   1.999 -0.1500 -0.0338 -0.0691
29399W        W44868  16.866   4.082   4.904 -0.0704 -0.0281  0.1712
29400W        W44869   4.307   0.389  14.149 -0.1610  0.0780  0.3893
29401W        W44870  11.314   7.011   2.257 -0.2025  0.4066  0.0227
29402W        W44871  10.257  14.513  14.039  0.3186 -0.1526 -0.2101
29403W        W44872   7.694   3.758  11.425 -0.0788  0.0040 -0.1879
29404W        W44873  10.115  14.545   0.413 -0.4019 -0.0911 -0.3172
29405W        W44874   9.311  17.930   2.810 -0.1817 -0.1015 -0.0296
29406W        W44875   3.710  15.472   0.097 -0.0529 -0.0954 -0.0559
29407W        W44876   4.059  12.423   4.115 -0.3377 -0.1374 -0.2411
29408W        W44877   5.127  15.056   0.938  0.1250  0.1391 -0.1352
29409W        W44878   2.880  10.017   4.319 -0.0456 -0.1193 -0.1725
29410W        W44879   2.212  11.919   2.055  0.1052  0.0153  0.0430
29411W        W44880   8.039  10.134  14.996  0.2258 -0.1891 -0.4262
29412W        W44881   7.856  10.888  15.037  0.1153 -0.2312  0.0492
29413W        W44882   7.939   2.373   4.641 -0.2867  0.1090  0.2484
29414W        W44883   2.202   2.488  14.134 -0.0248  0.5640  0.0436
29415W        W44884   5.089   6.285   1.039  0.0248 -0.1116 -0.1747
29416W        W44885  12.570  16.521   0.244 -0.2718  0.3157 -0.0381
29417W        W44886   4.212   0.932  15.533 -0.2254  0.0337  0.0644
29418W        W44887  10.110  11.316  13.588 -0.0091  0.0990  0.0158
29419W        W44888   4.383   9.058  16.103 -0.2534  0.0154 -0.3844
29420W        W44889  15.816  16.353  12.502 -0.2685 -0.0794  0.1667
29421W        W44890   8.877   0.475   4.656 -0.3590  0.2700  0.2276
29422W        W44891   3.461   9.317  15.210 -0.4373  0.0038 -0.0819
29423W        W44892  17.223   5.415   1.837  0.3428 -0.2351 -0.0252
29424W        W44893  10.093   8.601   4.575  0.0839  0.0726  0.0302
29425W        W44894   7.905   7.060   4.739  0.0632  0.2112  0.1613
29426W        W44895   3.682   5.790   1.327 -0.2910 -0.1310  0.1201
29427W        W44896  10.112   7.680   2.553 -0.0736 -0.0891 -0.0465
29428W        W44897  14.357   3.711  14.370 -0.1081  0.1537  0.0592
29429W        W44898   0.826  13.889  11.367  0.4251  0.2899 -0.1646
29430W        W44899  17.404  13.468  13.653  0.2408 -0.0062  0.1943
29431W        W44900   2.359  12.390  10.254  0.0816  0.2947 -0.1628
29432W        W44901   0.900  17.078  12.642 -0.0966  0.1212 -0.1296
29433W        W44902  11.330  11.257  15.668  0.4290 -0.0189 -0.1864
29434W        W44903  14.936  17.450   2.071  0.1073 -0.0122  0.0163
29435W        W44904   3.093   2.935   0.006 -0.0155  0.1230 -0.2281
29436W        W44905   5.652  13.257  15.223 -0.2140 -0.1691  0.1063
29437W        W44906  13.212  10.496   5.091  0.2337  0.1368 -0.2122
29438W        W44907  11.912  10.354  10.069 -0.0207 -0.2552 -0.2056
29439W        W44908   4.812   9.978   4.069 -0.2560  0.0533 -0.2853
29440W        W44909  13.191  10.351  14.458 -0.0405 -0.0162 -0.1250
29441W        W44910   5.543   7.275  14.577  0.2616 -0.2135 -0.1174
29442W        W44911  14.251   5.442   0.344  0.3364 -0.3377  0.1390
29443W        W44912   2.015  11.552   4.162  0.2003  0.1228  0.0061
29444W        W44913  12.443  15.969   0.270 -0.1826 -0.1256 -0.3590
29445W        W44914   0.029   2.421   3.420 -0.3117 -0.2100  0.1773
29446W        W44915   0.420   0.492  12.453 -0.1539  0.1556 -0.1078
29447W        W44916   3.780  11.311   0.267 -0.0013 -0.1858  0.0930
29448W        W44917  15.675   7.246   2.159  0.0223 -0.0435  0.1375
29449W        W44918  14.128  12.301   3.453 -0.0491 -0.1221 -0.0921
29450W        W44919  15.932  13.044  12.487 -0.2032 -0.1554  0.0941
29451W        W44920  14.928  12.749   3.730 -0.1138 -0.0541 -0.2658
29452W        W44921  11.578   9.492   1.973 -0.1740  0.2552 -0.0403
29453W        W44922   4.828  17.122   0.778  0.2272 -0.0009 -0.2198
29454W        W44923  17.260   5.600  14.256  0.2352  0.0300 -0.1457
29455W        W44924   4.236  10.181  14.481 -0.1661 -0.3064  0.1081
29456W        W44925  15.153   7.711   0.447  0.1401 -0.1937  0.0123
29457W        W44926  12.064  14.917   4.002  0.1118 -0.1860  0.2068
29458W        W44927  14.859   3.168  11.077  0.2292  0.1967 -0.1089
29459W        W44928  17.289   4.857  13.133  0.0820 -0.1664  0.0559
29460W        W44929  14.890  15.271   1.860 -0.0621  0.1529  0.0930
29461W        W44930   4.922   9.394   4.647  0.0845  0.3386 -0.0404
29462W        W44931   7.600  14.047  12.583 -0.3809 -0.2347  0.4816
29463W        W44932  15.035   7.240   4.108  0.2032  0.0977  0.0586
29464W        W44933   7.385   2.189  12.491 -0.1863  0.0353 -0.0590
29465W        W44934   6.663  14.372   5.347 -0.0431  0.0668  0.0220
29466W        W44935  10.820   0.684  14.145  0.0681  0.1199 -0.1211
29467W        W44936   1.684   3.920  13.699  0.1857 -0.1489  0.1422
29468W        W44937   3.612  13.826   4.699  0.0561  0.1243 -0.1337
29469W        W44938  15.018  13.207   1.580 -0.0903  0.2556  0.1910
29470W        W44939  17.713   6.935   0.477  0.3555 -0.0430  0.5652
29471W        W44940  17.540   1.622  13.566  0.0090  0.0890 -0.0621
29472W        W44941   9.582   2.695  10.631 -0.1409  0.2334  0.2489
29473W        W44942  10.175  18.153  11.860 -0.1694 -0.0405 -0.0053
29474W        W44943   8.401   7.108  14.514 -0.4029 -0.2466  0.0184
29475W        W44944  18.211  18.024   1.238 -0.0284 -0.0200  0.0476
29476W        W44945   7.894   6.202   3.792 -0.0508  0.1104  0.1571
29477W        W44946   5.085   4.574   5.333 -0.2739 -0.0011 -0.1733
29478W        W44947  16.395  16.642   5.051  0.0955 -0.0269  0.0581
29479W        W44948  14.823  12.128  14.283  0.2437 -0.1464  0.0553
29480W        W44949  10.362  11.841  10.502 -0.0062  0.0140  0.0587
29481W        W44950  11.877  15.018  11.985  0.0772 -0.0259 -0.0530
29482W        W44951  11.678   0.499   4.614 -0.0382 -0.1883  0.0056
29483W        W44952  17.679  12.631   4.354 -0.0120 -0.0945 -0.2725
29484W        W44953  11.190  16.794   1.354  0.1027  0.0145 -0.0105
29485W        W44954   0.801  15.080  12.436  0.1575  0.0693 -0.3391
29486W        W44955   8.460   1.500   5.714 -0.1163 -0.2776  0.0456
29487W        W44956  14.180  15.261  15.405  0.1456 -0.0430 -0.2083
29488W        W44957   5.701   6.329  14.502  0.0270  0.2481  0.1303
29489W        W44958  17.947  14.053  14.707  0.2502  0.4061 -0.0844
29490W        W44959  15.695   2.622  12.761 -0.0057 -0.0755 -0.1922
29491W        W44960   7.494  15.292   1.701  0.1375  0.0152 -0.0458
29492W        W44961  10.813  17.412  12.088  0.4568  0.1212 -0.0891
29493W        W44962  13.104   0.266  14.370  0.1317  0.0642  0.0305
29494W        W44963   3.698  11.082   5.185  0.1197  0.2783 -0.2623
29495W        W44964   2.988   3.775  12.326 -0.1929 -0.1993  0.2304
29496W        W44965   8.779   5.294   5.938 -0.5445  0.1536 -0.1263
29497W        W44966   9.850  12.378   2.053  0.1744 -0.2491  0.1257
29498W        W44967   0.298  12.024  13.051 -0.1953  0.1604 -0.0673
29499W        W44968   4.755   5.967   0.693  0.0766  0.1665 -0.0050
29500W        W44969   2.207   7.917   2.576 -0.1024  0.1823  0.2057
29501W        W44970  18.266   5.388  12.305  0.0401  0.0636  0.2177
29502W        W44971   2.454  17.860  14.381 -0.0637 -0.0936 -0.0365
29503W        W44972  15.409   7.370  15.209  0.2592 -0.0049 -0.1108
29504W        W44973   5.503   0.539  11.412  0.0938 -0.2303  0.3834
29505W        W44974  16.793   7.905  10.943 -0.0457  0.1139 -0.3548
29506W        W44975  11.725  14.359   3.176  0.0457  0.1852 -0.0151
29507W        W44976  14.573   3.456  11.813  0.1039  0.1906 -0.2428
29508W        W44977  14.798   2.571  12.948  0.2139  0.1141  0.1832
29509W        W44978  11.085  18.048  11.876  0.0762 -0.0092  0.0798
29510W        W44979  11.001  11.885   0.782 -0.0352 -0.2157  0.0049
29511W        W44980  14.252   1.739   5.655  0.1594  0.1052 -0.2675
29512W        W44981   3.688  12.035   0.389  0.0904  0.0854  0.4060
29513W        W44982   2.308  13.134   4.342  0.1426 -0.2370  0.1166
29514W        W44983   9.649  10.333  12.868 -0.0277  0.2837 -0.2509
29515W        W44984   5.078  13.504  15.238  0.3935 -0.3963  0.0304
29516W        W44985   1.851  17.671   1.625  0.1647 -0.0063  0.0942
29517W        W44986  10.726  15.587   1.327  0.0023 -0.1829 -0.3405
29518W        W44987  11.105  13.358   1.068 -0.1985 -0.4325 -0.0547
29519W        W44988  10.315  11.959  15.457  0.1447 -0.2119  0.3597
29520W        W44989  14.722   4.961  13.031  0.0978  0.0924 -0.0154
29521W        W44990   6.495   3.416  14.069  0.0314  0.2167  0.1231
29522W        W44991   5.136   7.645   1.976  0.0034  0.2478  0.1921
29523W        W44992  14.128  13.624   4.055 -0.2144 -0.1283  0.0929
29524W        W44993  16.544  12.853   3.077 -0.2954  0.0191  0.1388
29525W        W44994   4.148   9.408   0.336 -0.2265 -0.0589  0.1251
29526W        W44995  16.859   5.787   0.243 -0.2230  0.1635  0.2482
29527W        W44996   8.243   6.242   1.276  0.3440 -0.0789 -0.0449
29528W        W44997   9.688  15.987   4.814  0.2371  0.0882 -0.1676
29529W        W44998  10.234  14.905  15.637  0.1388  0.0539  0.1232
29530W        W44999  11.731   2.881  15.052 -0.0232  0.1001 -0.1381
29531W        W45000   6.621   4.321  13.615  0.0509 -0.3313 -0.0231
29532W        W45001   1.239  11.887  14.205  0.1466  0.0058  0.1850
29533W        W45002  10.704   7.234   3.958 -0.0991  0.1157  0.2235
29534W        W45003   9.620  14.329   4.983 -0.0420 -0.0762  0.1510
29535W        W45004   7.160   5.584   3.079 -0.0659  0.1365  0.1410
29536W        W45005  10.596   5.871   4.930  0.2930  0.1423  0.1154
29537W        W45006  14.981   2.064   4.681  0.0302 -0.1861 -0.0833
29538W        W45007   1.083   1.524   5.828  0.2051  0.2316  0.1656
29539W        W45008   1.618   5.688   0.422  0.1532  0.0597 -0.0403
29540W        W45009   8.302  14.339   0.185  0.2956 -0.1445 -0.0228
29541W        W45010   9.194  17.427   2.907  0.0512  0.4126 -0.0669
29542W        W45011  13.177  15.660   1.948  0.0076 -0.2658  0.0931
29543W        W45012   3.924  14.306   1.943  0.1913  0.2392 -0.0835
29544W        W45013   0.087  17.273   0.664  0.0685  0.2251 -0.0136
29545W        W45014   0.790  17.559   1.001 -0.1760 -0.1944  0.4923
29546W        W45015  12.283  10.317   0.926 -0.0676  0.0909  0.0774
29547W        W45016   9.255  14.264   0.025  0.1463 -0.1283 -0.3792
29548W        W45017  16.827   5.599   4.778  0.0366  0.0407 -0.0214
29549W        W45018   0.197   4.690   1.440  0.1852 -0.2471  0.0798
29550W        W45019  11.671   7.032   4.112  0.3710 -0.0753  0.0208
29551W        W45020   1.482  16.534   4.953 -0.5544 -0.0121  0.1237
29552W        W45021   4.529   3.353   0.750  0.0806 -0.1046  0.0581
29553W        W45022  11.580   0.242  12.609  0.3387 -0.0441  0.1562
29554W        W45023  16.078   3.826  13.513  0.2633 -0.1801  0.0262
29555W        W45024  10.456   5.878   2.648 -0.1524  0.1480 -0.2849
29556W        W45025   7.385   5.090  14.305 -0.0588 -0.0694 -0.1110
29557W        W45026   1.439   2.907  12.051 -0.1856 -0.3440 -0.1820
29558W        W45027   3.266   3.168  12.968 -0.0214  0.0408  0.0156
29559W        W45028   6.736   0.401  12.834 -0.0663 -0.3764  0.1451
29560W        W45029   1.892   4.494   1.978  0.0527  0.2611  0.1191
29561W        W45030   4.294  16.814   0.043 -0.1824 -0.1891  0.1475
29562W        W45031  12.601   0.415   6.057 -0.1760 -0.0262  0.1145
29563W        W45032  10.688  11.347   4.301 -0.1949 -0.2388  0.1884
29564W        W45033   5.852   0.495  15.425 -0.1493  0.3657 -0.1711
29565W        W45034  15.187  15.082   4.450  0.1706  0.1066  0.0031
29566W        W45035   7.033  15.153   3.397  0.1966  0.2139 -0.1233
29567W        W45036   2.039  10.716  11.464 -0.0944  0.0834 -0.1011
29568W        W45037  16.132  18.241   1.731  0.1310 -0.0335  0.0196
29569W        W45038  11.781   2.072  15.748  0.0107  0.2391 -0.1279
29570W        W45039  14.857   0.823   4.586 -0.1600 -0.1020  0.3707
29571W        W45040  12.138   9.716  15.687  0.5710  0.2558  0.0008
29572W        W45041   6.818   5.035  13.766 -0.1790  0.1057  0.1903
29573W        W45042  16.442  10.274   2.382 -0.0590 -0.1683  0.0005
29574W        W45043   1.887  13.462   0.482 -0.1130 -0.0010 -0.0835
29575W        W45044   0.943   5.503  14.804  0.1048  0.3420 -0.0300
29576W        W45045  11.029  13.385   3.741 -0.0490 -0.0680 -0.1795
29577W        W45046   7.883  10.257  12.205  0.1794 -0.1303  0.3103
29578W        W45047   4.634  10.362   3.367 -0.1481  0.3517  0.0953
29579W        W45048   3.509  14.541  12.854  0.2938  0.0396  0.0190
29580W        W45049   4.098  17.336   3.958 -0.0423 -0.0153  0.2798
29581W        W45050   9.820   7.986  13.765  0.0870 -0.3827  0.1205
29582W        W45051  11.402  17.229  15.943 -0.0619  0.0546  0.0661
29583W        W45052  15.247   6.135  15.152  0.0054  0.1863 -0.0839
29584W        W45053  10.740  12.788   1.780 -0.0162  0.1984  0.0436
29585W        W45054   9.578  13.110  13.579  0.4656  0.0596  0.3840
29586W        W45055   1.799  12.421  11.775  0.1260  0.3063  0.0744
29587W        W45056   1.201   0.416  14.712  0.1488  0.3284  0.0337
29588W        W45057  12.335   2.219  14.966 -0.0556 -0.0594 -0.0778
29589W        W45058   7.867  14.394   3.126  0.1677 -0.0506  0.0623
29590W        W45059  14.183   2.211  12.195 -0.2034 -0.0122 -0.1419
29591W        W45060  18.123   5.455  12.796  0.0071 -0.1120  0.2409
29592W        W45061   8.208  16.328  13.472 -0.2578 -0.1418  0.0227
29593W        W45062  16.331  12.139  11.544 -0.0732 -0.0079 -0.0028
29594W        W45063   7.472  17.019  11.130 -0.0351  0.1230  0.1684
29595W        W45064  11.442   8.448  13.763  0.0457 -0.2618 -0.0230
29596W        W45065   1.498  17.077  11.953  0.1991 -0.4217 -0.0645
29597W        W45066   6.738   9.823   2.203 -0.0069  0.0358 -0.0978
29598W        W45067   3.321   5.492  16.028 -0.0249 -0.0928 -0.1653
29599W        W45068  15.044  12.100  12.050 -0.0341  0.0447 -0.0609
29600W        W45069  10.552  11.867   4.577 -0.0626 -0.0234 -0.2055
29601W        W45070   9.695  17.252   5.885 -0.0060  0.1142  0.0607
29602W        W45071   0.176   5.584  15.453 -0.1266 -0.0752 -0.0138
29603W        W45072   0.521  12.881   1.793 -0.1037 -0.0556 -0.0691
29604W        W45073  14.854  18.047   1.651  0.0256  0.0708  0.1970
29605W        W45074   0.471   2.609  10.865  0.0958 -0.2014 -0.0119
29606W        W45075  11.968  15.798  11.267  0.0038  0.1190  0.1577
29607W        W45076   0.464   8.590  13.964  0.3169 -0.0681 -0.0162
29608W        W45077  10.070  10.723   1.870  0.1599 -0.1530 -0.2351
29609W        W45078   4.145  12.194   0.154  0.1154  0.1392 -0.1709
29610W        W45079  12.301   4.920  14.454 -0.1052 -0.1031 -0.2042
29611W        W45080  10.153   6.508   0.111  0.0452  0.0329  0.1702
29612W        W45081   4.694   3.529   1.626 -0.1447 -0.3302  0.1151
29613W        W45082  10.425   7.296  10.259  0.1771  0.3376 -0.1141
29614W        W45083  17.720  11.171   0.317 -0.0568 -0.0674 -0.0942
29615W        W45084   6.197   7.559  13.040 -0.1509  0.1011 -0.0772
29616W        W45085   9.504   2.821   3.150  0.1135  0.1126  0.2370
29617W        W45086  11.451   9.759   0.108  0.2363  0.3603  0.2482
29618W        W45087  12.491  15.873   3.657 -0.2672  0.0653 -0.1942
29619W        W45088  12.205   3.806  11.092  0.2589  0.5503 -0.0435
29620W        W45089   8.227  17.114   0.919 -0.1176 -0.1113  0.2034
29621W        W45090  16.906   7.141  12.049 -0.0090 -0.0576 -0.0427
29622W        W45091  14.312   9.659   2.052  0.1938 -0.0886 -0.2287
29623W        W45092  15.267   8.692  13.738  0.2195 -0.1553 -0.3484
29624W        W45093   8.853  10.298  11.397  0.0325 -0.1531 -0.1877
29625W        W45094  16.350   4.425   2.031  0.0374 -0.2342  0.3146
29626W        W45095   0.799  12.898   4.263 -0.2701 -0.1644  0.1041
29627W        W45096   5.673  15.274  14.351  0.4090  0.3374 -0.0795
29628W        W45097   2.025   3.987  12.411  0.1921 -0.0324 -0.0174
29629W        W45098   5.178   5.660   0.981  0.1116 -0.1074  0.0731
29630W        W45099   6.500   6.408   3.894 -0.2001  0.1378 -0.0746
29631W        W45100  16.077  12.293   2.483 -0.0120 -0.0228 -0.0319
29632W        W45101  14.444   1.110   1.853  0.3100  0.0689  0.1566
29633W        W45102   7.213  10.849  13.691 -0.0116  0.1466  0.0643
29634W        W45103  17.023  15.141   4.362  0.0208 -0.3875 -0.1944
29635W        W45104   0.895  16.554   0.625 -0.1000  0.0023 -0.0543
29636W        W45105   2.801   8.195   3.908 -0.1187 -0.0189 -0.3404
29637W        W45106  14.739  11.808  15.819  0.1543  0.0876 -0.0782
29638W        W45107   9.217   6.496   2.211  0.1851  0.0778 -0.1184
29639W        W45108   8.711   5.235   3.626 -0.1304 -0.0459  0.1293
29640W        W45109   6.107   3.398   3.052 -0.1972  0.0139 -0.0443
29641W        W45110  16.848  10.400   2.026  0.3164  0.0837  0.0752
29642W        W45111  17.765  10.642  14.494  0.3952  0.0793 -0.0259
29643W        W45112  13.148   3.922  11.120 -0.1130  0.2598 -0.1610
29644W        W45113   3.460   2.917   2.605 -0.0328 -0.0785  0.3387
29645W        W45114   5.058   0.913   1.595 -0.0490 -0.1393  0.0191
29646W        W45115   9.816  15.645  13.529  0.1584  0.2400 -0.0376
29647W        W45116   9.541  17.173  14.542  0.2480 -0.0701  0.0476
29648W        W45117  15.203   2.437   4.311 -0.1263 -0.1103 -0.1561
29649W        W45118   1.919   3.568   0.545 -0.1589  0.2273 -0.1501
29650W        W45119  15.845  16.485   0.091  0.2033  0.1975 -0.0934
29651W        W45120  16.143  17.161  15.122 -0.1653  0.1956  0.2538
29652W        W45121   8.098   9.301  13.505 -0.0598 -0.0926  0.3445
29653W        W45122  17.032  16.948  13.301 -0.1578  0.0941  0.0935
29654W        W45123   3.889   5.316   4.614  0.1974 -0.1512  0.3120
29655W        W45124  15.768   5.264  10.370  0.1272 -0.2476 -0.0795
29656W        W45125   0.415  13.042  15.515 -0.2206 -0.3639 -0.3564
29657W        W45126   1.399  12.301  11.162  0.2920 -0.3200  0.0834
29658W        W45127   7.521   8.441  13.289  0.0071  0.2012  0.0143
29659W        W45128   9.728   2.744   4.948 -0.1162 -0.1535 -0.0189
29660W        W45129   3.786   8.265   3.754 -0.0346 -0.0980 -0.1894
29661W        W45130   1.989   0.659  15.065 -0.0148 -0.1256 -0.0933
29662W        W45131   1.026  14.317   4.828 -0.1633  0.0358  0.1285
29663W        W45132  10.362  12.487  13.296  0.0356  0.2864 -0.1354
29664W        W45133   0.601  10.688  11.869 -0.1054 -0.0519 -0.0785
29665W        W45134   7.427   6.804   0.278  0.0588  0.0268 -0.0851
29666W        W45135   2.898   8.900   2.163 -0.6511 -0.0983  0.0593
29667W        W45136   5.227   4.653  11.440 -0.2288  0.2874  0.1178
29668W        W45137   3.085  14.236  13.872 -0.2345  0.1431  0.2809
29669W        W45138  11.694   4.516   2.333  0.1373  0.1746 -0.2643
29670W        W45139  12.622   5.497  15.578 -0.4035 -0.3399 -0.2570
29671W        W45140  14.941  13.913  10.504 -0.2160 -0.1578  0.2479
29672W        W45141  13.744   3.115  12.202  0.0297 -0.2326 -0.2430
29673W        W45142   4.682  13.550  12.527 -0.1572 -0.1641  0.0413
29674W        W45143  16.489  15.892  10.952 -0.1990 -0.0291 -0.1376
29675W        W45144   8.266   7.562   3.023  0.0292 -0.0926  0.1198
29676W        W45145   7.014   8.403  13.290 -0.0813 -0.0451  0.3089
29677W        W45146   0.479   9.101  12.364  0.0678 -0.0158  0.1807
29678W        W45147  14.679   2.649  10.940 -0.1321 -0.0139 -0.0647
29679W        W45148  15.693   0.858   2.427 -0.1292  0.2876  0.0333
29680W        W45149  12.617  10.393  15.645 -0.0185  0.3363 -0.0531
29681W        W45150  16.877   0.080   5.551 -0.2714 -0.0454  0.1559
29682W        W45151   6.806  11.464  15.208 -0.0993 -0.1027  0.2205
29683W        W45152  13.632   1.991  14.582  0.0887 -0.0306  0.1111
29684W        W45153  17.585   7.910   2.703  0.3631  0.0028  0.0555
29685W        W45154   1.473  16.563  12.047  0.1636  0.0550  0.2001
29686W        W45155   0.827  14.314   5.415 -0.1091  0.0803 -0.1893
29687W        W45156   8.907  11.990  11.763  0.0797 -0.0424 -0.4533
29688W        W45157  18.045   7.120   4.815 -0.2072  0.1410 -0.0361
29689W        W45158   4.865   6.080   1.504  0.2879  0.1689 -0.0034
29690W        W45159  13.659   1.582  14.254 -0.1930  0.0460 -0.1109
29691W        W45160  13.769  13.105  15.157 -0.0890  0.0317  0.0576
29692W        W45161   0.755  16.425   2.940 -0.2988  0.0119 -0.0402
29693W        W45162   7.508  16.486  13.044 -0.1670 -0.1236  0.1407
29694W        W45163  14.584  11.080   0.089  0.0653 -0.1613  0.3118
29695W        W45164   2.376  16.742  13.748  0.3323 -0.2451  0.3675
29696W        W45165  12.404  14.046  13.605  0.2708 -0.1721 -0.0447
29697W        W45166   3.190   8.468   5.255 -0.1513 -0.1540 -0.1065
29698W        W45167   1.779  11.510   0.464 -0.0532  0.1288 -0.1036
29699W        W45168  12.800  16.020  16.007 -0.0650  0.0305  0.1034
29700W        W45169  17.683   5.582  11.565  0.1578  0.1000  0.0491
29701W        W45170  15.089  15.332   3.480 -0.1901 -0.1334  0.4795
29702W        W45171  13.945   2.188   3.357  0.1225  0.3250  0.2200
29703W        W45172  11.281  15.454   4.199 -0.0476  0.1499  0.0994
29704W        W45173   1.596  10.927   2.466 -0.1723 -0.2513  0.1818
29705W        W45174   4.190   7.670  15.645 -0.1895  0.0614  0.1007
29706W        W45175  16.777   5.062   4.773 -0.0956  0.0702 -0.0779
29707W        W45176  16.788  12.829  12.251  0.0542 -0.3446 -0.0961
29708W        W45177   0.637   8.266   0.131 -0.1372 -0.1247 -0.1492
29709W        W45178  13.327   0.710  15.684  0.1324 -0.0695  0.1777
29710W        W45179   9.190   2.227   4.742  0.1239  0.3646  0.0387
29711W        W45180   8.800   4.118   5.055 -0.1402 -0.2820  0.1882
29712W        W45181   4.018   8.263   2.894  0.0074 -0.0928  0.3412
29713W        W45182  13.400   3.707  12.165  0.0177  0.2178 -0.2502
29714W        W45183   1.778   5.368   0.778 -0.0825 -0.1495  0.1227
29715W        W45184  11.253   5.912  13.081 -0.0429  0.2157 -0.2966
29716W        W45185   5.123  10.053   3.613 -0.0603  0.1434  0.0678
29717W        W45186  18.257  16.544  11.104 -0.1010  0.1900  0.1571
29718W        W45187   6.437   8.469   0.036  0.0030 -0.0204  0.0678
29719W        W45188  12.840  17.617   1.148 -0.1427 -0.1963  0.0339
29720W        W45189  17.808   5.477  15.852  0.1998  0.0732  0.0937
29721W        W45190  14.488  16.476  12.700  0.2548 -0.0408  0.0228
29722W        W45191   7.603  18.099  15.187 -0.1655  0.2060 -0.1098
29723W        W45192   2.166  16.802   4.609 -0.2641 -0.0956 -0.0536
29724W        W45193  15.201   9.317   3.975  0.0439 -0.0595 -0.4507
29725W        W45194   8.155   6.202  14.280 -0.0345 -0.0259 -0.0154
29726W        W45195   2.461   2.686  13.037 -0.0697  0.0158  0.0829
29727W        W45196   6.200  17.916  15.701 -0.2399  0.0582 -0.2147
29728W        W45197   4.918   3.610   3.841  0.2071 -0.0533 -0.0977
29729W        W45198  14.834  15.793  14.077  0.1608  0.2753  0.1183
29730W        W45199  10.257   1.840  10.400 -0.1248 -0.0471 -0.0305
29731W        W45200  11.223  11.089  14.981  0.0674  0.1399  0.1521
29732W        W45201  17.413  15.791   2.463 -0.0763  0.2050  0.1291
29733W        W45202   2.598   7.198  13.006 -0.1060 -0.0060 -0.0737
29734W        W45203  11.459  13.776  13.429 -0.0269 -0.1952 -0.3771
29735W        W45204   1.516   4.212   1.786 -0.0744 -0.2728 -0.0530
29736W        W45205   6.615  15.865   3.127 -0.2631 -0.5428  0.0585
29737W        W45206  10.005   9.451   4.294 -0.1371  0.2426  0.1054
29738W        W45207   1.003   8.154   2.446 -0.2341  0.1089  0.1155
29739W        W45208   1.093   3.370   0.860  0.0953 -0.0199  0.2232
29740W        W45209  14.153   7.326   3.163 -0.0137 -0.0802 -0.0187
29741W        W45210   5.029  15.350  13.095 -0.0668 -0.1916 -0.0749
29742W        W45211  18.081   1.679  12.634  0.1911 -0.0759 -0.0811
29743W        W45212  10.893   2.022   1.040 -0.1860 -0.0116  0.0817
29744W        W45213   5.218  17.069   2.153  0.2861  0.3538  0.1637
29745W        W45214  16.544   1.786  11.441 -0.1819  0.0371  0.0603
29746W        W45215   5.444   2.215  11.278 -0.2502 -0.0184  0.5208
29747W        W45216  15.040  17.758   3.006 -0.1631  0.1822 -0.0396
29748W        W45217  17.390  17.216   6.035  0.1122  0.0681  0.0271
29749W        W45218  10.115  13.907  11.931 -0.4311 -0.0832 -0.0320
29750W        W45219   3.065  13.283  12.217 -0.0734 -0.2244 -0.2482
29751W        W45220  16.431  17.491  13.709  0.2435 -0.1746 -0.0002
29752W        W45221  12.487   2.849  11.543 -0.1924  0.1568  0.1570
29753W        W45222  15.795   5.068  14.356  0.1501  0.1002 -0.2558
29754W        W45223  13.853   1.316  12.157  0.3644  0.0766 -0.2328
29755W        W45224   8.612   6.639   0.408  0.1682 -0.1873 -0.0129
29756W        W45225   8.352  17.201  13.678 -0.2436 -0.1359  0.1086
29757W        W45226  15.653   0.573   3.970  0.0359  0.2040  0.0062
29758W        W45227   9.665  16.747  15.422  0.0269 -0.0703 -0.0015
29759W        W45228   5.700   7.787  10.665  0.1023 -0.1633 -0.0016
29760W        W45229   9.764   7.693   3.989  0.2684 -0.0394 -0.0741
29761W        W45230   8.716  11.499  13.451 -0.0546  0.2986  0.2336
29762W        W45231  13.901  10.884  12.357 -0.0858  0.2610 -0.0612
29763W        W45232   0.017   7.294  11.748 -0.1807  0.0798 -0.1267
29764W        W45233  17.460   9.050  10.049  0.0314  0.2434  0.0039
29765W        W45234  18.099   5.961   2.937  0.0524 -0.1619 -0.0148
29766W        W45235  11.223  12.335   0.752 -0.0884 -0.2024 -0.0077
29767W        W45236   8.458   8.953   2.131  0.3588  0.5018  0.1377
29768W        W45237  17.873  15.217   4.407 -0.1496  0.0340  0.1206
29769W        W45238  15.314  13.652   3.231  0.2558 -0.1356 -0.0639
29770W        W45239   5.151   6.016   0.191  0.0960  0.5502  0.3824
29771W        W45240  11.775   8.496  12.488 -0.1713 -0.0659  0.1036
29772W        W45241  13.520   3.151  12.892 -0.3428  0.1440  0.0953
29773W        W45242   5.678  15.896  10.188 -0.0433  0.0323 -0.1398
29774W        W45243   6.720  15.514   3.538  0.2903 -0.2926  0.1724
29775W        W45244  17.086  13.658   3.853 -0.0356  0.0585  0.1503
29776W        W45245   8.731  11.961  12.524 -0.0224  0.1241  0.0025
29777W        W45246  10.076   5.810  15.430 -0.0943  0.2630 -0.0163
29778W        W45247   7.327   6.230  10.836 -0.0532  0.1867  0.0243
29779W        W45248   3.978  15.706  12.674 -0.0784  0.1160  0.1512
29780W        W45249   9.243  12.314  14.307  0.0979  0.0528  0.1982
29781W        W45250  15.068   9.410  15.850  0.2786 -0.4429  0.0733
29782W        W45251   8.398  15.938   5.381  0.0296 -0.3809  0.0314
29783W        W45252   2.199  13.362   0.891  0.4192  0.4195 -0.0448
29784W        W45253   3.035  14.271  12.051  0.0425  0.2775  0.0318
29785W        W45254  11.633   1.422   2.898 -0.0534 -0.0446  0.0024
29786W        W45255  17.071  17.598  14.030 -0.1191 -0.0651 -0.0352
29787W        W45256   3.373  12.505  13.388 -0.0649 -0.0366  0.1625
29788W        W45257   9.681   2.377  14.640  0.0807  0.1705 -0.2584
29789W        W45258   4.317  16.538   4.920  0.2273 -0.3212  0.2830
29790W        W45259  13.060  16.306   5.313 -0.0763  0.0066 -0.1444
29791W        W45260   9.728   9.723  14.299 -0.2150 -0.0017 -0.0056
29792W        W45261  16.269  12.023  15.431  0.0838 -0.2304  0.4667
29793W        W45262   9.460  15.217  11.895  0.0911  0.1844 -0.1605
29794W        W45263  10.645   6.503   2.007  0.1574  0.1106  0.0592
29795W        W45264   8.787  13.824  14.056 -0.2019 -0.0013 -0.0070
29796W        W45265  17.751   6.616   1.656  0.1116  0.0026  0.0703
29797W        W45266   8.993  18.077  13.299 -0.0212  0.0641 -0.3097
29798W        W45267   2.434   8.768  13.894  0.1086  0.0995  0.2385
29799W        W45268  15.164  16.359  13.940 -0.3767  0.3613  0.2452
29800W        W45269   5.152  16.401  10.023  0.1210 -0.1121  0.0803
29801W        W45270   6.046  17.099  12.008  0.0435 -0.1120 -0.1739
29802W        W45271   6.708  11.153   5.040  0.2046 -0.1604  0.0249
29803W        W45272   8.055  12.841  15.602  0.2533 -0.0612  0.0344
29804W        W45273   8.665  14.493  13.630  0.0396  0.1486 -0.2596
29805W        W45274  14.942   9.962   6.043  0.0142 -0.1125  0.0061
29806W        W45275   7.622   4.279  14.234 -0.2321 -0.0676 -0.2296
29807W        W45276   4.523   2.455  10.916 -0.2220 -0.1325  0.1013
29808W        W45277  15.753  11.062  14.415  0.0303  0.2705 -0.0805
29809W        W45278  11.539   1.071  14.311  0.1941  0.0687 -0.1128
29810W        W45279   7.044  17.704   0.966 -0.1598 -0.4106 -0.3647
29811W        W45280  15.817   7.114  10.946 -0.1302 -0.0279 -0.0864
29812W        W45281   3.226   1.126   4.270 -0.1349  0.0442 -0.0339
29813W        W45282   3.390   1.304   4.727 -0.1039  0.0322  0.0321
29814W        W45283  10.865  15.936  15.881 -0.2610  0.0206  0.0322
29815W        W45284   3.010   4.520   4.958 -0.4901  0.3146 -0.0240
29816W        W45285  16.078  15.620   1.358  0.0753 -0.0299  0.0244
29817W        W45286   6.333  13.523  13.168  0.2441 -0.1562 -0.1011
29818W        W45287   4.803   2.125  10.597 -0.0599  0.2690 -0.2429
29819W        W45288   2.718   4.866  11.494  0.1243  0.3515 -0.0432
29820W        W45289  15.758   7.049   4.639 -0.0454  0.1291  0.1522
29821W        W45290  18.127  10.386  13.630  0.0395  0.0155 -0.1527
29822W        W45291   1.134  13.839   4.668  0.2201 -0.0841  0.1557
29823W        W45292  13.856  12.853  11.576  0.0020 -0.0153  0.1492
29824W        W45293  12.980  16.116   4.807  0.1302 -0.1075  0.4677
29825W        W45294  12.837  15.935  11.632 -0.2459 -0.1861  0.2767
29826W        W45295   6.086   9.897   4.524  0.1159 -0.1200 -0.1059
29827W        W45296   5.349   4.945   2.390 -0.1481 -0.0097  0.0563
29828W        W45297   8.285  15.253   1.474 -0.2206  0.0783  0.0436
29829W        W45298  15.577   0.720  13.135 -0.0135 -0.2138 -0.2730
29830W        W45299   8.472  11.051   3.730  0.1380 -0.4149 -0.2193
29831W        W45300  15.571  10.788   4.109 -0.0373  0.0717  0.0728
29832W        W45301  14.405   3.143  13.479 -0.0597 -0.1410  0.5025
29833W        W45302  13.246   1.616  14.639  0.1586  0.1252 -0.0885
29834W        W45303   1.408  16.466   1.696  0.0580 -0.3143  0.2573
29835W        W45304   8.987   0.263  14.055  0.2424 -0.1520  0.1104
29836W        W45305   9.277  16.268  12.654  0.1264 -0.0390  0.2881
29837W        W45306   8.491  12.196  14.245  0.0651  0.0452  0.2189
29838W        W45307  14.947   5.095  12.183 -0.4096  0.1694  0.0018
29839W        W45308   8.944   2.516   0.489 -0.0916 -0.3936 -0.3750
29840W        W45309   6.837  16.958   2.394 -0.1918 -0.0002 -0.0017
29841W        W45310  10.700  14.188  12.061 -0.0639  0.2333 -0.4235
29842W        W45311   3.070  15.091   5.111 -0.2291 -0.4850 -0.0164
29843W        W45312  17.875   9.672  15.824 -0.0982 -0.0761 -0.0863
29844W        W45313  15.617   2.875   1.757  0.0198 -0.1404  0.0711
29845W        W45314  11.833   2.725   2.517 -0.3622  0.1845 -0.1469
29846W        W45315  17.485   8.261  15.212 -0.0627  0.0698 -0.2664
29847W        W45316  15.991   1.906   2.123  0.1404 -0.0641  0.0307
29848W        W45317   6.653   3.038  15.884 -0.2038  0.0167  0.1042
29849W        W45318  13.415   6.651   1.127 -0.3043  0.1127  0.2300
29850W        W45319  15.040   9.995   1.271  0.0684  0.2003  0.2269
29851W        W45320  11.698   6.279   0.117 -0.0267  0.1198 -0.1466
29852W        W45321  13.930   8.894   1.211 -0.0229  0.0206  0.0706
29853W        W45322  15.137   0.115   0.341  0.0418 -0.0591  0.0176
29854W        W45323   5.409   3.352   5.553  0.1437  0.1153 -0.0709
29855W        W45324  13.035  13.555   5.847 -0.0230  0.0027 -0.1703
29856W        W45325  14.191  14.134   3.291  0.1709  0.0277  0.1207
29857W        W45326   9.953   4.693   2.753  0.2196  0.4614  0.0709
29858W        W45327  17.110  11.326   5.617 -0.0454 -0.0714  0.1364
29859W        W45328   5.840   1.493  13.073  0.0370  0.0278 -0.4411
29860W        W45329  11.324   1.271   5.985  0.2597  0.2237 -0.1673
29861W        W45330  17.210   6.322  15.791 -0.1433  0.2641  0.2043
29862W        W45331   3.118  12.195  12.397  0.2287  0.1768  0.0489
29863W        W45332   1.572   4.272  12.531 -0.0134 -0.1123  0.1479
29864W        W45333   2.552   1.699  15.218 -0.1496 -0.0278 -0.0937
29865W        W45334   9.971   2.662  13.254  0.0751  0.2161 -0.0654
29866W        W45335  10.851   5.433   0.812  0.0929  0.0892  0.0891
29867W        W45336   9.680   8.982   5.744  0.2492 -0.1242 -0.0984
29868W        W45337  10.371   4.862  15.146  0.0106  0.1428 -0.0362
29869W        W45338  15.663   7.714  14.856  0.1357 -0.2226  0.2251
29870W        W45339  14.112   7.343  13.090 -0.4960 -0.6440  0.2009
29871W        W45340   6.595   1.985  15.338  0.0321  0.3224 -0.3203
29872W        W45341  14.148  13.806  11.121  0.1059  0.1397  0.0845
29873W        W45342   4.243  13.948  13.950  0.0970 -0.0267 -0.3278
29874W        W45343   6.644  17.240  10.235 -0.0261 -0.0936  0.0642
29875W        W45344   9.150  13.423  11.388  0.0011  0.0679 -0.0682
29876W        W45345  11.137   9.966  15.818 -0.0287  0.1908  0.0244
29877W        W45346  13.686  13.845  14.673  0.1378 -0.1664  0.0656
29878W        W45347  16.124   3.823   0.145  0.1868  0.1243  0.1928
29879W        W45348  18.042  10.188  12.193 -0.0372  0.0421  0.1966
29880W        W45349  13.038  15.879   4.354  0.1694  0.3527  0.0035
29881W        W45350  17.768   0.390   0.285 -0.0149 -0.1014 -0.1150
29882W        W45351  15.657   8.154  10.945 -0.1410  0.1325 -0.4048
29883W        W45352  16.428  16.200  11.357 -0.0877  0.3331  0.2581
29884W        W45353   7.357   1.946   4.501  0.0653 -0.3019  0.1234
29885W        W45354   9.423   2.653   4.579 -0.0719  0.1439  0.0929
29886W        W45355  15.189  10.117   3.517  0.2168 -0.1613  0.1086
29887W        W45356  12.962  12.255  10.679  0.1610 -0.0616  0.0514
29888W        W45357   5.516  16.210   4.298 -0.2925 -0.0711  0.2603
29889W        W45358   5.789  12.008   0.752 -0.1974  0.4145  0.1600
29890W        W45359  15.606   3.146  10.964  0.1543 -0.0321  0.1486
29891W        W45360  17.228  13.923   0.953  0.1345  0.0755 -0.3074
29892W        W45361  11.259   5.182   4.669 -0.2841 -0.0727 -0.0455
29893W        W45362   3.376  12.950   4.715 -0.1144  0.1445 -0.5560
29894W        W45363   7.356   5.718  15.538 -0.0713  0.0066  0.1425
29895W        W45364   7.266  10.462  14.730  0.0315 -0.0556  0.4447
29896W        W45365  16.441  16.148   2.015  0.2400  0.1031 -0.0066
29897W        W45366   2.403   5.533   3.066 -0.0065  0.0988 -0.0749
29898W        W45367  11.240   7.562   0.149  0.1457  0.0490  0.1290
29899W        W45368  14.158  12.556  15.205  0.0125 -0.0946  0.0529
29900W        W45369  13.813   0.338  13.366  0.1595 -0.0041 -0.1914
29901W        W45370  15.542  12.823   2.966  0.4380  0.0789 -0.2140
29902W        W45371  11.187  10.431  14.483  0.2478  0.0261 -0.1118
29903W        W45372   0.329  11.683   3.937 -0.3490 -0.1329 -0.2123
29904W        W45373  10.727   8.720  10.616  0.0404  0.1682  0.2031
29905W        W45374  11.362   5.087  10.795  0.1179 -0.0673  0.1630
29906W        W45375   4.503   2.946  15.443  0.0012 -0.0445  0.2263
29907W        W45376   3.970   7.913   1.228 -0.4278 -0.2238 -0.3256
29908W        W45377   4.918   3.726  11.246 -0.1251  0.1119  0.0955
29909W        W45378  11.080  13.856   5.999 -0.0157  0.0471 -0.1077
29910W        W45379  12.297   9.370  14.556 -0.3642  0.1661  0.0516
29911W        W45380   1.205  13.884   2.360 -0.1497 -0.2575 -0.0275
29912W        W45381  18.115   0.817   0.334 -0.1229  0.2373  0.3293
29913W        W45382  16.112   2.872  15.914  0.2580  0.1192  0.0809
29914W        W45383  12.786   0.965  13.771  0.0667  0.1138 -0.0356
29915W        W45384  11.255   3.374   6.007 -0.1693  0.2563 -0.2085
29916W        W45385  12.122   8.859  13.020 -0.2052  0.1752 -0.4295
29917W        W45386   8.406   2.322   0.672  0.0941  0.1284 -0.1078
29918W        W45387  16.396  18.202   5.907  0.3164  0.2843 -0.1243
29919W        W45388  11.002   1.205  11.784  0.2311  0.0170 -0.0476
29920W        W45389  17.724   1.438   6.373 -0.3114  0.0037 -0.5849
29921W        W45390   9.582   8.014  14.928  0.0608  0.2033 -0.0925
29922W        W45391   2.001   4.517  12.582  0.0044 -0.0102  0.0128
29923W        W45392  12.913   9.899  15.241  0.4052 -0.0177 -0.0806
29924W        W45393  11.923  12.968   5.988 -0.3759 -0.4174  0.1461
29925W        W45394   0.235   4.290  14.491  0.0367 -0.0734  0.0956
29926W        W45395   6.215   4.035  11.797  0.0203  0.1748  0.0131
29927W        W45396   1.795  16.690  11.717 -0.1771 -0.1106  0.2112
29928W        W45397   1.695  15.707  11.320 -0.1671 -0.0265 -0.0386
29929W        W45398   2.603  14.410   3.206 -0.1932 -0.0587 -0.1584
29930W        W45399   9.075  18.101   1.020 -0.3108  0.1901 -0.0803
29931W        W45400  11.154  14.721  12.702  0.2026 -0.0265 -0.0424
29932W        W45401   4.228  14.856   3.997 -0.3609 -0.1855 -0.2747
29933W        W45402   1.478   4.285  14.898  0.2238 -0.0969 -0.0814
29934W        W45403   1.696  10.705  13.346 -0.0906 -0.0169 -0.0650
29935W        W45404   1.948  11.109   4.323  0.0351  0.0096  0.1012
29936W        W45405  11.325   7.266  12.802 -0.2860  0.1098 -0.1921
29937W        W45406   9.504  14.186  12.547  0.0388 -0.1941 -0.0714
29938W        W45407   6.643  16.463  12.744  0.0073 -0.2322 -0.0006
29939W        W45408   4.733  15.113   4.595  0.1250 -0.0855 -0.1458
29940W        W45409   2.177   0.614  12.774  0.0584 -0.0922 -0.0450
29941W        W45410  12.399   6.027   0.833 -0.2993 -0.0849 -0.2292
29942W        W45411   3.632   6.587  16.002  0.1690 -0.0559 -0.1864
29943W        W45412  11.139  13.365   5.802  0.1170  0.0931  0.2873
29944W        W45413   7.406   9.364   3.667  0.2798  0.0192  0.2300
29945W        W45414   1.658   9.301  15.300  0.0646  0.4197  0.0222
29946W        W45415  17.861  11.674  13.361 -0.0946  0.1465  0.1107
29947W        W45416   8.930  11.056   3.460  0.1568 -0.1494 -0.1644
29948W        W45417  12.343   2.499   3.350 -0.2527 -0.1638 -0.2164
29949W        W45418   4.125  17.281  16.105  0.1228 -0.0226  0.1126
29950W        W45419  10.381  10.135  14.947 -0.1130 -0.1020 -0.1265
29951W        W45420  12.684  12.615   5.118 -0.1320  0.4013  0.1902
29952W        W45421   9.602   7.858  14.281 -0.2152 -0.1020  0.1953
29953W        W45422   8.060   2.820   5.195 -0.2995  0.0045 -0.0150
29954W        W45423   8.515   3.666  13.421 -0.4138  0.0281 -0.0506
29955W        W45424   6.253   2.252   2.691  0.2085 -0.1201  0.2513
29956W        W45425  14.876   2.432   4.985 -0.1073  0.0660  0.2302
29957W        W45426   2.558  14.425   5.503 -0.2629  0.1419  0.0013
29958W        W45427  10.497   9.881  14.441  0.1517  0.0502 -0.0078
29959W        W45428   4.350   5.700   3.073 -0.5774  0.2778  0.1098
29960W        W45429   3.602  13.992  11.962 -0.0944  0.5284  0.2252
29961W        W45430  11.114   4.461  13.322  0.0510  0.3494  0.3910
29962W        W45431   6.086   1.870  11.278  0.1132 -0.0708  0.0909
29963W        W45432  15.852   0.068  11.211 -0.0048 -0.0992  0.3707
29964W        W45433  14.926   7.352  13.271 -0.0900  0.2154 -0.3253
29965W        W45434  10.261  11.782   4.994 -0.1312 -0.0881  0.1702
29966W        W45435   1.102  11.960   1.493  0.1793  0.0368  0.0003
29967W        W45436  12.995  16.044  13.856 -0.0579  0.1070  0.0582
29968W        W45437  12.697  15.352  14.245  0.0422 -0.2944  0.0972
29969W        W45438  13.114   1.513  15.833  0.1140  0.3920 -0.0603
29970W        W45439  10.643   2.249   3.869 -0.1645 -0.0237 -0.2375
29971W        W45440  13.988   2.848   0.032  0.0794  0.1662  0.3180
29972W        W45441   1.840   9.848  13.298 -0.0200  0.2036  0.3619
29973W        W45442   4.318   9.449   3.025 -0.0460 -0.0785  0.0277
29974W        W45443   4.133  16.807   4.551  0.0392 -0.3571  0.1636
29975W        W45444   9.262  15.539  11.405  0.0552  0.2144  0.0704
29976W        W45445   0.117   2.982  14.417 -0.0912 -0.0964 -0.3129
29977W        W45446   5.118   8.958   5.342  0.3949 -0.2441  0.0447
29978W        W45447   5.238   7.366   0.627  0.3427  0.1469  0.1363
29979W        W45448   9.358   6.928   3.967 -0.0170  0.0035 -0.2621
29980W        W45449   2.021   6.236   3.562  0.1729 -0.0395  0.0623
29981W        W45450   6.367   6.532   3.084 -0.1042  0.4255 -0.2350
29982W        W45451   1.051  14.669  13.938  0.2908  0.2221 -0.1964
29983W        W45452  16.560   3.430   1.029  0.0902  0.4369  0.3119
29984W        W45453   0.271  12.341  10.222 -0.1813  0.1746  0.0307
29985W        W45454   8.319  17.148   1.503  0.0797 -0.0860  0.0437
29986W        W45455  14.294  16.212   0.565  0.1071 -0.1587  0.1842
29987W        W45456  15.986  17.213  12.202 -0.1683  0.0206  0.1441
29988W        W45457   8.631  11.601   5.121  0.0140 -0.1094 -0.0129
29989W        W45458   5.269  14.642   3.273 -0.0036  0.1902 -0.2108
29990W        W45459  11.702   4.482  11.337  0.3432  0.2113  0.0147
29991W        W45460  13.096  14.287   5.249 -0.0089  0.0240 -0.0212
29992W        W45461  14.933  12.695   1.773  0.2001 -0.2153 -0.1476
29993W        W45462  16.968  13.972   5.752  0.1197 -0.1042 -0.2411
29994W        W45463  14.340   3.400   0.394 -0.0847 -0.0633 -0.2428
29995W        W45464   5.258   5.609   3.703 -0.0280 -0.1139 -0.4089
29996W        W45465   6.181   7.234   3.777  0.0833 -0.0511 -0.0222
29997W        W45466  16.164   2.573   4.729 -0.2603 -0.2527 -0.3124
29998W        W45467   9.477   8.120   3.739  0.3058  0.0325 -0.1243
29999W        W45468   5.355   9.052   1.568  0.3007 -0.2693 -0.0729
30000W        W45469   2.466   6.791   0.773  0.0382 -0.0634 -0.3235
30001W        W45470   9.843   9.729  11.841 -0.1175 -0.1165 -0.0025
30002W        W45471   5.138   7.552  15.862 -0.0591  0.0852  0.1335
30003W        W45472  16.615   0.260   4.650 -0.0420  0.3325  0.0488
30004W        W45473   4.579  16.975  12.310  0.0351  0.2040 -0.0019
30005W        W45474  17.564  10.340   1.964  0.0055 -0.0701 -0.1869
30006W        W45475  11.503  13.727  12.944 -0.3335 -0.0504  0.0173
30007W        W45476  11.609   0.093  14.161  0.1546  0.1681 -0.3097
30008W        W45477  11.475  15.485   2.818 -0.0225 -0.1130 -0.1323
30009W        W45478  15.462  14.495   2.439  0.1108  0.0106  0.0895
30010W        W45479   4.607  16.104   2.635 -0.2832  0.3399  0.1538
30011W        W45480  14.145   8.526  15.041 -0.0005 -0.1986  0.0472
30012W        W45481  10.589  15.385   2.285 -0.0448 -0.0901  0.1314
30013W        W45482  13.397   5.881   3.693 -0.1556  0.0576 -0.0829
30014W        W45483   7.294  15.454   0.714 -0.0787 -0.1981 -0.1869
30015W        W45484  16.291  17.420  10.324  0.2291  0.0545 -0.0121
30016W        W45485   6.817  17.779  12.353  0.0111 -0.0180 -0.0714
30017W        W45486  12.114  10.758   4.458 -0.1171 -0.0683  0.0415
30018W        W45487   3.474   3.132  15.786  0.1153  0.1291  0.0320
30019W        W45488  13.154  14.076   4.090  0.2679 -0.2267  0.0786
30020W        W45489  17.854  13.519  14.659  0.3912 -0.1237 -0.2823
30021W        W45490  18.274   1.933   4.060 -0.2319 -0.0005  0.1268
30022W        W45491   6.544   8.563   3.010  0.1719 -0.4320 -0.1289
30023W        W45492   2.364   3.190  12.047  0.1936  0.1520  0.0408
30024W        W45493  15.479  12.700  14.025  0.0987 -0.0502  0.3120
30025W        W45494  11.767   8.250  11.683  0.0867 -0.4638  0.0635
30026W        W45495   2.685   5.983   2.841 -0.3006 -0.3144 -0.0557
30027W        W45496  13.425  17.665   5.637  0.1589 -0.1748 -0.1097
30028W        W45497   1.836   4.307   0.932  0.0367  0.0550  0.0265
30029W        W45498   5.299   7.176   4.099  0.0703  0.1105  0.0883
30030W        W45499  15.777  16.618   1.462  0.0063 -0.2249 -0.0585
30031W        W45500   5.513  10.417  15.803  0.0538 -0.3382 -0.3062
30032W        W45501  12.405   6.160   2.900  0.1819 -0.0322 -0.1570
30033W        W45502  17.856   3.626   4.035  0.2069  0.0554 -0.0949
30034W        W45503  13.167   8.059  15.524 -0.3840  0.1744  0.1955
30035W        W45504   7.037   1.980  15.158  0.1555  0.0713  0.0097
30036W        W45505   4.267   8.960   0.588  0.2420  0.0108  0.1043
30037W        W45506   9.716  18.232  11.991 -0.1316  0.1578  0.3877
30038W        W45507   8.476   9.298   1.222 -0.2157 -0.1013  0.4037
30039W        W45508   7.067  13.267  12.180 -0.0109  0.0802  0.3594
30040W        W45509  16.830  15.823  12.316  0.0772  0.3133 -0.3050
30041W        W45510  15.449  14.574  15.944  0.0996  0.0444 -0.0676
30042W        W45511  12.562   5.532  11.367 -0.1228  0.4311 -0.1300
30043W        W45512   8.856  10.339  14.795  0.1094 -0.2524 -0.0463
30044W        W45513   3.270  17.918   1.781  0.0526 -0.0799 -0.4108
30045W        W45514   9.684  18.069   1.924 -0.1795  0.0420 -0.3477
30046W        W45515   5.882  10.029  15.950  0.0167  0.1036 -0.1253
30047W        W45516   7.746  11.387   0.614 -0.3169 -0.2589 -0.2636
30048W        W45517   8.788  16.617   4.026  0.3701  0.0715 -0.0184
30049W        W45518  10.556   1.073   0.904 -0.0577 -0.0552 -0.3608
30050W        W45519   3.296  18.132  12.323 -0.1278 -0.0092  0.1365
30051W        W45520  14.399  10.404  11.796 -0.0910 -0.1711  0.1072
30052W        W45521  10.692   0.298   0.156 -0.3606  0.0825 -0.0836
30053W        W45522  16.314  10.877   4.359 -0.0262  0.0745 -0.1029
30054W        W45523   9.602  12.312   5.755 -0.0361 -0.3354 -0.0979
30055W        W45524  16.003   1.500  14.664  0.1558 -0.0308  0.1404
30056W        W45525  12.623   8.917  12.984 -0.0165 -0.2374  0.0421
30057W        W45526  16.171   8.476   0.899  0.2043 -0.1392 -0.2599
30058W        W45527  11.244  16.092  13.641  0.1254 -0.3558  0.0125
30059W        W45528  15.427   7.983   2.921 -0.2115 -0.1686  0.2902
30060W        W45529   2.530   1.053   5.290  0.0075  0.1725 -0.0177
30061W        W45530   3.281  12.401   2.457 -0.1885 -0.1078  0.1964
30062W        W45531  17.579   5.945  12.407  0.1098  0.1345  0.1333
30063W        W45532  13.302   4.843  13.436 -0.1577 -0.0256 -0.0222
30064W        W45533  13.180   4.003   1.001  0.0644 -0.0317  0.0479
30065W        W45534   3.606   0.534   4.813  0.1213  0.1280 -0.2506
30066W        W45535  17.471   3.267  11.194 -0.1332 -0.0665 -0.2349
30067W        W45536   3.398  11.073  12.019 -0.2265 -0.0226  0.0782
30068W        W45537   8.711  16.713  12.432 -0.3140  0.2952  0.2034
30069W        W45538   7.925  18.124   3.216  0.1905 -0.0809 -0.1703
30070W        W45539  16.463   5.107  12.308  0.4131  0.1744 -0.3124
30071W        W45540   4.460   1.336   1.700  0.2179  0.0810  0.1688
30072W        W45541  16.051  16.576   1.900 -0.2760  0.0428  0.1467
30073W        W45542  10.390  16.797   0.563  0.0476  0.0144 -0.0688
30074W        W45543  12.848   3.873   2.956  0.2567  0.0700  0.2339
30075W        W45544   4.585   3.568   0.299  0.1711 -0.0286  0.1055
30076W        W45545   1.867  17.945  15.613 -0.0134  0.0815  0.0841
30077W        W45546   0.661   9.301  12.827  0.1368 -0.1728 -0.0202
30078W        W45547  16.523   8.454   3.694  0.1230 -0.0000 -0.2267
30079W        W45548  13.932  13.268  14.432 -0.0223 -0.0932 -0.0927
30080W        W45549  10.891  10.364   2.763 -0.1803 -0.1956 -0.0660
30081W        W45550   1.326   6.837  11.315 -0.1432  0.2260  0.2090
30082W        W45551  13.034  11.252  15.905  0.0117 -0.0225  0.4115
30083W        W45552  14.892   4.314   2.165 -0.1647  0.0507 -0.0639
30084W        W45553   7.525  11.797   5.069 -0.1599 -0.2627  0.0446
30085W        W45554   9.417  12.871   3.061  0.0452 -0.2960 -0.0056
30086W        W45555  12.555  14.230   0.581 -0.0568 -0.0990  0.1770
30087W        W45556   2.028   2.033  12.016  0.1946  0.2292  0.1934
30088W        W45557  11.345   9.646   3.936  0.2174 -0.1596  0.0190
30089W        W45558   3.740  18.060   2.977 -0.1439 -0.1306  0.0362
30090W        W45559   7.072  18.142  13.335  0.0474 -0.0593 -0.2832
30091W        W45560   8.205  12.343  15.505  0.1091  0.3307  0.1034
30092W        W45561  13.995   5.340  12.504 -0.0886  0.0532  0.1763
30093W        W45562  14.601   8.312   5.837 -0.1468 -0.4330 -0.2101
30094W        W45563  12.662   0.127  15.113  0.2670 -0.0316 -0.0477
30095W        W45564   9.097  13.205   3.298 -0.0765  0.0219 -0.1484
30096W        W45565   2.217   2.272  13.191  0.2120 -0.2506 -0.4667
30097W        W45566   0.505  14.022   3.569  0.2538  0.0304 -0.0734
30098W        W45567  14.960  15.815   4.994  0.2118  0.0220  0.2263
30099W        W45568   5.786  17.572  12.873 -0.1047  0.0726 -0.2906
30100W        W45569   9.934   3.679  14.885 -0.0719 -0.1284 -0.1099
30101W        W45570   0.260   1.880  13.431  0.3317 -0.0473  0.4793
30102W        W45571  10.915  18.114   5.338  0.1956  0.2072 -0.2019
30103W        W45572   5.244  10.409   0.222 -0.0211  0.0453 -0.1434
30104W        W45573   7.069  12.190   3.018  0.0463 -0.0834 -0.3574
30105W        W45574   1.774   2.477  13.548 -0.0654 -0.2093 -0.0182
30106W        W45575  12.471  16.184   4.497 -0.3642 -0.0458 -0.0703
30107W        W45576  11.317  16.246  11.667 -0.3062 -0.1643  0.1893
30108W        W45577  12.317   8.145   4.149 -0.1154  0.2078 -0.3337
30109W        W45578   7.341  10.451   0.591 -0.2533 -0.0695 -0.3316
30110W        W45579   4.662   9.099   2.309  0.0205  0.1213  0.2605
30111W        W45580  16.112   1.107   0.827  0.0846 -0.1119  0.0377
30112W        W45581  12.218  12.164  15.934  0.0052  0.1214  0.0615
30113W        W45582   2.372  17.334   3.206 -0.0110  0.1620 -0.0062
30114W        W45583  10.354   9.164   2.697 -0.1189  0.2012 -0.1106
30115W        W45584  15.565   8.288  15.153  0.1732 -0.0750  0.1726
30116W        W45585   0.427   1.286  11.868 -0.5122  0.0689  0.1288
30117W        W45586   2.964   3.414   0.908  0.1139 -0.2591  0.0539
30118W        W45587   7.740   5.325  14.001  0.0499 -0.4110 -0.1772
30119W        W45588  16.026  14.624  10.751 -0.1634  0.1236 -0.4363
30120W        W45589   7.173   8.141   2.126  0.1494 -0.0424 -0.1550
30121W        W45590   2.906   7.835  11.913 -0.0312  0.4606  0.2458
30122W        W45591  15.585   0.698  15.053 -0.0960  0.4359  0.0275
30123W        W45592   6.011  12.288  10.934 -0.0004 -0.0881  0.0045
30124W        W45593  11.121   5.581  13.573  0.1263  0.0777 -0.1592
30125W        W45594   4.665   4.678  15.166 -0.2529  0.0191  0.1248
30126W        W45595   4.936  13.915  10.948 -0.1666 -0.1465 -0.0283
30127W        W45596  14.597   0.459  15.125  0.2126  0.0634  0.1206
30128W        W45597  12.890   7.276   2.455  0.0279 -0.2552  0.0123
30129W        W45598  11.557   1.398  11.022 -0.1678  0.2171  0.1847
30130W        W45599  11.563   6.511   5.209  0.1404 -0.0362  0.2226
30131W        W45600   2.064  13.643  15.147 -0.0980  0.2619  0.1282
30132W        W45601  15.601  17.027  15.316  0.0737 -0.0563 -0.0110
30133W        W45602   3.167  10.059  13.232  0.0942  0.0843  0.2063
30134W        W45603   3.173   2.420   1.833 -0.0292 -0.2734  0.2244
30135W        W45604   3.917   5.337   3.687 -0.0193 -0.0403  0.2449
30136W        W45605  14.689   4.426   3.215 -0.2858 -0.2498  0.2440
30137W        W45606  14.451  12.568   0.948 -0.2604 -0.0313  0.0067
30138W        W45607  12.019  13.531  15.530  0.0885  0.2318 -0.0986
30139W        W45608  17.284   4.705   4.105 -0.0336 -0.3879 -0.0285
30140W        W45609  10.188   2.302   1.199 -0.2046  0.0729 -0.0850
30141W        W45610  10.406   5.787  15.071  0.2156 -0.0890 -0.1555
30142W        W45611  11.580  16.398  15.626 -0.1693 -0.0602  0.0693
30143W        W45612   4.362  16.014  11.840  0.2777  0.1714  0.2163
30144W        W45613   1.680   9.345   0.869  0.1149  0.1102  0.2820
30145W        W45614   4.451  14.421   2.673 -0.2228  0.1751 -0.0506
30146W        W45615  11.893   1.995   4.597 -0.2023 -0.0203 -0.0661
30147W        W45616   3.047   4.811   4.067 -0.2249 -0.1779  0.1457
30148W        W45617   3.742   9.967   1.892  0.2772  0.1058 -0.0638
30149W        W45618   0.605   3.458  10.386 -0.1075  0.2237  0.1119
30150W        W45619  10.055  17.606   1.251 -0.2095 -0.0270 -0.0534
30151W        W45620   9.954   6.333   5.318 -0.0484 -0.2382  0.1250
30152W        W45621   6.100   3.471  15.273  0.0194 -0.1356 -0.1590
30153W        W45622   6.627   8.497  11.270 -0.2104  0.1885 -0.2403
30154W        W45623   0.532   7.418   0.427  0.0448  0.0023 -0.0819
30155W        W45624   2.140  15.530  15.681 -0.3942  0.0888 -0.0017
30156W        W45625  12.199  17.695   1.766 -0.1158 -0.1109  0.0293
30157W        W45626   5.153  10.882  15.266 -0.0323  0.1008 -0.0180
30158W        W45627  14.049   7.070   2.008  0.0577 -0.0894  0.0123
30159W        W45628   9.249   0.514  12.549  0.0655  0.2030 -0.1333
30160W        W45629   8.748  17.599  14.623 -0.1096  0.1178 -0.0250
30161W        W45630   4.077   1.568   3.405  0.0381 -0.0908  0.2458
30162W        W45631   1.783  16.176   3.005  0.0526  0.0012 -0.2244
30163W        W45632   9.552   7.202  12.003  0.0144 -0.0334 -0.0175
30164W        W45633  11.005   2.977   3.393  0.2730  0.0870 -0.1892
30165W        W45634   4.206  14.805   0.719  0.2849  0.0826  0.1152
30166W        W45635   8.692   4.578   4.769 -0.0348  0.0833  0.2075
30167W        W45636   9.693  16.127  10.805 -0.1119  0.2388  0.3275
30168W        W45637   4.972   2.858  15.580  0.0567  0.1866 -0.4281
30169W        W45638   0.460   2.308  12.732  0.1671  0.0390 -0.0500
30170W        W45639   5.723   8.335  15.391 -0.3143 -0.3061 -0.1571
30171W        W45640   4.879  14.336   4.410 -0.1185 -0.0117 -0.1384
30172W        W45641  11.708  13.009   3.305  0.3456 -0.2872 -0.1191
30173W        W45642   8.008  11.206   3.196 -0.0936  0.0813 -0.1157
30174W        W45643  14.660   6.123  11.547  0.1398  0.0414  0.2452
30175W        W45644   3.264   9.003   2.551 -0.2158 -0.3549 -0.0081
30176W        W45645   2.321  12.146   5.868  0.0958 -0.0509 -0.2209
30177W        W45646   5.800  16.399  15.129  0.2920  0.0596 -0.0326
30178W        W45647   7.863  13.890   3.544  0.0983 -0.0892  0.0149
30179W        W45648  10.538   7.044  13.476 -0.2931 -0.1274  0.0217
30180W        W45649   2.878   1.157   2.399 -0.1616 -0.2272  0.0823
30181W        W45650  13.698  14.581  15.095  0.1094 -0.0869  0.1948
30182W        W45651  11.506  14.870  11.626 -0.2360  0.1589 -0.0323
30183W        W45652   2.217  14.690  13.322 -0.1490  0.0333  0.2065
30184W        W45653   6.403  12.891   3.526 -0.0005  0.0713 -0.0780
30185W        W45654   4.345  17.601  11.097 -0.0897 -0.2896  0.0037
30186W        W45655  13.747   0.288   0.186 -0.0398 -0.0865  0.0273
30187W        W45656  17.959   8.129   3.749 -0.0871 -0.1506  0.0188
30188W        W45657  13.612   4.394   2.383 -0.0610 -0.2098 -0.2397
30189W        W45658  12.206   5.670  14.705 -0.1766  0.3287 -0.2553
30190W        W45659   2.831   5.842   4.061  0.1119 -0.0995  0.2750
30191W        W45660  14.333   6.497   3.129  0.1473  0.1030 -0.0000
30192W        W45661   1.492   7.596   0.049 -0.0799 -0.0859 -0.0681
30193W        W45662  14.503  16.000  11.951 -0.0867 -0.2351 -0.3504
30194W        W45663  17.959   4.780  13.920  0.1547 -0.0898  0.1291
30195W        W45664  11.553  16.795  10.792  0.0786  0.0672 -0.2594
30196W        W45665   7.675   0.681  11.181 -0.5461  0.0784  0.1659
30197W        W45666   5.318   8.827   0.227 -0.1965 -0.0141 -0.2781
30198W        W45667   1.178   2.478   0.226 -0.1104  0.3815  0.4437
30199W        W45668   2.733  10.684  12.596 -0.2253  0.1225  0.1303
30200W        W45669   7.431  10.897  15.331 -0.3753 -0.0693  0.2160
30201W        W45670   1.338  12.588   2.333  0.1316 -0.3758 -0.0193
30202W        W45671  17.251  14.912  13.893  0.0668 -0.2018 -0.0527
30203W        W45672  16.966   0.643   2.804 -0.0011  0.0796 -0.1725
30204W        W45673   5.810   6.313  15.526  0.0824  0.1798  0.3949
30205W        W45674   8.885   7.920   1.322  0.0870 -0.0209 -0.1141
30206W        W45675  11.501  17.703  14.586  0.2973  0.0117  0.0270
30207W        W45676  13.105   8.475   2.989 -0.0741 -0.0211  0.2092
30208W        W45677   0.055   0.983  13.242 -0.0066  0.0169  0.0518
30209W        W45678  17.367  11.169  15.025  0.0105 -0.2894  0.0432
30210W        W45679  16.442   6.167   1.043  0.0007 -0.0260  0.1509
30211W        W45680   7.822   9.944   5.074  0.2458 -0.0140  0.2712
30212W        W45681   5.460   7.922   2.717 -0.1900  0.1978  0.1285
30213W        W45682  16.961   7.976   6.341 -0.2180 -0.0668  0.0465
30214W        W45683   0.617   9.723  14.576 -0.1832 -0.0619 -0.2018
30215W        W45684  14.612  11.926  12.329 -0.2667  0.0550 -0.0176
30216W        W45685   7.417   0.749   0.857  0.3299  0.1981 -0.2585
30217W        W45686   5.882   1.433   1.554  0.2911  0.0116  0.2102
30218W        W45687   4.300  13.057  11.753  0.0523 -0.4640 -0.0692
30219W        W45688   6.096   7.066  11.455  0.0599  0.1784 -0.1480
30220W        W45689   1.741  17.905  11.742 -0.0413 -0.0914 -0.1799
30221W        W45690  10.660   8.720   4.428 -0.1703 -0.0493  0.3229
30222W        W45691   8.710  13.398  12.651 -0.1966 -0.0470 -0.2833
30223W        W45692  10.865   7.894   1.186 -0.2055  0.0145 -0.0089
30224W        W45693  13.671   4.140   0.127 -0.1482  0.0009 -0.1149
30225W        W45694  17.799  11.201   0.847 -0.1932 -0.2545 -0.0890
30226W        W45695   4.470   0.395  12.955 -0.3194 -0.1136 -0.1016
30227W        W45696   7.398   2.518   0.815  0.1038  0.1168 -0.0135
30228W        W45697   3.807   7.981  15.421  0.3033 -0.0664 -0.2336
30229W        W45698  12.166  11.520  12.138 -0.1723  0.0328 -0.3812
30230W        W45699   6.983   9.185   2.160  0.0388 -0.2253 -0.2493
30231W        W45700   7.945  16.915   0.305  0.0391 -0.1508 -0.1076
30232W        W45701  12.491   3.051   4.312 -0.1292  0.0058 -0.0900
30233W        W45702   3.436   1.894   5.828  0.0379 -0.4347  0.1330
30234W        W45703   6.634  11.631  15.734 -0.1789 -0.0211 -0.1748
30235W        W45704  11.346  10.547  14.989 -0.1021  0.0594 -0.0934
30236W        W45705  17.780  16.133  15.827 -0.2005  0.1667 -0.1741
30237W        W45706   8.036   1.735   1.479 -0.1228 -0.0795  0.1427
30238W        W45707   0.729  13.846  15.856 -0.0946  0.1664 -0.2052
30239W        W45708   5.075   4.294  11.912  0.0193  0.2783 -0.0542
30240W        W45709  11.901   9.991   3.179 -0.1018  0.0673 -0.0373
30241W        W45710   0.930  14.789   0.014  0.0514 -0.0709  0.0867
30242W        W45711   9.002  15.250   1.413 -0.1802 -0.0239  0.0706
30243W        W45712   5.939   7.949  12.913  0.2678 -0.2038 -0.4268
30244W        W45713   2.135   3.915   4.900 -0.0048 -0.3450 -0.0494
30245W        W45714   6.292   0.163   5.379  0.0600  0.0545 -0.0896
30246W        W45715   6.438   6.495   4.369 -0.0816 -0.0773 -0.0969
30247W        W45716  17.985   4.363  12.718  0.1249 -0.3412 -0.1688
30248W        W45717   8.806   9.385   4.931  0.0861 -0.2455  0.0953
30249W        W45718   3.607   0.170  11.057  0.3136 -0.0848 -0.3193
30250W        W45719   9.599   0.849  12.445 -0.0038  0.0581  0.2634
30251W        W45720   1.891   7.318  14.594  0.2026  0.0198  0.3300
30252W        W45721  12.099   3.287   0.716 -0.1851  0.1379 -0.1555
30253W        W45722   8.149   5.245   3.412 -0.0936  0.0780 -0.1956
30254W        W45723  15.279   6.673   2.942 -0.1637 -0.2365  0.1905
30255W        W45724  13.818   0.336   4.087  0.4183  0.1150  0.1207
30256W        W45725   7.620  12.684  11.004  0.0867  0.0425  0.0393
30257W        W45726   7.376  15.159  15.417  0.0036  0.2020  0.1798
30258W        W45727  17.280   1.667  14.316 -0.1059  0.2715  0.2163
30259W        W45728  13.191   9.948  13.456 -0.0098  0.4940 -0.3112
30260W        W45729   2.458  13.167  10.856 -0.0505  0.0472 -0.1479
30261W        W45730   7.180   1.735  13.739  0.1104 -0.1046 -0.0755
30262W        W45731   5.457  14.482  12.768  0.0982 -0.0433 -0.0724
30263W        W45732   8.067   7.723  13.854  0.1238 -0.0118  0.1685
30264W        W45733  15.713   9.465   4.771 -0.0463 -0.2207  0.1013
30265W        W45734  16.485  14.491  10.954  0.2268 -0.0696  0.2584
30266W        W45735  11.012  11.950  15.207  0.0299 -0.2799 -0.4480
30267W        W45736  14.881   3.403   1.144  0.0373 -0.1022 -0.0558
30268W        W45737  11.854  12.591   1.551  0.7356  0.1255  0.1095
30269W        W45738  18.096  15.350  12.249  0.0084 -0.1590 -0.1015
30270W        W45739   1.680   0.934  12.237  0.1247 -0.1660 -0.2694
30271W        W45740  14.678  13.145   3.540  0.1427  0.3012  0.1635
30272W        W45741  11.463   6.982   4.563 -0.3128 -0.0963 -0.3463
30273W        W45742   5.681  17.687   0.359  0.1765 -0.0179 -0.0194
30274W        W45743   7.642  10.609  12.795 -0.0341 -0.1952  0.1542
30275W        W45744   1.494  16.714  14.759  0.0998 -0.2073 -0.1571
30276W        W45745   6.789   3.814  14.142  0.0212  0.1176 -0.3861
30277W        W45746   6.346   9.130   4.751  0.2531 -0.1991  0.1270
30278W        W45747   5.506   2.210   1.561 -0.4321  0.0611 -0.0986
30279W        W45748  10.917  10.390  13.559  0.1702  0.0882  0.0893
30280W        W45749   1.698  16.019   0.280 -0.1750  0.2224  0.1272
30281W        W45750  13.848   5.165  10.545 -0.2055 -0.0377  0.0358
30282W        W45751  12.273   4.866  15.846 -0.0581  0.2518 -0.0107
30283W        W45752  14.915   2.722   0.588 -0.3926 -0.1139  0.0671
30284W        W45753  15.851  15.891   4.583  0.2777 -0.1905 -0.2442
30285W        W45754   9.659  14.144   0.529  0.2784 -0.0171 -0.1424
30286W        W45755  13.136  14.009   1.526 -0.0888 -0.3254 -0.0653
30287W        W45756  10.642   6.409  12.067 -0.1470  0.2077  0.1602
30288W        W45757  12.462  18.113  16.014  0.1883  0.0379  0.3942
30289W        W45758  11.676  14.652  15.587 -0.0246 -0.2701  0.0391
30290W        W45759   6.777   5.030  14.287 -0.1423  0.3501  0.1043
30291W        W45760   4.617   4.464   1.789  0.0652  0.4641  0.1748
30292W        W45761   2.342  15.168  14.334  0.0090 -0.0565 -0.1219
30293W        W45762   6.890   1.233   3.378 -0.0060  0.2588  0.0101
30294W        W45763   2.439   9.137  14.207 -0.1954 -0.0252 -0.1290
30295W        W45764  15.551   0.758   5.210  0.1892  0.3878  0.4361
30296W        W45765   4.734   7.358  12.561 -0.1203  0.1453  0.2462
30297W        W45766   7.643   4.896   2.475 -0.2135 -0.1078  0.0495
30298W        W45767   0.800   1.604   1.424 -0.1348  0.1035  0.1419
30299W        W45768   4.990  14.283  12.801  0.0663  0.0306  0.4194
30300W        W45769  10.153   9.367   2.324 -0.1437  0.1439  0.1592
30301W        W45770  11.431   8.477  15.848  0.1664  0.1798 -0.1331
30302W        W45771  12.772  14.701   2.996 -0.2355 -0.0058  0.1684
30303W        W45772  13.655  13.701  15.382 -0.0198 -0.0424  0.3511
30304W        W45773   9.549  13.348  12.399 -0.2699  0.1125 -0.0145
30305W        W45774  13.902   1.772   2.988 -0.0849  0.0747  0.2042
30306W        W45775   5.381  11.285  15.939  0.0022  0.1585 -0.1107
30307W        W45776   4.685   8.749   0.305  0.3120 -0.0377  0.0829
30308W        W45777   1.680  10.659   1.074 -0.1030 -0.4133 -0.1072
30309W        W45778  17.782   6.727  12.293 -0.2658 -0.2204  0.1917
30310W        W45779  17.031  10.778   3.819 -0.4154 -0.0045  0.2383
30311W        W45780  15.055   8.969  15.580  0.0684 -0.2109  0.2069
30312W        W45781   6.224   3.419   6.041 -0.0293  0.3945 -0.3100
30313W        W45782   3.819   5.448   2.293  0.0935  0.1088 -0.1810
30314W        W45783   0.479   9.648   1.544 -0.1991  0.0980  0.1834
30315W        W45784  10.331  14.862   4.403  0.0979  0.0219  0.0317
30316W        W45785   2.833   9.300  12.741 -0.1183 -0.3064 -0.1330
30317W        W45786   0.100  16.400   4.731 -0.0844  0.2621  0.1261
30318W        W45787  14.786  12.957  15.975 -0.1531  0.0538  0.0695
30319W        W45788  12.784   9.963   3.428  0.0793  0.1403 -0.0760
30320W        W45789  13.072   7.136   4.080 -0.0925  0.2440  0.2434
30321W        W45790   7.430  14.535  13.573  0.1986 -0.1186  0.2586
30322W        W45791  18.103   9.071   3.171  0.1457  0.1121  0.2406
30323W        W45792   5.871   2.414   0.068  0.0679  0.1330 -0.2369
30324W        W45793   9.222  17.562   4.175  0.1354 -0.0018 -0.0690
30325W        W45794   2.777  10.087   0.114  0.0417 -0.0214  0.1963
30326W        W45795  17.942  16.282  11.898 -0.1252 -0.1420 -0.4626
30327W        W45796   9.651  16.259   3.117  0.1455  0.1360  0.2955
30328W        W45797   8.740  14.854   6.040  0.3547  0.0301 -0.0165
30329W        W45798   8.138   3.136   0.263 -0.0596 -0.2065 -0.1398
30330W        W45799   4.395  14.205   3.151  0.0493  0.0299  0.3594
30331W        W45800  10.732   8.554  11.857  0.0402  0.2635  0.1434
30332W        W45801   4.117   0.172   2.989 -0.4399 -0.2208  0.0288
30333W        W45802   9.542   8.680  11.248 -0.0011 -0.2102 -0.1130
30334W        W45803   7.157   9.222  13.672 -0.0165 -0.2083  0.0432
30335W        W45804   3.009   3.373   2.075  0.1462  0.0579  0.0614
30336W        W45805   9.626   5.880  11.645  0.1287 -0.1000  0.2357
30337W        W45806   2.412   1.265  11.619  0.0821 -0.3718 -0.2149
30338W        W45807  10.262  10.458   1.439 -0.3056  0.4281 -0.0870
30339W        W45808  16.539   8.564   4.329 -0.2905  0.0595  0.1339
30340W        W45809  15.219   9.464   4.873  0.2346 -0.0067 -0.3339
30341W        W45810   9.276   0.326   1.715  0.0375  0.1065 -0.0062
30342W        W45811   4.779   2.155   3.079  0.0453 -0.0274  0.2640
30343W        W45812  12.254  15.134   1.102 -0.1631  0.1215  0.0408
30344W        W45813  13.383  17.592  14.149  0.0337 -0.0679 -0.0169
30345W        W45814  10.171   7.909  12.618 -0.0501  0.3067  0.3186
30346W        W45815   8.592   6.013   5.085 -0.0206  0.2937 -0.1805
30347W        W45816   3.638  13.982   1.646  0.1439  0.1018 -0.4155
30348W        W45817  12.637   4.225   3.320  0.2205  0.3194 -0.3706
30349W        W45818   4.562  11.456  10.823 -0.0276  0.2610 -0.2674
30350W        W45819   1.121   6.972   3.261  0.1528  0.0998  0.2426
30351W        W45820   7.008  17.978   0.472  0.1762 -0.1809 -0.0581
30352W        W45821   5.797  11.480   1.741  0.0186  0.2809 -0.1309
30353W        W45822  16.866  15.667  11.823 -0.1732 -0.3180 -0.2599
30354W        W45823  16.091   3.276   3.043 -0.1979  0.1715  0.1794
30355W        W45824  16.575  14.073   2.937 -0.2409 -0.1629  0.0759
30356W        W45825  16.449  14.195   0.185  0.0035 -0.0909 -0.0286
30357W        W45826   2.320  11.893  12.244 -0.0296 -0.4247  0.1803
30358W        W45827   7.710  10.158  10.682  0.0765  0.1263 -0.3782
30359W        W45828   1.251   3.021  14.936 -0.1261 -0.5325  0.0861
30360W        W45829   1.215   5.810  12.517 -0.0443  0.0642 -0.0832
30361W        W45830   0.570   3.858  14.664  0.0271  0.3391  0.0723
30362W        W45831  12.572   4.380  13.618  0.0929 -0.0719 -0.1190
30363W        W45832   8.341   4.877  11.322 -0.0203  0.0231 -0.1312
30364W        W45833   6.047  18.068   4.156  0.0254 -0.2807 -0.1228
30365W        W45834  13.067  16.887  12.259 -0.2516 -0.1890 -0.1410
30366W        W45835  17.011   8.657   0.561 -0.0967  0.0188  0.0823
30367W        W45836  14.563   1.879   5.175 -0.1393  0.0974  0.2515
30368W        W45837  17.214  11.578  12.253 -0.2033 -0.3474  0.0554
30369W        W45838  11.159  15.954   3.918 -0.0934 -0.0648 -0.2868
30370W        W45839   5.771  13.521   3.434  0.2103  0.3216 -0.0356
30371W        W45840  18.228   4.813   1.052  0.0873  0.0367 -0.3734
30372W        W45841   8.571   7.760   4.799 -0.1057 -0.2189  0.1937
30373W        W45842  15.334   6.218   5.570 -0.1009  0.2066 -0.3765
30374W        W45843   8.493   8.621  14.942 -0.3838 -0.2429 -0.0467
30375W        W45844   5.102   2.579   5.917 -0.2872 -0.0594  0.3353
30376W        W45845   3.218  12.576  15.595 -0.0878 -0.1976 -0.0227
30377W        W45846   0.710  12.585   0.300  0.2479 -0.2396  0.1164
30378W        W45847  13.797  15.232   2.459 -0.2735  0.0390  0.4296
30379W        W45848  10.748  14.648   1.452 -0.0334  0.3307  0.1408
30380W        W45849  14.771   0.618   1.927 -0.0378 -0.1951  0.0210
30381W        W45850   0.505   0.429   5.132  0.1303 -0.1687  0.3275
30382W        W45851   4.620   1.208  10.512  0.2344 -0.1462  0.1044
30383W        W45852  17.118  17.140  15.176 -0.0306 -0.0605 -0.1277
30384W        W45853  17.617  15.939  13.043  0.2133  0.1790  0.0401
30385W        W45854  11.640  14.760  13.324  0.1722 -0.0710  0.0389
30386W        W45855   1.221  13.373   2.972 -0.1642 -0.2927 -0.5042
30387W        W45856   1.143  11.405  15.152 -0.0259  0.1513 -0.1393
30388W        W45857  12.391  13.179  12.935 -0.1533 -0.0891  0.0610
30389W        W45858   6.705   7.754  14.595 -0.2100 -0.2451 -0.2092
30390W        W45859   1.890   9.837  15.377  0.0479 -0.0582 -0.2599
30391W        W45860  13.137   6.933  10.955 -0.0312  0.4060  0.1017
30392W        W45861   7.955   3.227   1.161  0.1189 -0.1282 -0.1031
30393W        W45862   9.270  12.885   3.662 -0.0174  0.1587  0.3670
30394W        W45863  13.385   8.219  15.924 -0.1748  0.1562 -0.1736
30395W        W45864   8.490  12.756  10.532  0.0113  0.1405  0.0407
30396W        W45865   4.131   0.166   2.095  0.3304  0.1449  0.0822
30397W        W45866   9.584   3.682  15.555 -0.0932  0.1505 -0.1932
30398W        W45867   3.688   7.432   0.999 -0.0194  0.0972  0.0531
30399W        W45868   6.146   5.447   1.618  0.0483  0.2389  0.2750
30400W        W45869   8.180   9.959  10.795  0.2905 -0.2220 -0.0855
30401W        W45870   8.295   4.395   2.980 -0.2880 -0.0205  0.1620
30402W        W45871   7.540   2.966   1.113  0.2234 -0.1932  0.0008
30403W        W45872   4.557  10.945   5.217 -0.2524  0.0387 -0.3516
30404W        W45873  17.578   2.630  15.151 -0.1675 -0.0475 -0.1287
30405W        W45874  13.810   3.954  12.170 -0.1813  0.0227 -0.0267
30406W        W45875   5.215  14.015   2.142 -0.1143  0.3882 -0.0670
30407W        W45876  13.613   4.467  15.858  0.0614  0.2450 -0.0494
30408W        W45877   8.839   3.862  13.724  0.0801 -0.1218 -0.0464
30409W        W45878  17.522  12.480  15.302 -0.1651  0.0897 -0.3362
30410W        W45879  14.882   5.984   1.137  0.2160  0.0807  0.0099
30411W        W45880   4.310  14.288   0.330 -0.2543  0.2793  0.1679
30412W        W45881  10.833  13.177  15.488  0.0958  0.1814  0.3600
30413W        W45882   9.150  14.363  13.685  0.0023  0.3747 -0.0375
30414W        W45883   2.829   6.588  15.513 -0.0232  0.0276  0.1587
30415W        W45884  17.902   3.530  12.209 -0.0926  0.1224  0.0582
30416W        W45885   6.599   3.476  15.436 -0.1135  0.0420 -0.1822
30417W        W45886   1.174   1.085  13.242 -0.1055 -0.2656 -0.1289
30418W        W45887  12.936   9.405   1.775  0.0645  0.0560  0.0211
30419W        W45888  14.158  11.591  12.534  0.2381 -0.1735  0.0311
30420W        W45889  15.532  16.563  13.622 -0.2391  0.1040  0.1492
30421W        W45890  14.324   9.398   1.613 -0.0133 -0.1742  0.1643
30422W        W45891   5.889  13.956  13.272 -0.0859  0.0568  0.1978
30423W        W45892   4.560   5.842  14.442  0.1476  0.2851  0.0849
30424W        W45893   4.683   4.368   0.784  0.1892  0.1676 -0.0837
30425W        W45894  10.495   0.434  13.404  0.3272  0.0318 -0.0868
30426W        W45895  17.097  15.822   2.065  0.1405  0.2584  0.0728
30427W        W45896  11.425  13.930   4.705 -0.0982 -0.1177  0.1707
30428W        W45897  16.552   2.409   2.826 -0.1978 -0.0080  0.3276
30429W        W45898  18.075  14.737   0.273 -0.2643  0.0125  0.3787
30430W        W45899  17.311  16.883   4.902  0.0412  0.4352  0.2059
30431W        W45900   5.360  11.717   5.318  0.1139  0.1709  0.0834
30432W        W45901  13.310  17.111  16.107  0.0869 -0.0127  0.1080
30433W        W45902   2.701   5.984   2.284 -0.3192 -0.1949 -0.0396
30434W        W45903  15.644   9.296   4.225 -0.1595 -0.1636  0.2301
30435W        W45904   7.972   5.347   2.383 -0.1286  0.5227 -0.1166
30436W        W45905   4.460   7.809   0.506  0.0896 -0.0919  0.2047
30437W        W45906  16.878   6.976   3.917 -0.2772  0.0197  0.0908
30438W        W45907  15.538  16.424  11.442  0.1772 -0.2846  0.1433
30439W        W45908  15.132   8.710  11.462 -0.0413 -0.0764 -0.0388
30440W        W45909   5.006  16.641  10.891  0.1840 -0.3586 -0.0257
30441W        W45910  15.443  11.372  15.950 -0.3839 -0.1499 -0.1519
30442W        W45911  15.431   0.374   0.010 -0.1560  0.0078 -0.1228
30443W        W45912  17.181  12.723  13.576  0.0509 -0.0124  0.1255
30444W        W45913  17.619   5.139  12.716 -0.1159  0.0796 -0.0607
30445W        W45914  15.616  12.076   4.908  0.0478 -0.1426  0.1166
30446W        W45915   9.118  13.131   0.954  0.1202  0.2297  0.1837
30447W        W45916  13.553   3.511  15.630 -0.3958 -0.1486  0.0403
30448W        W45917   8.708  10.896  15.421 -0.1900 -0.1724  0.0087
30449W        W45918   1.368  15.059  13.998  0.1399  0.0255 -0.1523
30450W        W45919  13.925   5.978  13.141 -0.0090  0.2307  0.0506
30451W        W45920   9.877  10.352   0.642  0.2772  0.4055  0.2208
30452W        W45921  10.680   7.518   2.566  0.2460  0.0929  0.0507
30453W        W45922  11.938  11.396   0.365  0.0642  0.2256 -0.0142
30454W        W45923   0.161  10.801   4.136 -0.1637  0.0142 -0.1262
30455W        W45924  17.054  15.546  13.581 -0.0484  0.0048 -0.1639
30456W        W45925   2.890  17.423   3.085  0.0202  0.2842  0.4013
30457W        W45926  12.163   9.306  11.757  0.1909 -0.1951  0.0312
30458W        W45927   6.351  14.596   2.465 -0.0417  0.1927  0.0790
30459W        W45928   2.639  16.188  15.825  0.2427 -0.0081 -0.0079
30460W        W45929  15.921  10.210   1.507 -0.1642  0.1024 -0.0731
30461W        W45930   4.276   2.088   5.243 -0.0857 -0.1752  0.0467
30462W        W45931   3.680   9.495   0.881 -0.1388  0.0840  0.1512
30463W        W45932   9.371  18.240   0.003 -0.0650 -0.1124  0.0681
30464W        W45933  10.369   6.860   2.239  0.0830 -0.3735 -0.1333
30465W        W45934  12.938  14.933  12.850  0.1052 -0.0711  0.0882
30466W        W45935  17.594   6.940  13.602 -0.0563  0.0772  0.3971
30467W        W45936   2.603   9.758   5.510  0.0927 -0.1001 -0.0521
30468W        W45937   0.332   7.449   2.707  0.0734 -0.0787 -0.0024
30469W        W45938  11.173  14.050  13.100  0.0582  0.0977 -0.0663
30470W        W45939  14.327   6.101   2.405  0.0511 -0.0760 -0.0236
30471W        W45940   1.538   5.074   4.670  0.6466 -0.0590 -0.0653
30472W        W45941  11.958   7.630   2.664  0.0324  0.1446 -0.1450
30473W        W45942   0.112   4.956   0.587 -0.3793  0.0503 -0.0509
30474W        W45943   4.207   7.300  14.896  0.1144 -0.0940 -0.0290
30475W        W45944   9.807   8.215  11.424 -0.0679 -0.1177 -0.1672
30476W        W45945  15.704   1.178  12.491  0.0220  0.1550 -0.1183
30477W        W45946  16.361  11.434  14.970 -0.1632 -0.0888 -0.1985
30478W        W45947   4.808  16.168   1.313  0.1546 -0.0345  0.1879
30479W        W45948   5.971   2.935  12.368  0.1197  0.0081 -0.0424
30480W        W45949   2.917  14.476   2.108 -0.4185  0.1183 -0.1050
30481W        W45950   5.082  10.592  14.445  0.1876  0.0806  0.0237
30482W        W45951   9.928  18.248   0.597 -0.4411 -0.1398 -0.1363
30483W        W45952  14.507   8.413  13.059 -0.1266  0.2656 -0.1044
30484W        W45953   2.538   6.490   4.593  0.0951 -0.3555  0.5458
30485W        W45954   8.949   9.364  13.761 -0.3867  0.0080 -0.1084
30486W        W45955   6.306  10.425  15.115 -0.1768 -0.3567  0.1829
30487W        W45956  12.770   7.627  13.900  0.0340  0.0094 -0.0512
30488W        W45957   3.155  15.170  13.692  0.2918  0.0107 -0.0539
30489W        W45958   3.691   5.936   5.384 -0.1419 -0.2238  0.0476
30490W        W45959  13.615  14.337  13.691  0.2098 -0.0594  0.2122
30491W        W45960   1.622  17.661  11.268  0.0483 -0.0818  0.0379
30492W        W45961   4.757  10.637   1.049  0.0110  0.1093 -0.2282
30493W        W45962   0.040   7.908   1.670  0.0878 -0.0210  0.2018
30494W        W45963   5.515   7.840  12.457 -0.0528  0.0551 -0.1208
30495W        W45964  18.149   6.170  14.907  0.2415 -0.2114 -0.2272
30496W        W45965  16.765  10.612   5.197 -0.2483  0.2192  0.2630
30497W        W45966   7.176  11.483  11.988 -0.3343 -0.4207 -0.0247
30498W        W45967   3.026  17.220   4.056 -0.0017  0.0567 -0.0181
30499W        W45968   0.418  11.610   4.895  0.1904  0.1013  0.5669
30500W        W45969   0.958  13.946   5.127  0.2837 -0.4419 -0.0369
30501W        W45970   5.165  16.352  11.256 -0.0545  0.0277 -0.1060
30502W        W45971   6.593   6.364   1.412 -0.0616 -0.0597 -0.1348
30503W        W45972  10.710   1.507   1.120  0.1145 -0.0022  0.1670
30504W        W45973   6.358   3.614   5.582 -0.0496 -0.1034  0.0893
30505W        W45974   9.213   3.941  11.131  0.0534  0.2243  0.0381
30506W        W45975  10.253   2.283  13.608  0.2760  0.0959 -0.2332
30507W        W45976  13.974   5.272   4.512 -0.0903 -0.2785  0.0059
30508W        W45977  11.642   8.820   4.228 -0.0519 -0.0256 -0.0315
30509W        W45978   5.574  16.712   1.553 -0.0271  0.1257  0.1370
30510W        W45979   9.342   2.840   1.688 -0.0917 -0.0078  0.0210
30511W        W45980  17.323  16.468  13.179 -0.2122  0.4957  0.2570
30512W        W45981   9.307  10.554  14.175  0.1261 -0.1046  0.1171
30513W        W45982   8.625   4.823  15.048  0.0138 -0.3218 -0.2301
30514W        W45983   4.108  15.493   1.463  0.0359 -0.2106 -0.1465
30515W        W45984   3.458  18.118  15.740  0.1223  0.0673  0.0226
30516W        W45985  13.361  18.106  13.021 -0.1344  0.1379 -0.2638
30517W        W45986   2.363  17.352  11.230  0.1234 -0.1121 -0.1869
30518W        W45987  17.579   9.514  11.787  0.0283  0.3199  0.0812
30519W        W45988  11.393  13.251  12.052  0.0265 -0.1596  0.1705
30520W        W45989   1.482   0.326   5.390 -0.0826 -0.0776  0.0876
30521W        W45990   4.871   5.337  10.413  0.2820 -0.1724 -0.0174
30522W        W45991   7.585   7.525  13.618  0.1868  0.1121 -0.4194
30523W        W45992   5.774   9.108   0.437 -0.4550  0.1409  0.0105
30524W        W45993   7.667  14.279   2.131 -0.0066 -0.0122 -0.0297
30525W        W45994  13.020   7.887   5.589 -0.0829  0.1204 -0.2014
30526W        W45995   6.963   7.451  14.175  0.2989 -0.2243 -0.0168
30527W        W45996   3.115   4.307   3.979  0.1721  0.2647 -0.1008
30528W        W45997  11.574   6.894   3.077 -0.1713 -0.1964 -0.0193
30529W        W45998  17.751  16.453   4.806  0.5117  0.2031  0.0032
30530W        W45999   1.370   2.766  14.571 -0.1312  0.0707 -0.2289
30531W        W46000   2.503  11.398  15.079 -0.0411  0.0065  0.0566
30532W        W46001   8.319  15.646   0.498 -0.3154  0.2192 -0.1735
30533W        W46002  10.970  14.149   4.630  0.1275  0.2489  0.1151
30534W        W46003  16.003  11.032  12.861 -0.1084  0.1346  0.1157
30535W        W46004   0.202  12.441   2.484  0.0766 -0.0016 -0.1394
30536W        W46005   2.617  16.225  15.285  0.3614 -0.2684 -0.0622
30537W        W46006  17.378   7.431   1.973  0.1240  0.0966 -0.1009
30538W        W46007   1.362   8.409   2.053  0.0482  0.0517  0.2506
30539W        W46008  11.252   7.206  10.801 -0.1032  0.0892  0.1596
30540W        W46009  17.071   0.631   1.745 -0.0604  0.2783 -0.0740
30541W        W46010  16.497   8.440   4.867  0.1122 -0.0862  0.2689
30542W        W46011  15.807   8.576  12.986 -0.1047 -0.1928  0.1038
30543W        W46012   6.207   7.516  15.843 -0.0758 -0.2184  0.0052
30544W        W46013  17.499  10.852   2.012 -0.1766 -0.1990 -0.0624
30545W        W46014   8.898   2.673   4.700 -0.1014 -0.3149 -0.0161
30546W        W46015   5.309   6.938  13.586  0.1497 -0.0083  0.3683
30547W        W46016   4.871   5.169   2.474  0.1663  0.2592  0.0993
30548W        W46017  16.631   1.201   3.400  0.1489 -0.0503  0.0907
30549W        W46018  12.495   8.533   3.845  0.1040 -0.1540 -0.0178
30550W        W46019   8.172   4.928   2.493 -0.2182 -0.0301 -0.1359
30551W        W46020   4.962   8.861  15.401 -0.1199  0.0510 -0.3059
30552W        W46021   8.459   7.747  15.533 -0.2068 -0.2233 -0.1279
30553W        W46022  14.366  16.683   6.310 -0.2399 -0.0002 -0.2055
30554W        W46023  14.974   7.926   2.112  0.0918 -0.0118 -0.0875
30555W        W46024  17.064   3.848  12.653 -0.0324  0.0823  0.0035
30556W        W46025   9.665   6.196   1.061  0.1397  0.3322  0.4708
30557W        W46026  12.247   4.400  16.086 -0.3040 -0.2681 -0.0452
30558W        W46027   8.986   6.200  12.258  0.1624  0.1936 -0.2198
30559W        W46028   0.650  12.299   1.222 -0.1295  0.1653 -0.1833
30560W        W46029  12.353  10.168  14.736  0.0976  0.2877 -0.0674
30561W        W46030   7.137  16.332  11.792  0.0821 -0.0068 -0.1685
30562W        W46031   8.179  17.555   4.988  0.0567  0.1396 -0.0204
30563W        W46032   6.517   6.459  15.753 -0.0245 -0.1071 -0.0368
30564W        W46033  16.427   2.116   0.255  0.1146  0.1362  0.1004
30565W        W46034  17.610  11.719  15.148 -0.2202  0.0077  0.1326
30566W        W46035   8.411   6.182  14.736 -0.1296  0.0058 -0.0658
30567W        W46036  15.350   9.100  14.710 -0.2552  0.1680 -0.0038
30568W        W46037   4.165  12.248  11.513  0.0799  0.1617  0.2287
30569W        W46038   3.506   4.455   3.202  0.1246 -0.2266 -0.3485
30570W        W46039  11.382  10.444   4.684 -0.2993  0.0930 -0.1413
30571W        W46040   0.933  12.309  16.052 -0.0732 -0.1055  0.3290
30572W        W46041  12.282   1.284   2.899  0.1820  0.0327 -0.0324
30573W        W46042   9.347   4.880   5.993 -0.0515  0.2139 -0.1662
30574W        W46043   8.223   7.123   2.718 -0.1170  0.2137  0.1570
30575W        W46044  15.877  11.741   2.158  0.0528 -0.4402  0.0664
30576W        W46045   9.283  13.134  10.957  0.1168  0.1549 -0.1113
30577W        W46046  15.226  16.563  10.744  0.2093  0.0519  0.1946
30578W        W46047   2.860  12.462   3.270  0.0364 -0.0417 -0.2801
30579W        W46048   2.442   3.470  15.688  0.0737 -0.1963 -0.2569
30580W        W46049  10.528   3.128  15.300 -0.1942 -0.1225  0.0885
30581W        W46050   5.903   0.323  13.964  0.1550 -0.3545 -0.2857
30582W        W46051  13.120  13.836  14.993 -0.0147  0.1302 -0.1082
30583W        W46052  13.326  13.125   4.448 -0.1664 -0.2837 -0.2372
30584W        W46053   5.906   7.349  10.951 -0.1464 -0.0849 -0.0713
30585W        W46054   4.527  11.428  11.568  0.1913  0.1057 -0.0045
30586W        W46055   9.445   6.240  12.432 -0.2793  0.0751  0.2059
30587W        W46056   4.206   8.000   1.786 -0.0894 -0.2588  0.0822
30588W        W46057   9.030   9.264  12.716  0.0517 -0.0897 -0.4070
30589W        W46058   7.264  14.413  12.587  0.0245 -0.0046 -0.0392
30590W        W46059  13.826  15.646   5.470  0.0620  0.0170  0.2064
30591W        W46060   2.422  13.955   5.888  0.1092 -0.1014 -0.1730
30592W        W46061  14.269  12.400   1.933  0.0390 -0.0352  0.0575
30593W        W46062   2.818  12.443   2.164 -0.0562  0.1080 -0.0997
30594W        W46063   2.771   5.602  13.349 -0.1273  0.0776  0.4881
30595W        W46064   7.068   0.844   1.235 -0.0498 -0.0835  0.2167
30596W        W46065   5.327   0.586   1.837  0.0658 -0.1465 -0.2019
30597W        W46066   4.361  16.963  13.976  0.1966  0.1424 -0.1633
30598W        W46067  17.364  11.194  11.691  0.0147  0.0879  0.0005
30599W        W46068   4.654   5.957  13.715  0.2740 -0.0671  0.3405
30600W        W46069   5.223   9.159   4.322 -0.0222 -0.0423  0.1360
30601W        W46070  12.116   6.730   0.586  0.1136 -0.0976  0.0790
30602W        W46071  17.748  17.124   4.220  0.1635 -0.1053  0.0494
30603W        W46072   6.184   8.660   2.598  0.0090  0.2380  0.0727
30604W        W46073  14.373   3.076   3.091 -0.3312  0.2211  0.0748
30605W        W46074   0.884   1.490   5.086 -0.2208 -0.1621  0.4582
30606W        W46075  16.561   9.631  14.637 -0.1999 -0.1798 -0.1233
30607W        W46076   8.295  14.265   2.762  0.3130  0.1053  0.0330
30608W        W46077   3.257   3.270  14.523  0.0957 -0.1861  0.2583
30609W        W46078   8.461  12.602   1.172 -0.0509 -0.0155  0.4563
30610W        W46079   0.823  10.656   1.127 -0.1956  0.2258 -0.3216
30611W        W46080   2.104   7.289  12.341 -0.2505 -0.2784  0.0811
30612W        W46081   6.809  14.422  12.257  0.2038 -0.1351 -0.0567
30613W        W46082  17.229   0.421  14.678 -0.3758  0.0776 -0.1298
30614W        W46083   9.197  16.808   5.013 -0.0441  0.0492  0.2870
30615W        W46084  13.677   5.880   5.249 -0.0539  0.3231  0.0338
30616W        W46085   5.446   0.227   1.223  0.0190 -0.0420  0.2712
30617W        W46086  13.522   9.571   0.968 -0.1686 -0.2532  0.2306
30618W        W46087   2.203   5.798   5.199 -0.1474  0.1355 -0.1649
30619W        W46088  16.419   2.422   3.292  0.3117  0.3294  0.1404
30620W        W46089  14.180  17.132   0.529 -0.2120  0.0641 -0.0336
30621W        W46090  14.583  16.766  12.143 -0.0580 -0.0879 -0.0963
30622W        W46091  15.180   6.683   5.226 -0.2689  0.1927 -0.1299
30623W        W46092   8.906  12.745  12.366 -0.2011  0.0756  0.0921
30624W        W46093  15.642   0.761   0.790 -0.0137 -0.1291 -0.3612
30625W        W46094  12.935   8.069  16.059  0.0787  0.3766 -0.2540
30626W        W46095  11.153   6.497   2.087 -0.1063 -0.1550 -0.1805
30627W        W46096  14.539   5.278   5.022  0.3335 -0.1863  0.0783
30628W        W46097  15.513  16.397  10.350 -0.1364 -0.2892 -0.0907
30629W        W46098   9.379  16.069   3.476 -0.0900  0.1993  0.3863
30630W        W46099  15.474  18.021   2.377  0.1526 -0.0946  0.2188
30631W        W46100   8.455   8.629   1.083  0.2219 -0.5446 -0.1550
30632W        W46101  13.803   1.595   1.328 -0.0292 -0.4551 -0.2479
30633W        W46102   0.316  15.629   1.745  0.2428 -0.2764  0.1389
30634W        W46103  14.705   3.520  13.103  0.0865 -0.3768 -0.1336
30635W        W46104   6.269   2.129   0.114  0.0959  0.3364  0.0304
30636W        W46105  14.457  14.401   2.510  0.2080  0.2977 -0.2023
30637W        W46106  14.174  12.771   0.544 -0.0756 -0.2775  0.1244
30638W        W46107  11.198   9.855  15.256 -0.3120 -0.1387  0.0660
30639W        W46108   5.494   9.455  10.963 -0.0498 -0.2559  0.0657
30640W        W46109   8.467  17.374  12.822  0.0661 -0.2926 -0.1728
30641W        W46110   4.359   2.257  14.162 -0.0954  0.1728  0.2496
30642W        W46111   8.358   6.064   3.912 -0.0025  0.0667 -0.2816
30643W        W46112   3.786   1.257  14.746  0.2103 -0.2697 -0.0702
30644W        W46113  10.687  16.679  12.026  0.3528 -0.0779 -0.0986
30645W        W46114  14.982   5.470  15.807  0.0632  0.1185  0.2127
30646W        W46115   7.286  14.963   4.989  0.1816 -0.2291  0.0718
30647W        W46116   0.777   6.379   1.787  0.2104  0.2819  0.0512
30648W        W46117   4.301  17.796   5.386 -0.0200  0.1190  0.1520
30649W        W46118  14.015   9.710   0.150  0.0446 -0.1536  0.1605
30650W        W46119  12.506  13.937  12.726  0.1266 -0.0630  0.2760
30651W        W46120   8.852   5.702  12.352  0.0513  0.3068 -0.1257
30652W        W46121   4.247   8.799   4.342 -0.0089 -0.1117  0.1014
30653W        W46122  14.254  11.664  13.544 -0.1401 -0.1193  0.3067
30654W        W46123   0.253  14.888  13.762 -0.2447  0.3896  0.3395
30655W        W46124  13.586  12.448  13.476 -0.1387  0.1000  0.0124
30656W        W46125   0.727   7.978  14.417  0.0427  0.1991  0.1951
30657W        W46126   6.787   5.756  15.487 -0.1567  0.1911 -0.4442
30658W        W46127   7.484   8.444  11.853 -0.2497 -0.3940  0.3157
30659W        W46128  14.484  10.298  13.155 -0.0092 -0.1186  0.3171
30660W        W46129  14.502  11.513  15.465 -0.1426  0.1633  0.1525
30661W        W46130   4.398   4.122   4.416  0.1903 -0.2401 -0.3725
30662W        W46131  14.608   8.400   1.472  0.0720 -0.0037  0.0038
30663W        W46132   2.624   8.537  10.934 -0.0620 -0.0559  0.1253
30664W        W46133   1.268  12.906   4.161  0.3028  0.3820 -0.0715
30665W        W46134  14.718   3.469   4.832  0.0379 -0.4101 -0.2745
30666W        W46135   1.431  13.040   1.557 -0.0046  0.1597  0.1530
30667W        W46136   5.465   4.022   1.521 -0.2395 -0.1656 -0.0357
30668W        W46137   9.027  13.470  14.976 -0.0790 -0.0383  0.0284
30669W        W46138   9.201   5.968  13.462  0.0513 -0.1262  0.3326
30670W        W46139   8.666  10.751  14.456 -0.1260  0.3942 -0.2024
30671W        W46140   3.284  13.756  13.764 -0.0094  0.2092  0.2867
30672W        W46141  11.598  16.931   1.968 -0.0159  0.1428  0.0291
30673W        W46142   9.332  12.028  12.127 -0.3871  0.1591 -0.1938
30674W        W46143  13.986   7.771   4.256  0.1686  0.1666  0.1593
30675W        W46144   5.969  12.759  11.267 -0.1337  0.1535  0.2378
30676W        W46145   5.993   4.901  13.978 -0.2297 -0.2624  0.0313
30677W        W46146  10.631  12.545  14.758  0.0616 -0.0915  0.1359
30678W        W46147   1.007  18.182  14.963  0.2046 -0.0696 -0.1698
30679W        W46148   1.183  15.030  12.130  0.1802  0.1531  0.1983
30680W        W46149   3.977   4.616  14.899  0.1396 -0.1030 -0.2567
30681W        W46150  16.335  15.198   1.073 -0.2249  0.2698 -0.1333
30682W        W46151  10.714   9.289   5.107  0.0209  0.2182  0.4625
30683W        W46152   7.579   0.549  13.050  0.0991  0.0948 -0.3102
30684W        W46153  15.158   0.957  14.522  0.5665  0.1211 -0.4023
30685W        W46154  17.336   4.536  10.096 -0.1579  0.2105  0.0391
30686W        W46155  14.255  11.910  15.648 -0.2606 -0.2241 -0.0124
30687W        W46156  14.300  10.518   3.373 -0.0322  0.0680  0.3604
30688W        W46157   7.434   3.361   4.752  0.0280  0.0945 -0.3506
30689W        W46158   7.574  11.672   4.138 -0.1616 -0.2956  0.0548
30690W        W46159   2.615  15.664   1.042 -0.0751 -0.1419  0.0698
30691W        W46160   6.257  15.315  15.827  0.0888  0.1145 -0.0460
30692W        W46161  18.287  16.333   3.652  0.1724  0.1898 -0.0704
30693W        W46162  10.894   0.358   3.239 -0.0880 -0.0625  0.2851
30694W        W46163   3.269   2.892   0.929 -0.1851 -0.1732 -0.5405
30695W        W46164   8.423  16.304   1.139  0.0770 -0.0305 -0.0922
30696W        W46165   2.623  10.801  12.045 -0.0157  0.0951  0.0648
30697W        W46166  12.098  13.310   4.558 -0.2226  0.4847 -0.0153
30698W        W46167  17.580   1.948  11.205  0.2182 -0.1030  0.1711
30699W        W46168  14.201  13.807  15.459 -0.0150 -0.2346  0.2429
30700W        W46169  15.729   1.861  13.385  0.0516  0.1856 -0.2791
30701W        W46170   6.254   6.545  15.307  0.4079  0.1579  0.4112
30702W        W46171   5.186  10.381   5.490 -0.1944 -0.1829 -0.0828
30703W        W46172   0.541  13.969  12.987  0.0615  0.2984  0.2048
30704W        W46173   6.440   2.316  14.559 -0.0284  0.0333  0.1449
30705W        W46174   1.594  17.684  13.731 -0.1029 -0.1740  0.1281
30706W        W46175   4.459  14.904  13.640 -0.1584  0.2266 -0.2707
30707W        W46176   2.641   8.416  13.228  0.0293  0.0369  0.3407
30708W        W46177   4.767   5.990   2.401  0.2363 -0.1716  0.1784
30709W        W46178  15.054   3.113   4.188  0.3200 -0.2506  0.0290
30710W        W46179  12.906   6.807   1.150 -0.0770 -0.1401  0.1612
30711W        W46180   6.435  11.935   2.128 -0.1241  0.2131 -0.1850
30712W        W46181  17.886  14.971  11.831  0.2211 -0.1108  0.0311
30713W        W46182   2.346  15.863   1.933 -0.2214  0.1592 -0.0530
30714W        W46183   8.173  14.613   5.977  0.2680  0.0160  0.4395
30715W        W46184   2.577  13.339  14.530  0.2240  0.0800 -0.0610
30716W        W46185   8.473  14.205  14.563  0.1813 -0.2530  0.2330
30717W        W46186   0.525   2.610  14.434 -0.1157 -0.0021  0.3014
30718W        W46187   0.148  11.183   4.517 -0.1528 -0.1687 -0.0215
30719W        W46188   5.005   7.874   2.912 -0.0806 -0.2476  0.3021
30720W        W46189   5.255   9.447   1.182 -0.0905 -0.0352  0.1369
30721W        W46190  15.083  15.183   1.416 -0.0476 -0.3176 -0.0343
30722W        W46191  13.674  11.868   3.370 -0.0878  0.2523 -0.1366
30723W        W46192   4.645  13.775   1.386  0.1724  0.0363 -0.0169
30724W        W46193  11.770   6.475   2.888  0.4579 -0.0392  0.0716
30725W        W46194   2.764  17.341   0.757  0.0572 -0.0275  0.2130
30726W        W46195   0.848  12.178  13.011 -0.1222  0.0037  0.1288
30727W        W46196  17.893  11.622  11.064 -0.0116 -0.0304  0.0570
30728W        W46197  16.882   9.051   1.810 -0.3897 -0.3201 -0.0045
30729W        W46198  11.894   0.909   4.760 -0.0219  0.1452  0.0190
30730W        W46199  16.056   4.697  13.171  0.2299  0.3869 -0.0721
30731W        W46200   4.968   3.550  13.697 -0.0783  0.1330 -0.0891
30732W        W46201  10.293  11.141   2.097  0.0926  0.0579  0.0699
30733W        W46202   8.054   7.801   5.062  0.2991 -0.1389 -0.1184
30734W        W46203  15.725   5.829  14.362 -0.0634  0.0738 -0.0517
30735W        W46204   4.115   7.754   2.423 -0.0470  0.1990 -0.2042
30736W        W46205   1.744   1.226   5.554 -0.1188  0.1974  0.3279
30737W        W46206  12.497   7.090   2.755  0.1620  0.1679 -0.2021
30738W        W46207  11.323  12.640  11.225 -0.0364  0.0730 -0.2349
30739W        W46208   6.208  14.907  12.251 -0.2305 -0.3759  0.3744
30740W        W46209   4.739  11.339  12.297 -0.2846 -0.0731 -0.1450
30741W        W46210   4.994   5.176  13.246 -0.1681  0.0013  0.0814
30742W        W46211   3.681   3.850  16.056 -0.2151  0.0399 -0.1865
30743W        W46212   8.814   2.429   2.903  0.0598 -0.3161  0.1453
30744W        W46213  14.762  18.247  13.898 -0.0937  0.2542  0.2325
30745W        W46214   8.130  16.629   2.132  0.0526  0.2883  0.0075
30746W        W46215  12.289   1.523   0.210  0.3133  0.1267  0.0770
30747W        W46216  14.855   0.106   1.216 -0.0903  0.2838 -0.2255
30748W        W46217   3.729  18.288  11.822  0.1109  0.2111  0.1915
30749W        W46218  13.990   5.293   5.905  0.2186 -0.2294 -0.1583
30750W        W46219   8.250  14.131   3.343  0.0852 -0.0743 -0.0057
30751W        W46220  14.509   7.813   4.304 -0.0564  0.0062  0.0605
30752W        W46221   1.288  12.619  11.605 -0.3657  0.2063 -0.3749
30753W        W46222  12.730   0.136   4.197 -0.2668  0.0499  0.0335
30754W        W46223   8.311   8.414  13.849 -0.1411 -0.1033  0.1380
30755W        W46224   4.822  17.589   5.159 -0.1700  0.3411 -0.0843
30756W        W46225  11.545   1.410  12.951 -0.1405  0.4032 -0.2392
30757W        W46226   4.533  11.323   4.536  0.0546  0.0383 -0.1729
30758W        W46227   4.832   5.441  13.753 -0.1940  0.0169 -0.0639
30759W        W46228   7.655   3.798   4.483  0.3130 -0.0414  0.0046
30760W        W46229   2.288  14.229  10.657 -0.0982 -0.3475  0.1995
30761W        W46230   2.525  17.147  11.643  0.0252  0.2754 -0.4897
30762W        W46231   6.057   1.139  15.742 -0.0929  0.0927 -0.1196
30763W        W46232   5.823   1.990  15.916 -0.0217  0.0749  0.0581
30764W        W46233  15.542   7.074   2.895 -0.2592  0.0786  0.3237
30765W        W46234   2.120   3.818  14.854 -0.1654 -0.1159  0.0330
30766W        W46235   8.594  17.354  12.316 -0.1257  0.0643  0.1529
30767W        W46236   7.719  16.390  13.499  0.1964  0.0713  0.0272
30768W        W46237  12.777   8.941   3.863 -0.0883 -0.1676 -0.1892
30769W        W46238   0.517  15.467   4.401  0.2489  0.0184  0.0878
30770W        W46239  16.697   5.188  15.085 -0.0958 -0.1317 -0.3949
30771W        W46240  11.799  16.994  15.620  0.3429  0.3666 -0.2325
30772W        W46241   1.986   5.169  13.551  0.0941  0.2839 -0.0575
30773W        W46242  11.620   8.005  15.738 -0.2099  0.0779 -0.0103
30774W        W46243  11.037  15.866   6.385  0.0559 -0.0086  0.1138
30775W        W46244  17.841   0.718   3.621 -0.1089  0.1510 -0.1368
30776W        W46245   4.852  11.757   2.144 -0.3311 -0.0663  0.1906
30777W        W46246  15.839   7.369   3.238 -0.1711  0.1385 -0.1999
30778W        W46247   7.638   0.122   0.887  0.1165  0.0425  0.2273
30779W        W46248   4.953   0.033   1.100 -0.0007  0.3969 -0.0409
30780W        W46249  11.297   7.453  15.226 -0.1442 -0.1576  0.0588
30781W        W46250   7.659   9.801   3.378 -0.0469 -0.3902  0.2332
30782W        W46251   5.513   5.011  13.226 -0.0673 -0.1851 -0.0049
30783W        W46252   6.625  11.060  14.449  0.2458  0.0644 -0.1557
30784W        W46253   3.573   8.553  14.302 -0.0428  0.0376 -0.1641
30785W        W46254   9.845   9.690  12.333  0.0639 -0.3687 -0.0837
30786W        W46255   0.693   8.574  14.419 -0.1299 -0.1990 -0.2028
30787W        W46256  10.118  15.688  11.240  0.2050 -0.0694  0.1427
30788W        W46257   0.097  12.149   4.347 -0.0315 -0.3061  0.0086
30789W        W46258   3.164  15.499   3.652 -0.0047 -0.0115 -0.0402
30790W        W46259  15.107  14.822  14.466  0.0799 -0.1017  0.0012
30791W        W46260   3.745   3.300   5.933 -0.3885 -0.0616 -0.3462
30792W        W46261   6.765   0.085  11.986  0.3391 -0.2576 -0.1754
30793W        W46262   4.441   3.102   4.335  0.0835  0.1631 -0.0826
30794W        W46263  13.950   6.440  14.108 -0.3762 -0.3756  0.1394
30795W        W46264  13.420  13.639   1.740 -0.1786 -0.0111 -0.1322
30796W        W46265  14.200   6.630  15.876 -0.1181  0.1302 -0.0886
30797W        W46266  17.645   4.104  15.557 -0.2174  0.1751 -0.0103
30798W        W46267  14.804   3.556  14.315 -0.2318 -0.0568 -0.1305
30799W        W46268   5.065   1.658   4.371 -0.1384  0.3213  0.1815
30800W        W46269   5.488   8.030   1.678 -0.0842 -0.1971  0.0882
30801W        W46270  12.169  16.687  13.236 -0.0011  0.1140  0.0486
30802W        W46271   6.181   5.468   2.783 -0.1274  0.0746 -0.1735
30803W        W46272  11.317  14.498   4.685  0.1982 -0.0797  0.0879
30804W        W46273   3.162  11.938  15.586  0.2921  0.2234  0.1158
30805W        W46274   2.643   6.804   0.291  0.0155 -0.0381  0.2284
30806W        W46275   6.179   0.741   0.863 -0.0625 -0.6523 -0.2690
30807W        W46276   8.234  15.540   4.167  0.0406 -0.0045  0.2470
30808W        W46277  17.005   9.622  13.669  0.1293 -0.1547  0.3018
30809W        W46278  11.454  12.682  10.663  0.1568 -0.0462 -0.2228
30810W        W46279  10.677  15.626  15.414  0.0557  0.2376 -0.2772
30811W        W46280  10.216   4.747   3.213  0.2080  0.3447 -0.1229
30812W        W46281  14.360  14.689   4.985  0.4367 -0.1360 -0.2691
30813W        W46282   0.739  15.827   4.171 -0.0225 -0.0786  0.0618
30814W        W46283   2.625   6.137  15.578 -0.0327  0.2304 -0.0002
30815W        W46284  10.140   6.435  11.901 -0.2208 -0.0149 -0.2132
30816W        W46285  11.633   7.180   2.611  0.0534 -0.3111 -0.0777
30817W        W46286  17.732  10.654  11.077 -0.0170 -0.2232 -0.1486
30818W        W46287   6.619  16.153  14.340  0.0022 -0.1686  0.0271
30819W        W46288  16.587  15.227  15.425 -0.0465  0.0395  0.1844
30820W        W46289  18.104   2.013   2.449 -0.0772  0.0702  0.0651
30821W        W46290   1.611   4.149   2.767  0.0274 -0.1618  0.4054
30822W        W46291  16.657   3.410  14.281  0.0658 -0.2435 -0.0718
30823W        W46292   6.434  10.833  11.858  0.1474  0.1020  0.1837
30824W        W46293  16.158  17.407   3.895 -0.0743 -0.5010 -0.1269
30825W        W46294  15.913   0.474   5.376  0.2151 -0.2415 -0.0091
30826W        W46295   1.212   4.818  12.476 -0.1599  0.0770 -0.0115
30827W        W46296   1.631  10.995   3.383  0.0217 -0.1979 -0.2082
30828W        W46297  13.639  13.592   5.195  0.1264 -0.0876  0.1858
30829W        W46298   5.740  16.333   5.872 -0.1447 -0.0304 -0.1040
30830W        W46299  13.664  11.510   4.026 -0.0510  0.0231  0.1956
30831W        W46300   4.522   2.530  15.700 -0.2400  0.0280 -0.0640
30832W        W46301  11.398   1.909  14.125  0.0462 -0.1400 -0.2237
30833W        W46302  13.211  11.001   2.342  0.1983 -0.2490  0.1971
30834W        W46303   1.102  11.706   4.794 -0.1438  0.2721 -0.1059
30835W        W46304  10.860   6.740   2.455  0.2131  0.2608 -0.0291
30836W        W46305   8.951  11.461   2.161 -0.0717  0.0239  0.1744
30837W        W46306   9.881   1.683   4.702 -0.1248 -0.3657 -0.0740
30838W        W46307  13.201   5.523   5.239  0.3538 -0.1162 -0.0764
30839W        W46308   1.105  15.567   1.585 -0.0905 -0.0617  0.0547
30840W        W46309   0.097  10.890  12.979 -0.3033 -0.2200  0.3511
30841W        W46310  12.949   3.084  11.472  0.3675  0.1263  0.1349
30842W        W46311   7.576  17.910  12.965  0.1230  0.0851  0.3390
30843W        W46312  14.494   5.476   1.741  0.0230 -0.1686 -0.1434
30844W        W46313  12.037  17.618  13.081  0.1650  0.2267  0.0577
30845W        W46314  18.090   1.563   6.046  0.0725  0.0253 -0.1412
30846W        W46315  17.181   9.599   3.039  0.0535 -0.1508  0.1045
30847W        W46316   2.524   3.498   3.504  0.1868 -0.1574 -0.0940
30848W        W46317   0.228   4.475   0.472  0.1924  0.4579 -0.0862
30849W        W46318  10.443  11.516   0.451  0.0319  0.0036  0.0617
30850W        W46319  15.986   5.073   3.031  0.0728  0.1114 -0.4605
30851W        W46320   7.144   7.169   0.492 -0.1453  0.3576  0.0427
30852W        W46321   3.304   1.557  12.552  0.2848  0.2771  0.1655
30853W        W46322  12.605   6.020   3.781  0.0895 -0.1044 -0.2018
30854W        W46323  14.422   4.065  12.911  0.1169  0.0709  0.1650
30855W        W46324  13.905  11.594   4.440  0.0738  0.2989 -0.2077
30856W        W46325  12.614  11.203   2.692 -0.1159 -0.1140  0.0655
30857W        W46326  16.599   9.322  13.881  0.2216 -0.1351 -0.0999
30858W        W46327  16.911  11.619  11.010  0.0812  0.2166 -0.1465
30859W        W46328   3.181  12.521   1.316  0.1038 -0.2661  0.4738
30860W        W46329   5.631   5.640   2.975 -0.2455  0.0486 -0.0566
30861W        W46330  12.435   6.390   3.505 -0.1664 -0.0035  0.1747
30862W        W46331   4.712  12.785  13.491 -0.1861 -0.0318  0.0496
30863W        W46332  14.550  14.204  10.568  0.2788 -0.0211 -0.1796
30864W        W46333   3.288  10.440  12.611 -0.2719 -0.0529 -0.5328
30865W        W46334   0.465  11.186   4.035  0.1343  0.3592 -0.2103
30866W        W46335   3.815  14.958  12.073 -0.1855 -0.0481 -0.0836
30867W        W46336  15.535   8.148  12.786  0.1442 -0.0823  0.0396
30868W        W46337  11.739  10.214   5.431  0.0016 -0.0408 -0.2723
30869W        W46338   4.191   3.272  15.063 -0.2026  0.0233  0.1578
30870W        W46339  16.168   4.292  12.714  0.1808 -0.0212  0.1648
30871W        W46340  10.024  14.519  11.076  0.0815 -0.3204  0.1897
30872W        W46341   0.555   3.766  11.386  0.3143 -0.0430  0.1878
30873W        W46342   8.723  14.589  12.524 -0.0093  0.1627 -0.2138
30874W        W46343   9.437   0.642  13.813  0.3497 -0.2658  0.1268
30875W        W46344   7.888   9.247  12.864 -0.0546  0.2116  0.1037
30876W        W46345   6.208   8.747   1.040  0.0291 -0.0974 -0.2183
30877W        W46346   4.039   1.816  14.363  0.1673  0.1697  0.1140
30878W        W46347  17.498   3.575   0.113  0.3675  0.2902  0.1403
30879W        W46348  15.001  12.763   5.103  0.0219  0.1209 -0.0430
30880W        W46349   7.206   7.069  15.025 -0.3237 -0.0808  0.3738
30881W        W46350   3.932   4.998   4.063  0.1653  0.0699 -0.2584
30882W        W46351  14.449   0.341  13.792 -0.2708 -0.0666  0.0734
30883W        W46352   6.716   2.906   1.597 -0.0577 -0.1686  0.3204
30884W        W46353  17.153   1.422  15.182  0.1256 -0.1330 -0.3130
30885W        W46354  16.914   2.464   2.485 -0.0767  0.1535  0.0349
30886W        W46355   9.860  10.906   3.695 -0.2074  0.3523  0.0778
30887W        W46356   6.707   8.818  15.311 -0.0842  0.0845  0.3038
30888W        W46357   8.817   9.978  13.201  0.0388  0.1648  0.0605
30889W        W46358   9.860   9.760  10.467  0.1955 -0.1392 -0.1288
30890W        W46359  13.799  16.736   5.575  0.3684  0.0712 -0.1741
30891W        W46360  11.836   9.389  16.067  0.0990 -0.0391  0.4319
30892W        W46361   2.425  12.864   3.166 -0.2741  0.0707 -0.2235
30893W        W46362   9.204  10.735   1.547  0.0692  0.0447  0.0878
30894W        W46363  13.660  12.297   0.530  0.2012 -0.0339  0.1157
30895W        W46364  14.198   2.449   0.730 -0.1420 -0.0348 -0.3150
30896W        W46365  13.149   2.379   3.253 -0.0320 -0.2089  0.2840
30897W        W46366  17.845  13.615  13.638  0.0901  0.0176 -0.0970
30898W        W46367  14.826   3.034  13.148  0.3183 -0.0076  0.1185
30899W        W46368  10.289   5.965  12.025 -0.3809 -0.2551 -0.4390
30900W        W46369  10.674   8.657  15.182  0.0963 -0.1217 -0.0916
30901W        W46370   2.464   7.685   2.205  0.0200  0.1664  0.1792
30902W        W46371   7.775   3.632   3.281  0.0679 -0.1663 -0.0678
30903W        W46372  11.546   3.015  13.112  0.1634 -0.0308 -0.0628
30904W        W46373   0.303   1.293   0.357  0.0388 -0.1299 -0.1994
30905W        W46374   9.969   7.901  10.235  0.0735 -0.0347 -0.1133
30906W        W46375  15.524   4.357   1.685  0.0488 -0.1803  0.3193
30907W        W46376  15.650  14.746  14.753  0.2956 -0.3079  0.1564
30908W        W46377  15.923  10.082  12.851  0.0095 -0.0234 -0.0357
30909W        W46378  15.577   0.109  15.590  0.0133  0.1451 -0.0049
30910W        W46379  11.132   9.329   2.138 -0.0663  0.2124 -0.1062
30911W        W46380   2.176  12.347  15.539  0.4147 -0.2540  0.3132
30912W        W46381  14.874  17.961   0.564  0.0353 -0.4928 -0.0094
30913W        W46382   4.073   3.751  15.194  0.1272  0.2436  0.0984
30914W        W46383   1.755  10.574  12.828 -0.0744 -0.0008  0.1000
30915W        W46384  10.257  14.731   3.648  0.1568  0.3195 -0.1390
30916W        W46385   7.281  12.687  11.443 -0.0514  0.1355  0.0463
30917W        W46386  14.321  17.058   2.796 -0.3419  0.0240  0.1987
30918W        W46387  10.055  13.832   4.043  0.0910  0.1024 -0.0626
30919W        W46388   3.358  10.214   4.154  0.0380  0.4089 -0.0823
30920W        W46389  15.832   2.261  13.072 -0.3471  0.0098 -0.0425
30921W        W46390   1.510   5.356  13.489  0.1541  0.1172  0.1372
30922W        W46391   6.533  17.946  11.123 -0.2107 -0.1383 -0.1106
30923W        W46392   8.526  10.175  15.450 -0.1770  0.0195  0.1682
30924W        W46393  13.321  18.112  14.321 -0.2826  0.1233 -0.1795
30925W        W46394   4.504   3.942  11.200 -0.1964  0.0282 -0.1690
30926W        W46395   3.490  15.855  15.494  0.0758  0.2124  0.0646
30927W        W46396   7.214   8.162  13.682  0.3064 -0.1883 -0.0526
30928W        W46397   2.771   2.015   5.230  0.0199 -0.0068  0.0566
30929W        W46398   5.074   8.425  14.827  0.1154 -0.1071  0.0887
30930W        W46399  14.682   0.867  13.027 -0.0888 -0.0961  0.0256
30931W        W46400  15.053   0.912   1.084  0.1062  0.2478 -0.1338
30932W        W46401   1.214  17.280  13.451  0.0970  0.2369  0.1358
30933W        W46402  13.453   0.574  13.537  0.2927 -0.5466 -0.1016
30934W        W46403  17.836   5.371   1.819  0.1498 -0.1861 -0.1888
30935W        W46404  11.065  15.050   3.886 -0.1914 -0.0030 -0.1756
30936W        W46405  12.528   3.594   4.080  0.1170 -0.1697  0.1029
30937W        W46406   7.127  11.287   3.639 -0.0192  0.1974 -0.0128
30938W        W46407   5.991   7.731   2.503 -0.1056 -0.0376 -0.0933
30939W        W46408   4.644   7.470   2.230  0.0828 -0.0470 -0.0156
30940W        W46409  13.316   1.204  14.192 -0.2223  0.3272 -0.3008
30941W        W46410   1.410  10.780   3.767 -0.0013  0.3092 -0.1031
30942W        W46411   4.131   0.496   0.093  0.0804 -0.0090  0.0470
30943W        W46412   6.376  14.516  11.958 -0.1270  0.0078 -0.1250
30944W        W46413   0.087   3.389   3.255 -0.0753  0.1474  0.1122
30945W        W46414   8.017   7.018  11.544 -0.2792  0.0571 -0.0782
30946W        W46415  16.503  13.643  10.913  0.0553  0.1549  0.2189
30947W        W46416  12.625   0.188  15.685  0.3131  0.1229 -0.2332
30948W        W46417  15.058   5.527   4.429  0.0082  0.0078 -0.0136
30949W        W46418  12.588  15.596  12.144  0.0121 -0.1169  0.1753
30950W        W46419   4.767   5.664  15.605  0.1862 -0.1998  0.0663
30951W        W46420   1.345   1.976  13.107  0.0768 -0.0035  0.0725
30952W        W46421  17.260   0.116  13.212 -0.1163  0.1158  0.2365
30953W        W46422   1.056   4.671   2.407  0.0746 -0.0041  0.0821
30954W        W46423   0.766   0.499  14.425  0.1363 -0.1228 -0.1009
30955W        W46424   4.926   3.487   4.952 -0.0459 -0.2037 -0.1557
30956W        W46425   1.049   3.135   3.059 -0.2616  0.2512  0.0557
30957W        W46426   5.346   0.544  12.724  0.0227 -0.2254 -0.0630
30958W        W46427   9.622   6.988  15.572  0.2417  0.1487  0.0456
30959W        W46428  11.270   0.299   5.846  0.1834 -0.0107 -0.1824
30960W        W46429  13.370  10.986  14.431  0.3863  0.2960  0.4059
30961W        W46430  10.256  14.909  13.153 -0.1564 -0.0645  0.1899
30962W        W46431   0.075   7.605   2.250  0.0180 -0.1981 -0.3995
30963W        W46432   2.572   9.675  12.618  0.1407  0.1209 -0.0759
30964W        W46433  10.223   8.147  13.413  0.1423  0.2865  0.1077
30965W        W46434   6.417   1.691   4.582 -0.3755  0.5001 -0.0700
30966W        W46435  13.805   6.828  16.048  0.2004  0.0706 -0.1600
30967W        W46436   3.441  10.384  11.858  0.0322  0.0189  0.2236
30968W        W46437  17.821   4.366  12.253  0.0771  0.4037  0.0554
30969W        W46438   7.153   8.745  12.737  0.0851  0.2250  0.0540
30970W        W46439   2.486   6.982   2.327 -0.2111 -0.1579 -0.0540
30971W        W46440   7.754  13.184  12.796  0.2212  0.1145 -0.1204
30972W        W46441   9.711  14.942   0.917 -0.1631  0.2314 -0.3006
30973W        W46442   8.435  13.533   2.428 -0.2698 -0.0710  0.1131
30974W        W46443   5.817   4.214   1.827 -0.2507  0.0957 -0.2272
30975W        W46444   9.160   2.449  14.928 -0.2219 -0.3479  0.0179
30976W        W46445  18.174   0.079  13.695  0.0818 -0.4118 -0.1439
30977W        W46446  11.396   5.833  14.691 -0.0858 -0.0307  0.1739
30978W        W46447   5.663  14.543  12.333 -0.1539  0.1273 -0.0401
30979W        W46448   7.578  13.284  11.785 -0.0791 -0.2631 -0.3676
30980W        W46449   5.638   0.054  15.334  0.0736 -0.4078 -0.0670
30981W        W46450  15.811  17.779   2.036 -0.1165 -0.0698 -0.0787
30982W        W46451  13.245   7.443  14.617 -0.0381  0.0282 -0.2228
30983W        W46452  12.314  15.966   1.602  0.0286 -0.1019 -0.2720
30984W        W46453   5.737   5.567  13.285  0.1424  0.4101 -0.2091
30985W        W46454  10.739  13.258  11.638  0.2209 -0.0566 -0.2360
30986W        W46455  14.988   9.302   2.537 -0.0283 -0.0607 -0.0004
30987W        W46456  17.633   3.248   3.617  0.1865 -0.1593 -0.1090
30988W        W46457  15.709  15.268   4.067 -0.2977 -0.1181 -0.1824
30989W        W46458  15.974   5.705   3.878  0.2181  0.1939 -0.0619
30990W        W46459  11.997   6.554   2.063  0.0471 -0.0505  0.1949
30991W        W46460  16.884   0.581  12.678  0.1806  0.0206  0.0117
30992W        W46461   1.148  17.153   3.694  0.3794 -0.3183 -0.2373
30993W        W46462   0.917  16.838  10.120  0.0039 -0.1599 -0.1125
30994W        W46463  16.600  14.505   5.565 -0.1897  0.1083  0.1708
30995W        W46464   6.791  14.415  14.684  0.0372  0.1463  0.0856
30996W        W46465  16.638   0.384  10.981  0.2787  0.0594 -0.3448
30997W        W46466  14.503   6.958   3.263 -0.0818 -0.1349  0.1103
30998W        W46467   2.945   2.798  12.700  0.2080 -0.1841  0.1605
30999W        W46468   4.387   3.939  12.432  0.0472 -0.1547  0.0220
31000W        W46469   4.323  13.305   1.362  0.0425 -0.0996  0.0309
31001W        W46470  17.568  16.394  12.764 -0.0976  0.5486 -0.1257
31002W        W46471  14.359  14.767  14.193  0.1648 -0.1966  0.4010
31003W        W46472  10.275   6.576  15.703  0.3411 -0.0297 -0.0524
31004W        W46473  16.366   1.076  14.421  0.4042 -0.0318 -0.1657
31005W        W46474  11.155  13.726   0.572  0.0240 -0.0380  0.1836
31006W        W46475   5.633  14.214   1.609  0.1705  0.1078 -0.0905
31007W        W46476   0.624   4.097   3.890 -0.1093  0.0663  0.2014
31008W        W46477   1.390   7.012   2.277  0.0349 -0.2940  0.3432
31009W        W46478   0.032   8.117  15.814  0.1349 -0.0632  0.0896
31010W        W46479   0.081   1.457   3.830 -0.2410 -0.3354 -0.0639
31011W        W46480   5.757   0.683   6.197 -0.2180  0.0031  0.2215
31012W        W46481  16.508   9.996  12.165  0.1456 -0.0337  0.0463
31013W        W46482  16.135  15.532  11.850 -0.1340  0.1657 -0.3425
31014W        W46483   2.296  14.814   0.852 -0.0128  0.0665  0.1691
31015W        W46484  12.059   0.000   0.621  0.0679  0.0939  0.1301
31016W        W46485  13.822   4.278   4.603 -0.0129  0.0182  0.1183
31017W        W46486   3.011  17.404  12.506 -0.0718  0.0885 -0.1105
31018W        W46487   1.625   3.479  11.390  0.0994  0.0917 -0.0076
31019W        W46488  17.696   1.988   1.262  0.3707 -0.2326  0.0532
31020W        W46489   7.631   7.336   1.830  0.1025 -0.0042  0.4987
31021W        W46490  16.246   5.670   1.063  0.0989  0.0312  0.1600
31022W        W46491   8.443  16.229   2.917 -0.0594  0.0116 -0.3066
31023W        W46492  17.223  18.007   0.331 -0.0580  0.1601 -0.1431
31024W        W46493   6.090   9.504  13.757 -0.2238  0.1234  0.1369
31025W        W46494  15.346   4.131   1.256  0.0850 -0.0456 -0.1351
31026W        W46495  12.113   0.299  15.749 -0.0417  0.1622  0.4737
31027W        W46496  16.985   7.638  11.942 -0.0043 -0.1193  0.1670
31028W        W46497  14.216   3.241   4.969 -0.1110  0.1561 -0.3424
31029W        W46498   8.124   0.922  15.918  0.2542  0.1799  0.1913
31030W        W46499  17.494  11.405  14.161  0.1879  0.0955 -0.2363
31031W        W46500   2.848   6.474  15.964  0.0345 -0.0933 -0.1042
31032W        W46501  11.829   8.657   0.638  0.1753  0.2787  0.0666
31033W        W46502   2.164  16.308  13.430  0.1000 -0.0983 -0.3878
31034W        W46503  16.302   3.348  13.425 -0.0700 -0.0374 -0.4772
31035W        W46504  14.849   6.913   0.938  0.3656  0.0895  0.1043
31036W        W46505   2.913  10.612  14.740  0.2224 -0.2860  0.0437
31037W        W46506  15.413  15.856   3.318  0.1115  0.3576  0.0358
31038W        W46507  14.863  16.755   5.258 -0.0785 -0.2882 -0.1655
31039W        W46508   1.976  16.790  12.719 -0.1395  0.0837 -0.2829
31040W        W46509  15.842  15.297  14.798  0.0081 -0.1033 -0.1833
31041W        W46510   6.729  17.193   4.820  0.0537  0.1110 -0.1376
31042W        W46511   9.242  14.527   2.514 -0.2151 -0.4547  0.1987
31043W        W46512  11.019  17.780   1.928  0.3897 -0.0928  0.0867
31044W        W46513   7.372   4.167  12.780 -0.1615 -0.0552 -0.3312
31045W        W46514  17.125   4.474   3.399  0.2471 -0.0867 -0.0594
31046W        W46515  16.792  14.608   5.015 -0.0116  0.0860 -0.1836
31047W        W46516   0.542   5.395  12.990 -0.1657 -0.1067 -0.6795
31048W        W46517   0.026   0.095  11.698  0.0568 -0.0087  0.2114
31049W        W46518   4.972  13.142  14.846 -0.0017 -0.0301  0.0302
31050W        W46519  13.207  12.612   3.743  0.0204  0.1170 -0.4847
31051W        W46520  12.555   4.281  12.986 -0.1442 -0.1875  0.0670
31052W        W46521  12.835  15.642  15.564  0.2528  0.2395 -0.3579
31053W        W46522  13.056   0.819  11.637  0.2898  0.0773 -0.0366
31054W        W46523  17.682  14.767  14.204 -0.0603 -0.2821  0.3326
31055W        W46524   9.343  15.154   4.718 -0.0306  0.0320  0.0234
31056W        W46525   8.800  15.312   3.116  0.1684 -0.3439 -0.0853
31057W        W46526   5.669   1.798   1.176 -0.1945  0.1362  0.2952
31058W        W46527   6.056   2.532  12.031  0.1351  0.3224  0.3249
31059W        W46528   1.202  14.621  15.611  0.0012  0.0128 -0.2171
31060W        W46529   8.796   3.127  11.029 -0.1391 -0.5523 -0.1779
31061W        W46530   4.707  16.253   3.276 -0.0942  0.0706 -0.2392
31062W        W46531   4.419   3.465   5.286 -0.0067  0.1881 -0.2059
31063W        W46532   9.752   7.795   3.521 -0.1125  0.0771 -0.0915
31064W        W46533   8.058  10.471   3.012 -0.2014 -0.0722 -0.1735
31065W        W46534  17.352   0.244  10.201  0.2028 -0.2691 -0.2649
31066W        W46535  12.835   8.490  13.658 -0.1401 -0.1495 -0.3136
31067W        W46536  12.088   7.145  13.992  0.2441  0.1507  0.2005
31068W        W46537  13.367   7.034   2.424  0.4835  0.0128  0.0653
31069W        W46538   5.334  10.023   4.040 -0.1074  0.0263 -0.1672
31070W        W46539   3.356  16.987   2.034  0.1502 -0.0613 -0.3275
31071W        W46540  10.741  15.579   3.478 -0.0770  0.1652  0.3245
31072W        W46541  15.329   0.027   1.471  0.3333  0.0850 -0.0101
31073W        W46542  17.269   9.989  11.753 -0.0577 -0.0157 -0.0685
31074W        W46543   1.749   2.300  13.068 -0.0539 -0.1751  0.1114
31075W        W46544  15.864  13.553   0.134 -0.4435 -0.1052  0.3380
31076W        W46545   6.106  11.512  13.976  0.4021  0.0075  0.2287
31077W        W46546  14.761   2.231  15.726 -0.1165  0.0435 -0.2469
31078W        W46547   5.807  16.678  11.251  0.0391 -0.2704 -0.3313
31079W        W46548   0.727   4.989  15.428  0.1428  0.0304  0.1762
31080W        W46549   4.895  12.134   4.037 -0.0675 -0.0682  0.1498
31081W        W46550  15.686   7.909   5.675 -0.2429 -0.0717  0.2153
31082W        W46551  17.976   9.214  10.058  0.1595  0.1481  0.2196
31083W        W46552  10.459  11.257   3.048 -0.0359  0.0898 -0.4135
31084W        W46553   7.384  15.722   3.538 -0.0117 -0.2452 -0.0038
31085W        W46554   4.955   6.004   3.708 -0.1002  0.1058 -0.1354
31086W        W46555  13.307   0.145  13.397 -0.2498 -0.0991  0.0267
31087W        W46556   9.955   9.281  12.808 -0.0597  0.2720  0.0338
31088W        W46557  10.445   1.436   2.763 -0.0732  0.3925 -0.1130
31089W        W46558   4.131  14.118   2.437 -0.3127  0.1866 -0.2341
31090W        W46559  16.392  15.841  12.539  0.2567  0.0019 -0.2039
31091W        W46560  15.400  15.328   2.223 -0.0312  0.2364  0.2976
31092W        W46561   4.441  12.960   5.284  0.0873  0.1692  0.1727
31093W        W46562   3.476   5.151   3.861  0.0279 -0.0159  0.0937
31094W        W46563  16.890  10.049  12.651 -0.2249  0.2023  0.3312
31095W        W46564  12.054  18.132   0.118  0.0960  0.0583  0.0249
31096W        W46565   8.783   5.932   3.524 -0.2191 -0.0064 -0.1460
31097W        W46566  13.017  14.024  12.513 -0.3496 -0.1181  0.3141
31098W        W46567   7.174  13.959  12.827  0.0504  0.1909 -0.1785
31099W        W46568   3.956   2.854  14.178  0.0017 -0.0278 -0.0234
31100W        W46569  15.837   9.131   0.087  0.1226  0.2665  0.2312
31101W        W46570   0.634  16.742  13.872 -0.1534 -0.1238 -0.1490
31102W        W46571   0.312  10.184  13.386  0.2096  0.2088  0.1754
31103W        W46572   4.912  16.743  11.419 -0.1644 -0.0342  0.0220
31104W        W46573  17.076   5.408   0.573 -0.0684  0.1473  0.0111
31105W        W46574   9.969   4.970   1.517  0.1784  0.1250  0.0205
31106W        W46575   2.754   0.256   5.260  0.0570  0.1455 -0.0893
31107W        W46576   0.890   3.708  15.336 -0.2332  0.1209 -0.0094
31108W        W46577   2.695  13.245  15.961 -0.1319 -0.0883  0.0605
31109W        W46578  14.134   2.224   6.527 -0.3561 -0.0574  0.0070
31110W        W46579   8.521  15.296  13.273 -0.0087 -0.1833 -0.0333
31111W        W46580   7.286  18.005   2.073 -0.0308 -0.2677 -0.2319
31112W        W46581  10.268   2.918  12.920  0.1249  0.1195 -0.2170
31113W        W46582   9.827  14.828   5.697  0.1757  0.2274 -0.1652
31114W        W46583   2.210   2.399  15.188  0.0219 -0.0211  0.0635
31115W        W46584  18.026  10.033   9.550  0.2676 -0.1874  0.1647
31116W        W46585   4.267  12.799   4.420  0.3617 -0.1330  0.0870
31117W        W46586   0.470   4.529  15.309  0.1478  0.1908  0.0620
31118W        W46587   1.400   9.453   4.639  0.0153 -0.2466 -0.2189
31119W        W46588   0.856  13.809  14.087 -0.0814 -0.1352 -0.4048
31120W        W46589  17.797  18.188  12.561 -0.0954  0.0902  0.1169
31121W        W46590  11.550  13.558   0.925 -0.2422 -0.0287 -0.1816
31122W        W46591  16.121  17.381   1.238 -0.2433 -0.0639  0.0934
31123W        W46592   9.785  12.339  10.835 -0.2422  0.0403  0.0536
31124W        W46593  12.478  18.157  11.954  0.0250 -0.2497 -0.2412
31125W        W46594  16.560   8.828   2.880  0.0978  0.0755 -0.2803
31126W        W46595   0.462   8.752   1.613 -0.0151 -0.0308  0.1093
31127W        W46596   6.197   2.696  11.027 -0.1465  0.1446  0.1629
31128W        W46597   0.255   1.379  12.362 -0.1990 -0.0411 -0.0644
31129W        W46598  16.215  15.424   2.482  0.0070  0.0246  0.1176
31130W        W46599   4.989   9.878   5.372 -0.1070  0.1489 -0.0096
31131W        W46600   9.151  10.545   5.264  0.0367 -0.0300 -0.1760
31132W        W46601  10.152   5.884  10.876  0.2287 -0.2145 -0.1467
31133W        W46602   1.098  16.094   1.742  0.1151 -0.2059 -0.1255
31134W        W46603   3.450  11.982   2.697 -0.0250  0.2852 -0.1758
31135W        W46604   2.407  13.021  13.363 -0.1725 -0.3870 -0.2521
31136W        W46605   0.113   8.046  10.586 -0.0652 -0.1814 -0.0483
31137W        W46606  12.657  13.462  16.075 -0.2245  0.0695  0.0076
31138W        W46607   6.050  12.110  11.966 -0.0022 -0.2232  0.1917
31139W        W46608   3.982   9.848  15.305 -0.0910 -0.1099 -0.1034
31140W        W46609   7.187  15.962   1.072  0.0498  0.1425  0.2486
31141W        W46610   3.889   4.416   2.850 -0.2347  0.0493  0.3874
31142W        W46611  15.197  12.227   4.374  0.1151  0.0577 -0.2119
31143W        W46612   8.529   2.388  11.303 -0.2059 -0.0662 -0.1428
31144W        W46613   2.176   5.152  15.483 -0.1430  0.0599  0.0842
31145W        W46614   5.512  10.841   0.227  0.4036  0.3417 -0.0882
31146W        W46615   1.305  11.330   0.823  0.1135  0.0356 -0.0107
31147W        W46616   5.987   3.058  11.879 -0.1609  0.1014  0.0361
31148W        W46617  17.265   5.671   0.963 -0.1096 -0.0796  0.1188
31149W        W46618   5.982   3.502  12.280  0.1431 -0.2455 -0.3963
31150W        W46619   7.833  14.927  15.364  0.1935  0.3244 -0.1941
31151W        W46620   0.406   1.926  15.509  0.1817  0.1715 -0.0069
31152W        W46621  16.031  15.719   0.431 -0.0232 -0.1275 -0.0594
31153W        W46622   3.176   9.020  11.228  0.2970  0.3214  0.0517
31154W        W46623  11.538  10.899   4.375  0.0473 -0.3232  0.3034
31155W        W46624   9.612   4.431   3.744  0.0107  0.4470  0.0143
31156W        W46625   0.273   9.998  14.334  0.0687  0.3654 -0.2217
31157W        W46626   0.735   4.590  10.780  0.1162  0.0851 -0.0582
31158W        W46627   6.538  13.399   5.554  0.3324  0.2524 -0.0172
31159W        W46628   5.959  12.388  15.610 -0.0706 -0.0096  0.0489
31160W        W46629  17.528   8.983  13.818  0.0448 -0.0781 -0.0582
31161W        W46630  15.873   9.161   2.124  0.3285 -0.1261  0.0475
31162W        W46631  15.213  17.774  12.121  0.0548  0.1442 -0.1968
31163W        W46632   7.573   1.002   1.270 -0.3557 -0.0316  0.0856
31164W        W46633  15.578   9.870   1.248 -0.2164  0.3814  0.2981
31165W        W46634  12.305   0.979  11.307  0.1511 -0.0194 -0.1430
31166W        W46635   5.578  15.036   2.334 -0.0268 -0.0426 -0.1768
31167W        W46636   3.148   0.777   4.654  0.0808 -0.0954  0.1618
31168W        W46637  18.061  18.008   2.673  0.3276 -0.0446  0.3568
31169W        W46638   1.302  10.228  12.704  0.0869 -0.0130 -0.0250
31170W        W46639  14.429  16.414   5.409  0.4166  0.0874 -0.2762
31171W        W46640   7.802   7.458  11.521  0.2596 -0.1090  0.1489
31172W        W46641  12.708   3.987  12.489  0.1882  0.3467  0.2332
31173W        W46642  15.567  18.211   0.059 -0.1105  0.0918  0.0565
31174W        W46643   8.061   3.688   2.370  0.0013 -0.2393 -0.3802
31175W        W46644  10.182  15.723   5.682  0.0520  0.1364 -0.1131
31176W        W46645   1.719   1.777   2.971  0.0727 -0.0248  0.2426
31177W        W46646   7.584  16.495   3.205 -0.0722 -0.1775  0.2633
31178W        W46647   4.125  12.257   1.847  0.6079 -0.0087  0.1470
31179W        W46648   0.748   3.992   5.277 -0.1529 -0.2073 -0.1294
31180W        W46649  16.124   7.506  10.911  0.0531  0.1955  0.1828
31181W        W46650   2.846   9.737   0.559  0.1052  0.0137  0.2446
31182W        W46651  17.066   2.096  12.825 -0.1176  0.2358 -0.0480
31183W        W46652  14.873  13.510  13.474 -0.2171 -0.0098  0.2694
31184W        W46653  16.353   7.758   2.818  0.1605  0.0034  0.0308
31185W        W46654   4.811   9.469   3.679 -0.0088  0.1472  0.0803
31186W        W46655  14.816  13.762   5.983  0.0155 -0.3207 -0.1653
31187W        W46656  16.244  12.537  12.820  0.3165 -0.5000 -0.3135
31188W        W46657   9.987   1.939  10.842 -0.2982  0.1967  0.0992
31189W        W46658  11.834   0.174   4.224 -0.1733 -0.1575  0.1137
31190W        W46659  11.703   9.496   3.110  0.1402 -0.2500 -0.0620
31191W        W46660   7.883  17.365  15.613  0.1109  0.1003  0.0138
31192W        W46661  14.731  15.664   4.014 -0.0189  0.2323  0.1385
31193W        W46662  13.095  10.290  13.846  0.0313  0.1261 -0.1247
31194W        W46663   5.058   9.823  13.904 -0.0770 -0.2010 -0.3604
31195W        W46664  14.680  17.615  16.055  0.1165  0.2206  0.2129
31196W        W46665   6.023   4.313   0.213 -0.1475  0.2613 -0.1772
31197W        W46666   0.879  14.354  15.206 -0.2248  0.0506 -0.0147
31198W        W46667   5.920   9.717   2.526 -0.0681 -0.2207 -0.0330
31199W        W46668  12.050  11.010  12.275  0.0046  0.1867 -0.0669
31200W        W46669   2.680   7.741  15.616 -0.0898 -0.2219  0.0638
31201W        W46670   2.971   8.476  12.885 -0.2544 -0.2419  0.0094
31202W        W46671  14.241   5.558  15.997  0.0931 -0.1951  0.1967
31203W        W46672   6.872   7.918   4.896 -0.0907 -0.1062 -0.1212
31204W        W46673  12.341   7.993   2.606 -0.2501  0.3201 -0.0346
31205W        W46674   2.833   6.368  14.101  0.0495  0.0321  0.2836
31206W        W46675   9.126  13.466   1.812 -0.1385  0.0065  0.0869
31207W        W46676   9.849   6.904  14.133  0.2759 -0.0950 -0.1811
31208W        W46677  11.842   5.987  14.859  0.2628  0.3250 -0.2223
31209W        W46678   7.978  14.416   3.640  0.3096  0.1272  0.2162
31210W        W46679   1.526   8.605   4.952 -0.0659 -0.0750 -0.2394
31211W        W46680   1.505  12.768   1.088 -0.0049  0.0575  0.1765
31212W        W46681   8.037  13.019  14.786 -0.0219 -0.2413  0.1831
31213W        W46682  16.595  12.828   4.487  0.1999  0.1824  0.0083
31214W        W46683  16.099   1.233   4.694 -0.3958  0.0063 -0.0759
31215W        W46684   5.376  10.637  14.821 -0.2995 -0.1522  0.2270
31216W        W46685   8.023  14.398   1.375 -0.0269  0.0898 -0.0794
31217W        W46686   1.710   3.321   4.978  0.4232 -0.0531  0.0723
31218W        W46687   1.619   6.749   2.600 -0.2502 -0.0279 -0.1724
31219W        W46688  17.133   7.658  12.395  0.2204 -0.1913 -0.2156
31220W        W46689  13.350   0.942  12.163  0.2400  0.0207 -0.0751
31221W        W46690   7.271   8.835  14.353  0.0362 -0.2025 -0.2238
31222W        W46691   8.126   5.769   1.929 -0.0648 -0.3758 -0.0441
31223W        W46692   0.715   4.067  10.631  0.0743 -0.0299  0.3150
31224W        W46693  11.972  11.753  13.555  0.1491 -0.0567  0.1150
31225W        W46694   5.991   9.698   0.652  0.0127 -0.0035  0.2210
31226W        W46695  15.863   7.900   2.693  0.1040  0.1692  0.0290
31227W        W46696   0.937  10.448   0.143 -0.0881 -0.0711  0.1397
31228W        W46697   9.975  15.962  11.629  0.2383 -0.1389  0.0210
31229W        W46698   7.872   6.812  11.104 -0.2137  0.0145  0.3181
31230W        W46699   5.812   3.715  15.614 -0.1456 -0.0998 -0.3269
31231W        W46700   7.249   7.815  15.644  0.1895 -0.0846 -0.2511
31232W        W46701   3.712  15.201  14.410  0.2906 -0.0972  0.0893
31233W        W46702   9.136   9.772   3.069  0.1634  0.1850  0.1105
31234W        W46703  11.438  18.249   4.494 -0.0467  0.1896  0.2344
31235W        W46704   0.394   9.001  15.893  0.2153 -0.2981 -0.4210
31236W        W46705   7.168   8.771   0.418  0.1859 -0.0449 -0.0756
31237W        W46706  16.241   1.877   4.218 -0.1374 -0.1832  0.0384
31238W        W46707  17.434   8.296   4.440  0.0663  0.2014  0.2260
31239W        W46708   1.015  15.115   1.339  0.1733 -0.0699 -0.1390
31240W        W46709  16.267   2.857  11.980  0.0083 -0.1015 -0.1055
31241W        W46710  13.893  11.328   2.514 -0.2585  0.2535  0.0171
31242W        W46711  11.079   9.036  10.790 -0.1427  0.1890  0.0493
31243W        W46712   9.009   5.219  12.477 -0.0226 -0.0401 -0.0907
31244W        W46713  13.830  11.661   2.970  0.0561 -0.0287 -0.0711
31245W        W46714   8.951  18.093   1.526 -0.1503  0.0473 -0.0583
31246W        W46715   8.761  14.511  16.063 -0.3051 -0.1594 -0.0052
31247W        W46716  16.629  17.504  15.198 -0.2400  0.0687 -0.1014
31248W        W46717   7.539   2.245  14.299 -0.3218 -0.2059  0.2965
31249W        W46718   3.257  13.042  13.439  0.0416  0.0748  0.1624
31250W        W46719  14.138  13.058   5.703 -0.1413 -0.0322 -0.2370
31251W        W46720  11.633   0.097  11.337 -0.1282  0.0093  0.1108
31252W        W46721   0.816   9.957   0.714 -0.1290 -0.2656 -0.0615
31253W        W46722   6.631   3.057   1.116 -0.1019 -0.1595 -0.1346
31254W        W46723   4.385   5.178   3.239 -0.0523 -0.2095  0.2499
31255W        W46724  17.277  14.608   4.921 -0.1684 -0.1658  0.0499
31256W        W46725  15.217  15.619   2.560 -0.1976  0.1159 -0.3862
31257W        W46726   3.451   4.438   0.184  0.0619 -0.1870 -0.2714
31258W        W46727  11.771  11.216  11.956  0.0063  0.2241  0.2634
31259W        W46728  16.477   9.690   4.583 -0.1356 -0.1660 -0.0653
31260W        W46729  15.340   1.320   1.430  0.0289  0.1038  0.0703
31261W        W46730  16.448  11.624   1.923 -0.1155  0.0725  0.1284
31262W        W46731   9.372   6.304  10.407 -0.0765 -0.2180  0.1365
31263W        W46732   6.427  15.752  12.191 -0.2772 -0.2816 -0.0415
31264W        W46733   6.428  16.043  10.806  0.0161  0.1328 -0.0525
31265W        W46734  17.214  10.078   2.147  0.1349  0.1710  0.0661
31266W        W46735  13.809   8.414  15.752 -0.0845 -0.0755  0.1091
31267W        W46736   6.852  11.027   4.101  0.0279 -0.1123 -0.2139
31268W        W46737  12.031   5.724   4.498  0.3853 -0.0971  0.2333
31269W        W46738  10.142   3.202  14.922 -0.0259  0.2829  0.2930
31270W        W46739  13.621  16.966  11.861 -0.0275 -0.4557  0.1157
31271W        W46740  13.696  16.111   0.249 -0.1889 -0.1743 -0.0284
31272W        W46741  18.149   5.786  14.624 -0.0166  0.0409 -0.2115
31273W        W46742   3.549   4.608   4.132  0.2026 -0.0937  0.2639
31274W        W46743   6.294  16.211   1.325  0.2266 -0.0141  0.2713
31275W        W46744  15.378  17.434  14.005  0.2911  0.0568  0.0641
31276W        W46745  11.255   1.512   2.224  0.0404 -0.1197  0.2279
31277W        W46746  13.255   6.070  15.886  0.3927 -0.0543 -0.2002
31278W        W46747  10.269   9.081   4.605  0.0520  0.3460  0.1229
31279W        W46748   9.385   1.028  14.668 -0.1978  0.2309  0.1185
31280W        W46749   4.032  11.210  14.230  0.3100 -0.2365 -0.0147
31281W        W46750   7.693  14.882   2.038  0.1411 -0.0730 -0.1549
31282W        W46751  14.338   1.940   3.081 -0.0228 -0.2653  0.2196
31283W        W46752   0.797  17.103   2.224  0.0285  0.0215 -0.0249
31284W        W46753   7.345   7.400   3.406 -0.0516  0.0010  0.0729
31285W        W46754   1.240   4.497  13.309 -0.1717 -0.0230 -0.2676
31286W        W46755  17.332   2.353  11.530  0.2740  0.0095  0.1335
31287W        W46756  10.199  13.571  12.827 -0.0390 -0.2583 -0.0487
31288W        W46757  12.008  11.817   4.221 -0.1525 -0.2628  0.0820
31289W        W46758   6.348   6.900  14.971  0.0868  0.1391 -0.1298
31290W        W46759   0.882  18.222   5.108 -0.0690  0.3629  0.2827
31291W        W46760  14.232  15.149  13.327 -0.2439 -0.1772 -0.1811
31292W        W46761   9.018   0.365   0.609  0.1931  0.1528  0.0489
31293W        W46762   6.980   3.699   5.578 -0.0244 -0.2444  0.0779
31294W        W46763   1.203   0.074  12.982  0.3718  0.0342 -0.1890
31295W        W46764   5.299   4.959   1.617  0.0482 -0.4016  0.2077
31296W        W46765   0.973   7.161  15.503  0.1784  0.0721 -0.0068
31297W        W46766   6.841  15.977   3.800  0.0913 -0.1994 -0.0467
31298W        W46767   6.930  10.942  14.999 -0.1676  0.0363  0.1509
31299W        W46768   1.953   7.379  15.254  0.0326  0.1244 -0.2056
31300W        W46769  10.470   4.903   5.313 -0.0421  0.1776  0.1137
31301W        W46770   5.633  12.736   3.738 -0.0311  0.1349  0.2307
31302W        W46771   6.238   4.577  13.644 -0.1572  0.0802 -0.0767
31303W        W46772   5.224  13.765  15.673 -0.0912 -0.0657  0.2973
31304W        W46773  16.107  10.452   3.401 -0.1922 -0.3500 -0.0303
31305W        W46774   1.491   4.768   1.744 -0.3175  0.1631  0.0786
31306W        W46775   1.557   8.164  13.415  0.3223  0.1909  0.0417
31307W        W46776  12.080   3.404   4.139 -0.1167 -0.1076  0.4341
31308W        W46777  10.685  12.417   3.592 -0.2785  0.1626 -0.0318
31309W        W46778   5.304  14.023   4.524  0.1126 -0.3767 -0.0602
31310W        W46779  16.565  12.491  13.190 -0.0084  0.1589  0.3512
31311W        W46780  12.117   0.248  14.130  0.3831 -0.4940  0.0967
31312W        W46781  11.023  14.424   1.115  0.0389  0.0405 -0.0186
31313W        W46782  12.690   9.838  11.444  0.2826  0.4607  0.0373
31314W        W46783  13.928  12.111   4.334 -0.4077 -0.0246  0.1096
31315W        W46784   2.530   5.312   3.767  0.1485  0.2278 -0.1114
31316W        W46785  12.184   3.929  10.633 -0.2450 -0.2700  0.1833
31317W        W46786   1.422  16.787   2.468  0.2176 -0.1948 -0.2258
31318W        W46787   9.846   7.431  14.220 -0.0575 -0.0418 -0.1362
31319W        W46788   8.780   0.977   2.343  0.1207 -0.1732  0.2331
31320W        W46789  12.892   6.424   3.206 -0.0216 -0.1860 -0.0069
31321W        W46790  16.201   0.360  12.276 -0.0471  0.3125  0.1551
31322W        W46791  12.053   6.222  10.945  0.1426 -0.1828 -0.0225
31323W        W46792  16.270   0.316   1.407 -0.1895 -0.0140 -0.4302
31324W        W46793   3.518   5.297  13.603  0.3510  0.0294  0.0200
31325W        W46794   6.393   5.683  11.245  0.1058 -0.1545 -0.1036
31326W        W46795   5.958   0.318   0.113  0.1013 -0.0207 -0.1486
31327W        W46796  16.872  11.502   5.215  0.1150  0.2192  0.2155
31328W        W46797   6.384   0.711  10.594 -0.0865  0.1034 -0.1709
31329W        W46798  14.471   3.002  11.435  0.0259 -0.1977 -0.0123
31330W        W46799  10.376  12.872   5.423  0.0002 -0.0772 -0.0238
31331W        W46800  12.175   0.440   1.221 -0.2202 -0.1890 -0.0857
31332W        W46801   5.122   8.694  14.386  0.1250  0.0158  0.1833
31333W        W46802   6.908  15.368   1.487 -0.0452 -0.1361 -0.0912
31334W        W46803   5.132   5.958  10.925  0.1759  0.0136  0.0066
31335W        W46804  17.649   2.430   1.005 -0.1953  0.0009 -0.1559
31336W        W46805   7.076  13.805  13.677 -0.4309  0.5244  0.2363
31337W        W46806   2.673   9.718   3.984  0.0151 -0.2693  0.1181
31338W        W46807  17.627   3.367  10.754  0.1808  0.0393  0.0516
31339W        W46808  16.307  10.374   1.233  0.2392 -0.3920  0.0474
31340W        W46809  11.364   2.262  15.902 -0.0354  0.0244 -0.0097
31341W        W46810   9.894   1.861  12.319 -0.0537  0.0264 -0.0902
31342W        W46811  14.669   2.344   3.675  0.0020  0.1571 -0.0150
31343W        W46812   9.237  16.878   2.897 -0.0772 -0.3582 -0.0655
31344W        W46813  13.805   5.020   0.436  0.1385 -0.3017  0.1964
31345W        W46814   1.192   2.030   5.808  0.0370 -0.0814 -0.0012
31346W        W46815   2.370   5.585   0.713  0.1560  0.1403 -0.2556
31347W        W46816  15.429  15.278  11.316  0.2615  0.2521  0.2255
31348W        W46817  13.243  15.874   0.167 -0.1059  0.3722  0.0461
31349W        W46818   2.472   4.537  14.766  0.1210 -0.0518  0.4362
31350W        W46819  14.770   4.934   3.053  0.2298  0.2290  0.0172
31351W        W46820   7.564   9.583  12.707 -0.2292 -0.1618  0.0231
31352W        W46821  16.786  17.297  11.670 -0.0356  0.1732  0.3196
31353W        W46822   0.941  13.156  15.300  0.0624  0.2527 -0.1182
31354W        W46823  10.717   9.076  15.600  0.3080 -0.0097  0.1738
31355W        W46824  10.994  16.568  13.852  0.0910  0.1177  0.0607
31356W        W46825   5.670   0.007   4.505  0.0070  0.1135 -0.1240
31357W        W46826  13.309   6.148   4.129  0.4515 -0.3777  0.1417
31358W        W46827   1.621  13.637   2.714  0.2520  0.0107  0.0602
31359W        W46828   6.419  11.383  14.851 -0.0297 -0.0487  0.1584
31360W        W46829  11.068  16.799   5.964  0.2953  0.2441 -0.0027
31361W        W46830   5.496   0.962   5.499 -0.2952  0.0721 -0.0186
31362W        W46831  16.945   6.241  13.886 -0.0256  0.1761  0.0629
31363W        W46832  11.901   5.424  10.275  0.3194  0.3431  0.2434
31364W        W46833   4.732  14.371  12.056 -0.0067  0.2809  0.0019
31365W        W46834   0.603   4.863   2.490  0.3627  0.0541  0.2294
31366W        W46835   9.060   5.026   3.265 -0.4606  0.0519  0.0187
31367W        W46836  18.151  17.018  13.277 -0.1605  0.2150  0.0975
31368W        W46837   4.159  13.718   4.751 -0.2621  0.0631  0.1957
31369W        W46838   3.470   2.262   0.312 -0.1683  0.0767  0.0486
31370W        W46839  11.941  13.042   4.977  0.0046  0.2197  0.0862
31371W        W46840   1.581   6.255   1.213 -0.1491 -0.1116 -0.0676
31372W        W46841   4.002   1.414   0.115  0.0661 -0.0082  0.0332
31373W        W46842  15.350   5.001   5.573 -0.1009 -0.1035  0.0139
31374W        W46843  15.435  15.862  14.082 -0.3041  0.0192  0.0515
31375W        W46844   2.209   9.299  13.691  0.1681 -0.2436 -0.0299
31376W        W46845   8.827   2.143  13.137  0.1897 -0.3262 -0.0054
31377W        W46846  14.150   2.438   3.827  0.0745  0.0789 -0.3593
31378W        W46847   0.438  12.060  14.821 -0.0063 -0.0902  0.1861
31379W        W46848  13.802   7.679   6.353  0.2992  0.0490 -0.0580
31380W        W46849  12.194   0.065   1.710  0.0971  0.1165  0.0042
31381W        W46850  17.623  13.094   3.635  0.0629  0.4938 -0.1204
31382W        W46851   1.017   4.260   2.084  0.0339  0.0602  0.1434
31383W        W46852   9.057  10.589   1.074 -0.2811 -0.0345 -0.1870
31384W        W46853   4.921  17.975   1.470  0.2557  0.1721 -0.0706
31385W        W46854   1.171  11.348  13.773 -0.1792 -0.0383 -0.0145
31386W        W46855  14.246  10.252  15.673 -0.0978  0.0635 -0.2090
31387W        W46856  12.196  11.494   2.623  0.4432  0.0022 -0.0449
31388W        W46857  14.346   0.420   4.229  0.0385 -0.0615 -0.1650
31389W        W46858   7.515   2.910  15.124 -0.4449  0.3522 -0.1287
31390W        W46859  13.358  18.171   5.003  0.1591  0.0073 -0.0967
31391W        W46860   3.748  16.638   4.853 -0.0999  0.0953  0.2287
31392W        W46861   3.026   9.455   3.553 -0.0248  0.0527  0.2774
31393W        W46862   7.377  17.496   2.983  0.0362  0.3566 -0.1958
31394W        W46863  17.568  13.677   4.115  0.1633  0.2483  0.0318
31395W        W46864  10.045   3.257  13.207  0.2345 -0.0724 -0.1499
31396W        W46865  11.107  11.830  14.096 -0.1789 -0.0936  0.1340
31397W        W46866  17.774   3.315  11.728  0.2345  0.0087 -0.0347
31398W        W46867  16.487  15.661   4.025 -0.1693 -0.1248 -0.1326
31399W        W46868   8.959   7.254  13.795  0.1008 -0.1691 -0.0678
31400W        W46869  15.877   4.265   0.836 -0.1321  0.4952 -0.0430
31401W        W46870   0.161  16.837   5.531 -0.0691 -0.0449  0.2367
31402W        W46871   8.392  10.861   3.240  0.3097 -0.3825 -0.0205
31403W        W46872   8.822  14.877  11.303  0.2722  0.2279 -0.0594
31404W        W46873  13.826  17.654   4.263 -0.3461  0.1550 -0.1001
31405W        W46874   6.342  10.554  11.000  0.0350 -0.2469  0.0077
31406W        W46875  13.856   2.493  15.791  0.2048 -0.0323  0.2292
31407W        W46876  13.345   8.808   4.023  0.0501 -0.4199 -0.0013
31408W        W46877   3.785   5.912   4.420 -0.3197  0.2543 -0.0678
31409W        W46878  11.024  15.333  15.138  0.0045  0.0761  0.0408
31410W        W46879  14.030   1.888  12.717  0.1049 -0.0248 -0.2677
31411W        W46880   3.252   4.812  13.742  0.1908  0.0659  0.3323
31412W        W46881  17.491  10.012  13.058  0.1000 -0.1468  0.1178
31413W        W46882  15.675   1.241  13.331  0.2539  0.2038  0.2052
31414W        W46883   1.130   5.823   0.140 -0.1831  0.2922  0.0171
31415W        W46884   1.200  12.224   4.880  0.0509 -0.3642 -0.0432
31416W        W46885  15.399   5.062   4.563 -0.0696 -0.1593  0.2064
31417W        W46886  14.821   4.558  12.187 -0.2303  0.2141 -0.0695
31418W        W46887   1.371  16.775   0.003 -0.0987  0.1186  0.0758
31419W        W46888  17.700  17.548  11.988 -0.3025 -0.0528 -0.3640
31420W        W46889  10.961   3.433   5.149  0.1716 -0.2701  0.1942
31421W        W46890  17.708   1.044   4.939 -0.2183  0.1289  0.0231
31422W        W46891   6.049   4.983  11.647 -0.0961 -0.1284  0.1398
31423W        W46892   5.492   7.395  13.238  0.1047  0.0485  0.0516
31424W        W46893   5.357   3.380   3.696  0.0531  0.3038 -0.1871
31425W        W46894   1.656  13.817  15.401  0.1163 -0.0909  0.2627
31426W        W46895  16.904  15.327   1.063 -0.2209  0.0412  0.4175
31427W        W46896   2.729   0.837   4.335 -0.0538  0.0219  0.1275
31428W        W46897   3.503   0.068   5.690  0.0151  0.0308  0.0542
31429W        W46898  11.429   9.845   3.353 -0.0067  0.0844 -0.1347
31430W        W46899  13.665  10.271   2.673  0.0085 -0.2490 -0.0366
31431W        W46900   8.029  10.671  14.200  0.0996  0.0409 -0.1235
31432W        W46901   0.755   8.960   3.754 -0.0723  0.0889 -0.2049
31433W        W46902  17.398   4.201  11.430  0.1051 -0.2560  0.0636
31434W        W46903  10.453   3.311  13.493  0.2085 -0.4551 -0.0649
31435W        W46904  14.930  10.969   2.141  0.6117  0.5764 -0.0521
31436W        W46905   3.413   7.840  11.780  0.2784  0.1225 -0.2310
31437W        W46906  11.752  17.076   3.917  0.1061  0.0601 -0.1132
31438W        W46907   6.544   6.062  14.172  0.1600  0.0761  0.0456
31439W        W46908  12.253  15.553  14.052  0.1766 -0.1650  0.0435
31440W        W46909   6.335   3.288   1.440  0.1496  0.1087 -0.2300
31441W        W46910  11.726  17.790   0.404  0.0762  0.1230 -0.3270
31442W        W46911   4.008   0.940   0.269  0.0525 -0.4562  0.0133
31443W        W46912   5.083   3.755  11.847  0.2177  0.0627  0.2766
31444W        W46913   3.630  17.608   4.550  0.0214  0.0388 -0.1220
31445W        W46914  12.380  15.455   5.225 -0.0406  0.1611 -0.0662
31446W        W46915   2.065   3.121  11.212 -0.0963 -0.1707  0.2225
31447W        W46916  13.291   5.919   2.398 -0.4427  0.1349 -0.1006
31448W        W46917  17.372   0.582  12.521  0.1635 -0.1421 -0.0644
31449W        W46918   6.740   3.084   4.089  0.2905  0.1278 -0.3796
31450W        W46919  14.545   0.337   1.529  0.1120  0.2292 -0.1304
31451W        W46920  18.223   1.226  12.758 -0.0866 -0.1639 -0.3067
31452W        W46921   2.149   5.449   1.144  0.0544 -0.1084 -0.1596
31453W        W46922   4.008  12.072  11.979  0.2472  0.0851 -0.1631
31454W        W46923   8.451  15.039   2.363  0.0467  0.0571 -0.1013
31455W        W46924   6.332  13.810   5.602  0.1652 -0.3609 -0.0491
31456W        W46925  15.789   3.268  15.920 -0.0613 -0.1090 -0.4280
31457W        W46926   1.589   7.669  13.486 -0.0296  0.1178  0.0235
31458W        W46927   6.078   1.154   1.881  0.0271  0.1066  0.2384
31459W        W46928  16.819  11.363  13.344 -0.1537  0.1246 -0.1435
31460W        W46929   5.799   3.508   3.953  0.0175  0.0681 -0.1118
31461W        W46930   7.789   8.092  13.044  0.0932 -0.1114  0.4911
31462W        W46931   7.110   6.864   4.973  0.2658  0.0070 -0.0098
31463W        W46932  15.345  16.121   5.206  0.1066 -0.2485  0.2448
31464W        W46933   9.668   6.561  12.750 -0.2037 -0.0114  0.3422
31465W        W46934   9.706  16.796  12.177  0.3633  0.1341  0.2398
31466W        W46935   3.335  16.032  12.004  0.2219  0.0065  0.2624
31467W        W46936   1.239   1.968   3.814 -0.1615  0.0192  0.0873
31468W        W46937  15.093   9.158  13.906 -0.2129 -0.0337  0.0968
31469W        W46938  15.205  13.178   3.353 -0.0136 -0.1082 -0.0091
31470W        W46939   3.017   2.804  13.197  0.3337 -0.0582 -0.1583
31471W        W46940  17.622   1.195   3.310  0.0427  0.0085 -0.0731
31472W        W46941   8.866  12.975  15.208  0.1751 -0.1243 -0.0510
31473W        W46942  10.524   8.550  15.684  0.2765 -0.1453  0.0654
31474W        W46943  10.597   7.350   3.491 -0.3544 -0.1959  0.1117
31475W        W46944   1.000   4.535  11.912 -0.1784 -0.1668  0.0417
31476W        W46945  17.247  10.772   5.698  0.3286 -0.1740 -0.0314
31477W        W46946   9.542  10.042   0.818 -0.2177 -0.0159 -0.0269
31478W        W46947  18.033   9.598  11.034 -0.2938  0.1956  0.1205
31479W        W46948   7.222  14.753  12.169 -0.0107 -0.1530 -0.1696
31480W        W46949   7.937   3.092  15.322 -0.1524 -0.1416 -0.2166
31481W        W46950   7.097  15.882  11.373  0.1540  0.1366 -0.0911
31482W        W46951  16.926   3.367   3.489  0.0850 -0.0359 -0.2848
31483W        W46952  14.994   4.237   1.605  0.4450  0.0662  0.0482
31484W        W46953  14.114   9.265   5.896 -0.1946 -0.0662 -0.0240
31485W        W46954  16.478  16.941  13.535 -0.0003  0.2444 -0.1024
31486W        W46955   0.231   7.818  13.097 -0.0585  0.0393  0.1746
31487W        W46956  16.136  15.762  13.913  0.0508 -0.0843  0.0431
31488W        W46957   6.760  11.126  10.881 -0.4207  0.0221 -0.2938
31489W        W46958  13.369  13.540  15.881 -0.1693  0.0644 -0.3552
31490W        W46959  10.389   3.780   3.691  0.0815  0.3434 -0.0434
31491W        W46960   1.900  16.643  14.464  0.4141 -0.0521  0.0253
31492W        W46961  16.205  13.441   4.137  0.1620  0.2445 -0.1890
31493W        W46962   5.566   0.313  15.935 -0.0444 -0.2065  0.0619
31494W        W46963   7.499   6.704  15.911 -0.2184 -0.2001  0.2439
31495W        W46964  17.175  15.622  13.123  0.1146 -0.1250  0.0020
31496W        W46965  15.181  11.654  13.822 -0.0827 -0.0937  0.0237
31497W        W46966  14.353   3.018  10.863 -0.0917  0.1660 -0.0554
31498W        W46967   1.547   7.817  14.384  0.0271 -0.0173  0.0028
31499W        W46968  15.793  12.057   1.012 -0.2467 -0.1001  0.4801
31500W        W46969   8.946  18.220   2.491 -0.0735  0.1996  0.1689
31501W        W46970  16.590  11.303  14.523  0.0806 -0.1514  0.1314
31502W        W46971   7.835  11.119   1.118  0.1767  0.0758 -0.2501
31503W        W46972   0.637  13.606   1.252 -0.1477 -0.1667  0.0638
31504W        W46973   7.133  12.392   1.673  0.1022  0.0279  0.2151
31505W        W46974   7.307  12.404  14.306  0.1845 -0.2119  0.0387
31506W        W46975   2.655  12.845   1.966  0.0857  0.0866 -0.0218
31507W        W46976   5.051  10.495  12.901  0.0227 -0.2565 -0.0715
31508W        W46977   6.909  15.743   4.365 -0.0122 -0.0554  0.0743
31509W        W46978   5.248   5.223   2.774 -0.1049  0.1526  0.0348
31510W        W46979  10.331  13.425   3.765  0.4104 -0.0700 -0.1964
31511W        W46980  16.668  12.355   4.326  0.3142  0.4224 -0.1400
31512W        W46981   6.694  15.887   2.583  0.0614  0.1012  0.0759
31513W        W46982  16.394   3.954   4.089  0.2319  0.2113  0.0551
31514W        W46983  14.019   5.021  12.977  0.0329  0.2078  0.0820
31515W        W46984   4.279   1.826  13.901 -0.1161 -0.2308 -0.3017
31516W        W46985   0.274  14.493   3.666  0.1539 -0.3288 -0.1596
31517W        W46986   9.620   3.170   5.755 -0.1037  0.1729  0.0116
31518W        W46987  16.747  11.969   3.076 -0.2142  0.2183  0.3879
31519W        W46988  11.094  10.387  15.435  0.0876 -0.0515  0.0369
31520W        W46989   6.372   7.627   5.549 -0.0245 -0.2078 -0.1992
31521W        W46990  16.842   8.673   5.576  0.0650 -0.1024 -0.1280
31522W        W46991  13.768   6.459  11.356  0.1375  0.0126  0.1270
31523W        W46992   1.005   3.908  15.785  0.0855  0.0021 -0.2660
31524W        W46993  12.012   2.765   5.796  0.0502 -0.0435  0.2537
31525W        W46994  12.104   3.708   5.000 -0.0571 -0.1479  0.1497
31526W        W46995  17.219  13.619  11.314  0.3068 -0.1152  0.0507
31527W        W46996  10.383   8.372   2.961 -0.1961  0.0553 -0.0017
31528W        W46997  11.515  17.409   4.155 -0.3141 -0.1363  0.1043
31529W        W46998   6.882   3.882  11.430  0.0982 -0.1202  0.1298
31530W        W46999  11.314  14.188  14.996 -0.0158  0.0499 -0.0147
31531W        W47000  17.717  15.585  15.680  0.0807 -0.2438 -0.1320
31532W        W47001   7.631   2.904   3.826  0.0621 -0.2362  0.0342
31533W        W47002   7.639   2.104   4.165  0.1240  0.0488 -0.2872
31534W        W47003  17.081  17.720  15.135 -0.0366 -0.1138  0.0300
31535W        W47004   4.966   5.240  15.902 -0.0933  0.2107  0.0443
31536W        W47005   7.140  13.436   0.193 -0.1105  0.0150  0.2411
31537W        W47006   1.999   7.302   0.704  0.0797  0.0491 -0.2184
31538W        W47007   4.581   6.428   2.339  0.2132  0.0083 -0.1162
31539W        W47008  15.933  11.463  13.476  0.1463 -0.2547  0.0007
31540W        W47009   2.208   7.754  16.009  0.3275 -0.1184  0.1032
31541W        W47010   6.865  12.057   0.802 -0.1726 -0.0077  0.1503
31542W        W47011  16.973  16.522   1.514  0.3063  0.1540 -0.2785
31543W        W47012  12.307   0.298   3.189  0.1200 -0.0980 -0.1580
31544W        W47013   7.516   7.994  12.157  0.2441  0.1416  0.1693
31545W        W47014   5.686  16.398  10.144  0.3308  0.0345 -0.0642
31546W        W47015   1.521   1.634  13.959 -0.2401 -0.1841  0.3672
31547W        W47016   2.192   0.540  14.569  0.2670  0.0406 -0.0497
31548W        W47017  14.081  16.975   0.025  0.2364 -0.1179  0.0512
31549W        W47018   2.254  11.039  15.985  0.1330 -0.2110  0.0387
31550W        W47019   6.037   4.622   2.721  0.2723 -0.1075 -0.0987
31551W        W47020   0.717   9.838   5.692 -0.0498  0.1839  0.0046
31552W        W47021   9.081   0.086  12.788 -0.3702  0.1053 -0.0762
31553W        W47022   7.769  13.049   2.230 -0.0500  0.3743  0.1775
31554W        W47023  12.756   6.022  12.940 -0.0175 -0.4552  0.0316
31555W        W47024  17.865   5.479   6.418 -0.0171 -0.2921 -0.0590
31556W        W47025   2.534   9.397   1.407  0.2637 -0.0391 -0.1928
31557W        W47026  18.054   2.702   4.934  0.0129 -0.2255  0.0566
31558W        W47027   5.002  17.796   4.143 -0.0491 -0.2931  0.1926
31559W        W47028   7.045   2.264   4.219 -0.2989  0.2069 -0.0210
31560W        W47029   9.936   2.829  14.685 -0.0993  0.1396 -0.1697
31561W        W47030  15.568  15.626   1.292  0.1450  0.1225  0.1549
31562W        W47031  18.214  12.305  11.211  0.0073 -0.4909 -0.0560
31563W        W47032   5.636   7.051   1.552  0.0804  0.0578  0.0629
31564W        W47033   3.652   0.107  13.730  0.0351 -0.0571 -0.2737
31565W        W47034  10.119   4.975   2.398  0.1383  0.0376 -0.0541
31566W        W47035   5.962   8.440  13.110 -0.0836  0.0330  0.2266
31567W        W47036  10.451  13.332  12.390  0.4100 -0.3028  0.2778
31568W        W47037   5.062   7.247   2.273  0.0337  0.1253 -0.0358
31569W        W47038   2.866   1.605   0.263  0.2317 -0.1068 -0.0881
31570W        W47039   4.196  13.637   5.562 -0.1851 -0.2103  0.1148
31571W        W47040   7.451   1.125  11.024  0.1132 -0.0873  0.2799
31572W        W47041  10.550  16.531   2.915 -0.0441  0.0351  0.1656
31573W        W47042   7.784  12.114   4.370  0.2811 -0.0796 -0.0650
31574W        W47043   5.753   5.989  15.946 -0.5635  0.2079 -0.0146
31575W        W47044  15.448  14.921  13.540  0.0279  0.3115  0.1984
31576W        W47045   1.827  18.123  11.317  0.1269 -0.0550 -0.1722
31577W        W47046  16.397   0.741  12.635  0.2588 -0.2436  0.0999
31578W        W47047   6.278   0.785  11.219 -0.0042  0.0422  0.2159
31579W        W47048  17.718   8.260  10.976  0.1020  0.2730  0.0621
31580W        W47049  16.458  15.793  14.362 -0.0750  0.0168 -0.1288
31581W        W47050   5.730  16.626  15.556  0.1531  0.1008  0.0882
31582W        W47051  10.543  13.405  15.836  0.0416  0.1888  0.0730
31583W        W47052   5.998  12.165  13.189  0.0230 -0.0534 -0.1143
31584W        W47053   5.179   8.329  13.040 -0.1772 -0.2697 -0.1466
31585W        W47054   2.200  16.299   4.698  0.0943  0.1767  0.3807
31586W        W47055   9.152   2.961   4.309  0.2743 -0.1022 -0.2425
31587W        W47056   6.162   8.972  16.102 -0.1633  0.2438  0.3179
31588W        W47057   7.316  17.242   0.212  0.0154  0.0829 -0.1291
31589W        W47058  13.603   3.178   5.650 -0.0421 -0.2093  0.0045
31590W        W47059   5.836  10.290  11.429  0.2323 -0.1407  0.1676
31591W        W47060   7.058  12.446   3.998  0.0711 -0.0929 -0.0291
31592W        W47061  10.149   6.161  12.406  0.2883  0.1731 -0.4499
31593W        W47062   4.982  12.194  12.251 -0.0405  0.2420  0.1163
31594W        W47063  18.047   9.176  12.978  0.0721 -0.1704 -0.1899
31595W        W47064   1.254   1.757   2.694  0.1138 -0.1374 -0.1510
31596W        W47065  14.562   7.286   1.421 -0.2137 -0.0185  0.1043
31597W        W47066  17.790   1.046  15.383 -0.1088  0.2189  0.2025
31598W        W47067  14.190   5.583   5.535 -0.2435 -0.2361 -0.1284
31599W        W47068  10.077  11.099  16.075 -0.0247 -0.1825  0.0387
31600W        W47069   2.801  13.968   5.419  0.2552  0.1708  0.1929
31601W        W47070  10.290   1.611   3.200 -0.2239 -0.1726  0.1354
31602W        W47071  12.016   1.000  11.752  0.1769  0.1217  0.1175
31603W        W47072  11.362   7.035  12.366  0.1954 -0.1733 -0.0997
31604W        W47073  12.146   2.013   1.429  0.3177 -0.0514  0.2525
31605W        W47074   9.411   5.033  13.304 -0.1308 -0.2665 -0.0669
31606W        W47075   1.783  16.674   3.914  0.1939 -0.0863  0.1975
31607W        W47076  16.834   1.969   0.724  0.3821  0.3755 -0.0121
31608W        W47077  15.372   2.500   3.062 -0.0414 -0.0349  0.1237
31609W        W47078  18.055  11.808  12.010 -0.3347 -0.4668 -0.0315
31610W        W47079   2.356  10.548   3.562 -0.2841 -0.3041 -0.0102
31611W        W47080   5.320  17.245  15.004  0.2959  0.1369  0.2136
31612W        W47081   3.618   2.378   5.580  0.3227 -0.0559  0.0196
31613W        W47082   3.005   2.871  15.182 -0.1507  0.3502  0.3034
31614W        W47083   1.563  10.346   3.541 -0.1223 -0.1292 -0.0769
31615W        W47084  13.006   1.100   1.991 -0.1181 -0.0779 -0.1717
31616W        W47085  12.618   0.298   2.196  0.2895  0.1777  0.0979
31617W        W47086   2.295  17.106  12.903 -0.1418 -0.2589 -0.1771
31618W        W47087   4.516   6.198   2.758  0.0024  0.3661 -0.1115
31619W        W47088   4.751  18.256   4.050  0.1778  0.2018 -0.1295
31620W        W47089  18.129  10.643   2.575  0.1474  0.1430  0.0169
31621W        W47090  16.190  11.309   0.233  0.0251 -0.0378 -0.1888
31622W        W47091   1.013  11.884   4.268  0.0529 -0.2855  0.0160
31623W        W47092   6.148  16.315  12.780 -0.1014  0.4185  0.3444
31624W        W47093  11.245   5.954  15.611  0.1337 -0.0289 -0.3697
31625W        W47094  12.238  14.937   4.960 -0.1438  0.0861  0.1252
31626W        W47095   8.317   0.024  13.997  0.1667  0.0739 -0.2399
31627W        W47096  13.546   4.253   3.705 -0.1422  0.0449 -0.2001
31628W        W47097   0.245   5.506   1.823 -0.1847 -0.3137 -0.0841
31629W        W47098  16.557   5.757   5.972 -0.1406 -0.0622  0.0519
31630W        W47099  10.409   6.710  15.226 -0.0593  0.1696  0.3237
31631W        W47100  15.707   5.348  12.215  0.1980  0.0278 -0.0022
31632W        W47101  17.220  12.270   4.102  0.0308  0.0993  0.0845
31633W        W47102   8.494   3.184   3.803  0.0809 -0.1735 -0.0243
31634W        W47103  16.528  16.499   0.665 -0.0386  0.1573  0.0757
31635W        W47104   5.511  17.379  10.322  0.1335 -0.0455  0.0715
31636W        W47105  17.049  18.040  12.240 -0.0980 -0.2737 -0.0612
31637W        W47106   1.424   0.707  14.228 -0.0384  0.0052 -0.0893
31638W        W47107  16.671   2.457   4.985  0.1969  0.2378  0.0881
31639W        W47108  17.718   8.133  14.720  0.0706 -0.0355 -0.1262
31640W        W47109  11.615  12.086  13.940 -0.1116  0.3025  0.0559
31641W        W47110  10.330  15.407   4.429 -0.0674 -0.2517  0.0044
31642W        W47111  12.172  16.869  15.183 -0.0163  0.0627 -0.3378
31643W        W47112   6.825  10.833  16.037  0.1914 -0.1350 -0.3610
31644W        W47113   0.828   0.304  12.068  0.1831  0.0854 -0.0451
31645W        W47114   5.617   2.259  10.371  0.1779  0.2867 -0.1740
31646W        W47115   3.363  17.630   0.794 -0.0211  0.0653  0.1446
31647W        W47116   1.982   7.599   0.321 -0.0848 -0.1021  0.1184
31648W        W47117   7.188  15.884  15.333  0.1395 -0.3268 -0.0689
31649W        W47118   8.200  10.863   1.413  0.2739  0.0876 -0.3095
31650W        W47119  15.476  14.000  13.628  0.1916  0.0823  0.3781
31651W        W47120   9.569   7.630   1.650 -0.0474  0.0107  0.0994
31652W        W47121  17.906  13.809  14.264 -0.1240  0.0136  0.1156
31653W        W47122   9.523   3.725   1.346  0.0512 -0.1448  0.0721
31654W        W47123   8.013   4.322   0.788  0.0721 -0.0671  0.0493
31655W        W47124  17.793   7.078  15.345 -0.0135  0.3004  0.0116
31656W        W47125  11.768  11.141  16.076  0.0534  0.0795 -0.1603
31657W        W47126  10.594  17.460  15.353  0.1297 -0.1588 -0.2428
31658W        W47127  10.806   9.321   0.412 -0.1851  0.1398 -0.4051
31659W        W47128   8.000   6.408  15.690  0.0358 -0.0762 -0.2222
31660W        W47129   5.920   7.013   1.130  0.1573  0.0722  0.0114
31661W        W47130   8.594   2.361   3.889 -0.0606 -0.0452  0.2020
31662W        W47131   9.295  15.663   4.966  0.1292  0.0808  0.0003
31663W        W47132   1.536   0.003   2.818 -0.1346 -0.0624  0.5499
31664W        W47133   7.395  16.675  12.076  0.0957  0.1708 -0.0625
31665W        W47134   9.621   6.611   0.243 -0.1351  0.3446 -0.0197
31666W        W47135  10.405   2.730  15.061  0.1238 -0.1914 -0.0964
31667W        W47136  10.443   4.393  12.306  0.1043  0.3101  0.2627
31668W        W47137   7.468   9.591   1.111 -0.1231 -0.0620  0.2779
31669W        W47138  12.484  17.643  15.790 -0.1729  0.2627  0.0961
31670W        W47139   2.499  16.014   4.310  0.2370  0.2058  0.0413
31671W        W47140   0.828  11.484   2.374 -0.0686 -0.0191 -0.2288
31672W        W47141  12.292   3.668   5.507 -0.2537 -0.3235 -0.2051
31673W        W47142  10.203  13.571   3.233  0.1811 -0.1794 -0.0585
31674W        W47143  17.537  12.047   1.463  0.2565  0.1004  0.1824
31675W        W47144  11.088  11.327  12.701 -0.0621 -0.2070  0.1793
31676W        W47145   1.257  12.607  10.745  0.0167 -0.2381 -0.2715
31677W        W47146   5.704   4.657  13.595 -0.1563  0.0387 -0.2070
31678W        W47147   2.107   0.143   2.140 -0.0792 -0.0308 -0.0607
31679W        W47148   8.241  11.415   2.864 -0.1464  0.2124  0.1851
31680W        W47149   8.316   1.057  11.351  0.0615 -0.0544 -0.0018
31681W        W47150  10.065  11.716   5.477 -0.0182  0.1553 -0.2174
31682W        W47151   4.488  10.538   2.152  0.1492  0.2327  0.4937
31683W        W47152  15.666   6.313  11.395 -0.0882 -0.1411  0.0452
31684W        W47153  10.351   7.724   0.418 -0.1060  0.0942  0.0898
31685W        W47154  11.246  13.568  14.361  0.3796  0.0733  0.1160
31686W        W47155   8.805  11.354  14.333  0.1442 -0.0777 -0.2410
31687W        W47156  17.522  17.893   5.813 -0.1855 -0.1272  0.3148
31688W        W47157   2.852  16.751  13.920 -0.1821  0.1231 -0.2469
31689W        W47158  17.448   8.405  10.577 -0.0266 -0.0092 -0.0724
31690W        W47159   0.492   0.371  11.696  0.0636 -0.1794  0.1891
31691W        W47160  11.971   5.330  13.549 -0.1671  0.0476  0.0269
31692W        W47161   2.397  15.267   1.941 -0.0591  0.0656  0.0718
31693W        W47162  18.165  10.660   1.185  0.2641 -0.0085 -0.1151
31694W        W47163   5.201  13.175   5.093 -0.1188  0.0291 -0.3469
31695W        W47164   8.239  17.634   3.846 -0.1702  0.3227  0.0377
31696W        W47165  18.254   6.731  12.458 -0.2690 -0.1732 -0.0661
31697W        W47166  12.031  15.168   3.557  0.2040 -0.1134 -0.3221
31698W        W47167  17.462   2.178  12.475  0.0316 -0.1629  0.1296
31699W        W47168  13.441  16.392   4.967 -0.1615  0.1588  0.4953
31700W        W47169   1.094   3.611  12.173  0.3048 -0.0390  0.0059
31701W        W47170  11.336   8.987  11.199  0.3221 -0.2363 -0.0244
31702W        W47171   7.881   7.421   3.318 -0.0645  0.0509 -0.2473
31703W        W47172  10.554   5.562   4.542 -0.1850  0.2758 -0.1990
31704W        W47173  14.271   9.273  13.640  0.1629 -0.0214 -0.0209
31705W        W47174   7.364   7.876  13.323  0.1319  0.1729 -0.2176
31706W        W47175   0.065   7.068   2.236  0.1824 -0.2395  0.1491
31707W        W47176  10.459  10.687  12.848  0.2280  0.0959 -0.0471
31708W        W47177   7.364   6.222   2.782 -0.0633 -0.0568 -0.0241
31709W        W47178   1.784   4.908  14.001  0.2335  0.0399 -0.1116
31710W        W47179   8.878  11.585   3.617 -0.0783 -0.1714  0.2411
31711W        W47180   8.755  10.474   1.898  0.0422  0.3470 -0.2993
31712W        W47181   6.307   3.910   1.197  0.0095  0.0547 -0.0754
31713W        W47182  15.543  12.655  10.987 -0.1734  0.2259 -0.1793
31714W        W47183   2.733   3.286   0.142  0.1241 -0.0855  0.0406
31715W        W47184   5.962  15.589   5.373 -0.2246 -0.0460  0.2698
31716W        W47185  11.554  15.744   3.309  0.0949 -0.0506  0.1391
31717W        W47186  14.716   3.961  15.242 -0.2103  0.0296 -0.3362
31718W        W47187  14.446  12.973   5.234  0.0209 -0.2503 -0.1912
31719W        W47188  14.775   4.158   4.333 -0.0065  0.1302 -0.1350
31720W        W47189   2.246   3.307  12.500  0.0179 -0.0127  0.2211
31721W        W47190   5.407   1.394  11.550  0.0455  0.0043  0.0487
31722W        W47191   6.979   4.363   1.585  0.1703  0.1708  0.1421
31723W        W47192   4.287   0.426   4.128  0.0399 -0.1394  0.1428
31724W        W47193   1.833   8.225   1.887  0.1556  0.3108 -0.1769
31725W        W47194  10.596  13.631  11.978 -0.1616 -0.1086  0.0880
31726W        W47195  11.907   4.555  12.309 -0.0748  0.0142 -0.3309
31727W        W47196  13.601   6.481  14.606 -0.1704 -0.1551  0.5836
31728W        W47197  11.042  12.885   1.195  0.6066  0.0227  0.0345
31729W        W47198  16.378   8.383   1.915 -0.0050 -0.0455  0.0572
31730W        W47199   9.829  17.726  15.915  0.1428 -0.1080  0.1699
31731W        W47200   7.152   0.823  11.223 -0.0667  0.4398  0.2747
31732W        W47201   7.891   6.964  14.520  0.2013  0.0563  0.1554
31733W        W47202  10.857   1.153  10.885 -0.2537 -0.1166 -0.0956
31734W        W47203  10.185  15.795  14.731 -0.0432  0.3351 -0.2601
31735W        W47204   7.640   2.735  15.978  0.1019 -0.1471 -0.3775
31736W        W47205  12.788  11.792  11.557  0.1150 -0.0934  0.2652
31737W        W47206  12.451  14.639   3.846 -0.1053  0.1205  0.0443
31738W        W47207   2.401  13.513  13.365 -0.3006 -0.1146  0.0320
31739W        W47208  14.187   4.069   0.021 -0.0214 -0.0762  0.1156
31740W        W47209  14.392  12.230  13.942 -0.1296 -0.0870 -0.0802
31741W        W47210  13.851   4.625  13.279  0.1479  0.0202  0.1533
31742W        W47211   3.942   5.245  14.309 -0.1887  0.0940  0.1028
31743W        W47212   6.928  13.286   3.954  0.1111 -0.0978 -0.0194
31744W        W47213  17.522  11.646   5.815 -0.3330 -0.1354 -0.0882
31745W        W47214  14.328   0.435   2.765  0.0460 -0.0676 -0.3557
31746W        W47215  10.985   1.428  15.502 -0.1745  0.2487  0.1678
31747W        W47216   6.298   0.392  14.292  0.1204  0.4278  0.0247
31748W        W47217   5.266   5.828   1.865  0.0784  0.1784  0.1775
31749W        W47218  14.605  15.985   4.653 -0.4014 -0.0751  0.1288
31750W        W47219  13.295   9.369   0.429  0.1729 -0.0835 -0.1257
31751W        W47220  14.723   7.543   5.864 -0.1820 -0.0668 -0.0653
31752W        W47221   0.320  14.442  11.861 -0.0375 -0.0234  0.1924
31753W        W47222  15.041   5.344   3.032 -0.7191 -0.1716  0.1044
31754W        W47223   2.756  15.379  10.384 -0.0538  0.1610 -0.3077
31755W        W47224   3.222   0.321   0.490  0.1195  0.2030  0.0619
31756W        W47225  16.666   6.137   2.323 -0.3768 -0.3415 -0.0149
31757W        W47226  16.487   7.443   0.793  0.1283 -0.3479 -0.2806
31758W        W47227   9.557  14.711  11.841  0.0708 -0.1467 -0.0478
31759W        W47228  12.432  16.121   2.077  0.2008 -0.1588 -0.1730
31760W        W47229  14.345   4.563   2.817  0.0856  0.1093 -0.2276
31761W        W47230   6.350   5.075  13.682  0.0675  0.3080 -0.0262
31762W        W47231  13.957  16.208   5.409  0.2415 -0.0261  0.0304
31763W        W47232   8.049   3.790  12.346 -0.0021  0.4243 -0.0893
31764W        W47233  16.165  15.215  10.141 -0.0083 -0.0382  0.2307
31765W        W47234   6.631  15.420  14.840 -0.0708 -0.1240 -0.1032
31766W        W47235  10.017   3.080  12.473 -0.0147 -0.1181 -0.0012
31767W        W47236  14.610   1.953  15.163  0.0511  0.2817  0.0878
31768W        W47237   6.294  15.326   3.720  0.1034 -0.1053 -0.0167
31769W        W47238  11.034  10.099   4.072  0.0870 -0.1022 -0.2349
31770W        W47239   9.997  13.329   1.798  0.1172  0.0047 -0.1257
31771W        W47240   2.362   4.646  15.724 -0.3040 -0.1342  0.2267
31772W        W47241   0.429  17.337  10.890 -0.0816 -0.1337  0.2543
31773W        W47242   1.363   7.394   3.530 -0.0065 -0.2643  0.2384
31774W        W47243   5.086   5.623   0.509 -0.1393 -0.2055  0.2278
31775W        W47244   6.393  15.238   1.334 -0.0155 -0.1331 -0.1341
31776W        W47245  12.085   1.514   4.607  0.3573  0.2214 -0.0878
31777W        W47246   3.987  18.205  15.530 -0.3771  0.0666  0.1132
31778W        W47247   9.176   8.263   2.376 -0.1366  0.2046  0.1193
31779W        W47248   1.989  17.957   2.998 -0.1806 -0.2374  0.0410
31780W        W47249   1.996  15.684   0.608 -0.0481  0.1121  0.0593
31781W        W47250   0.614  16.999   4.690 -0.0030 -0.0961  0.1227
31782W        W47251   4.197   2.928   1.688 -0.1492  0.0350 -0.2799
31783W        W47252  17.927   0.730  12.123 -0.3615 -0.0807  0.3114
31784W        W47253  13.673   3.515  12.513 -0.1012  0.0293  0.1506
31785W        W47254  15.085   8.488   5.707 -0.3496  0.0924  0.1825
31786W        W47255   2.180   9.636   5.190  0.0891 -0.1867  0.4900
31787W        W47256  11.178  16.457   4.165 -0.0751 -0.1631 -0.2282
31788W        W47257  10.142  16.673   2.488 -0.0711  0.0983  0.1274
31789W        W47258  13.603   6.456  13.797  0.0099 -0.0855 -0.0015
31790W        W47259   4.995  10.994  14.798  0.2445  0.1227  0.0638
31791W        W47260  13.238  11.222  11.885 -0.0917  0.0535  0.2052
31792W        W47261   1.425   6.935  10.816 -0.1201  0.0321  0.1673
31793W        W47262   0.080   8.412   4.760  0.0007  0.1002  0.2396
31794W        W47263   9.482  11.536  12.341 -0.1627 -0.0157  0.0908
31795W        W47264   2.523  11.482  11.329 -0.2197 -0.0042  0.1936
31796W        W47265  18.192   1.642  11.983 -0.0299  0.2526 -0.3239
31797W        W47266   5.275  12.867   0.014 -0.0252 -0.2277  0.2360
31798W        W47267  12.674  18.127   0.957 -0.0977  0.0878  0.0416
31799W        W47268   0.732  11.206   2.778  0.6690 -0.0753 -0.0697
31800W        W47269   4.812  10.736   4.539  0.1455  0.1267 -0.3354
31801W        W47270  13.515  11.072  12.718  0.1473  0.0703 -0.1713
31802W        W47271   0.387  10.671  12.458  0.3641  0.3050  0.0391
31803W        W47272   5.100   7.148  14.525  0.0498  0.0252 -0.1494
31804W        W47273   6.500  12.931   5.761 -0.2112  0.0813 -0.0421
31805W        W47274   5.340   5.937   1.380 -0.0117  0.1900  0.2025
31806W        W47275   3.210   9.038  12.746 -0.1055  0.1771 -0.0509
31807W        W47276  14.919   8.903   2.901  0.1258 -0.0330  0.1018
31808W        W47277   3.345   0.475  15.922  0.0439 -0.0114  0.0829
31809W        W47278   1.892   7.993  10.822 -0.3501 -0.3586 -0.0331
31810W        W47279   0.250  13.503  15.784 -0.2373  0.1289 -0.1425
31811W        W47280  16.303   3.728  11.964  0.0981  0.2496  0.0712
31812W        W47281   8.993  11.598   4.769 -0.1898  0.2150  0.3440
31813W        W47282   1.597   8.514  14.218  0.1095 -0.0232  0.1835
31814W        W47283   6.594   3.474  10.652 -0.1779 -0.1922 -0.0815
31815W        W47284  16.078   1.847  16.024 -0.2904  0.2186 -0.0262
31816W        W47285  17.151   8.319   2.465  0.0400  0.1394  0.1424
31817W        W47286  13.542  13.289   0.211  0.2509 -0.1780 -0.0097
31818W        W47287  17.745  18.079   3.953 -0.0859 -0.2943 -0.0144
31819W        W47288   2.934   0.787   2.773  0.0880  0.3107  0.0097
31820W        W47289   3.014  13.376  14.296 -0.2611  0.1822  0.0588
31821W        W47290  13.488   1.113   2.181 -0.1440 -0.0112  0.1195
31822W        W47291  14.307   9.843  13.027  0.3191  0.0980  0.0586
31823W        W47292   7.806   6.341   2.490 -0.2901  0.0925  0.2445
31824W        W47293  14.245  16.667   3.535 -0.1003  0.1380 -0.0341
31825W        W47294   8.095  11.584   5.129  0.0685  0.0691  0.1904
31826W        W47295   4.043  17.019  15.005 -0.2552 -0.1982 -0.0697
31827W        W47296  18.131  12.794  11.350 -0.2163  0.3252 -0.0312
31828W        W47297   9.924   3.277  12.004 -0.0626 -0.0637  0.3242
31829W        W47298   9.573  16.969   4.681  0.1350 -0.0189  0.0995
31830W        W47299  16.874   3.271   4.458 -0.1340  0.0041 -0.3609
31831W        W47300   3.087  10.964   2.405 -0.0730  0.2757 -0.1671
31832W        W47301  14.423  10.860  14.854  0.0620  0.2088  0.2873
31833W        W47302   8.815   6.212  15.252 -0.2431  0.0887  0.0246
31834W        W47303  17.097   8.809   3.716  0.2731  0.0616 -0.0063
31835W        W47304  13.870   9.286   5.284  0.0520  0.2160  0.0433
31836W        W47305   0.248   8.086   2.118 -0.0215  0.0573  0.2397
31837W        W47306  10.736  11.222   2.539  0.1691  0.0115  0.0152
31838W        W47307  15.995   2.318   0.094  0.1052  0.0191  0.1610
31839W        W47308   8.597   1.280   4.492  0.0120 -0.0436  0.0571
31840W        W47309   0.429   5.220   5.116  0.1582 -0.1147  0.2370
31841W        W47310   6.252   9.964  13.874 -0.0670 -0.0366  0.3609
31842W        W47311   5.846  13.605   0.443  0.0003 -0.2589 -0.2071
31843W        W47312   5.507   8.288   0.494  0.1947 -0.0437 -0.1418
31844W        W47313   3.814   1.415   3.829  0.3629 -0.0201 -0.1322
31845W        W47314   7.961   8.515  12.954 -0.0019 -0.0715 -0.0784
31846W        W47315   6.468  13.818   4.707  0.2677 -0.1770  0.0059
31847W        W47316  15.639  13.551  14.480 -0.0583  0.0533 -0.1235
31848W        W47317  16.827  15.487  14.535 -0.2953 -0.0512  0.0258
31849W        W47318   1.813   0.096  11.744  0.1188  0.2447  0.0295
31850W        W47319  10.304   4.905   4.447  0.2348  0.0498 -0.0093
31851W        W47320  13.159   0.337   2.362 -0.2018  0.2850 -0.1978
31852W        W47321   7.014   4.625  14.058 -0.1038 -0.2178 -0.0616
31853W        W47322  13.193  13.937  14.481 -0.1965 -0.0563  0.3523
31854W        W47323   4.107  10.996   4.018  0.2874 -0.2451  0.0305
31855W        W47324  14.662  18.222  15.154  0.0310  0.2607 -0.2135
31856W        W47325   2.213   8.766  13.444 -0.2271 -0.0494  0.1677
31857W        W47326   0.060  17.107  11.789 -0.0191  0.0224  0.1887
31858W        W47327  14.947   1.714   4.374  0.1641 -0.1936  0.1253
31859W        W47328   1.154   1.265  11.356  0.4886  0.0174 -0.2793
31860W        W47329   2.257  14.918  15.549 -0.0900  0.0607  0.1726
31861W        W47330  13.920  14.392   5.620 -0.0129  0.1281 -0.1301
31862W        W47331  15.125  10.615  12.598  0.4275 -0.1107 -0.0893
31863W        W47332  11.951  13.239   0.984 -0.2492 -0.1170 -0.0861
31864W        W47333   3.154   4.546  12.881 -0.0147 -0.0857  0.2232
31865W        W47334  16.198   3.705   1.139 -0.0574 -0.0261  0.0370
31866W        W47335  18.112  15.701  13.128 -0.2415 -0.0263  0.4403
31867W        W47336   9.897  16.158  12.070  0.0890  0.0547  0.2061
31868W        W47337   5.382  17.702  14.790 -0.0706  0.1826  0.0599
31869W        W47338  16.457  17.690  11.426 -0.0932 -0.1989  0.3298
31870W        W47339   1.345  17.956  15.634  0.6025  0.0656 -0.0040
31871W        W47340   9.141  15.759   2.466 -0.1318 -0.0500  0.2762
31872W        W47341  11.123   1.448   3.784  0.3874 -0.0839  0.1253
31873W        W47342   7.185   7.547  11.698  0.2927  0.0555  0.1287
31874W        W47343   5.817   8.247   5.115  0.1115  0.0295 -0.1666
31875W        W47344  12.434  12.603  12.780 -0.0782  0.3444  0.0780
31876W        W47345   4.606   8.514   2.145 -0.0805 -0.1526  0.0475
31877W        W47346   4.321   2.261  13.592  0.0292 -0.0051  0.1498
31878W        W47347  15.813  10.143   5.677  0.1882 -0.0430  0.1733
31879W        W47348   2.775  10.951   4.566  0.0147 -0.0174  0.0421
31880W        W47349   1.706   7.566   5.918 -0.1157 -0.1662 -0.2250
31881W        W47350  14.158  14.107   4.210  0.1218 -0.1033 -0.1034
31882W        W47351  11.000  17.260  14.300  0.2684 -0.3257  0.0009
31883W        W47352   3.292   3.083  12.490  0.1644 -0.2026  0.3458
31884W        W47353   7.485   1.886  12.108 -0.2224  0.0974  0.0507
31885W        W47354  10.401  16.765  13.044 -0.0873 -0.3196 -0.2176
31886W        W47355   5.154   8.995  10.893 -0.0888 -0.2585 -0.0819
31887W        W47356  10.108   7.850  11.618 -0.4250  0.1101 -0.0928
31888W        W47357   2.062  15.147   0.401  0.0101  0.1100 -0.1393
31889W        W47358   6.198   2.777   1.764  0.1808  0.1332 -0.0038
31890W        W47359   1.982   5.976   0.224  0.2614  0.0181 -0.0934
31891W        W47360  18.155   6.906  11.423  0.2864 -0.2160 -0.0976
31892W        W47361   0.378  13.346  15.082  0.1017 -0.1917 -0.0462
31893W        W47362   8.875   2.851   3.940  0.2645 -0.1309  0.0546
31894W        W47363  16.592  11.128  11.070  0.1161  0.4837  0.2932
31895W        W47364  13.462   5.695   4.846 -0.2812  0.1931  0.2057
31896W        W47365  16.528  11.141  11.576  0.2549  0.0918  0.2973
31897W        W47366   1.062  11.225   5.625 -0.2577  0.1273 -0.2679
31898W        W47367   7.587  12.705  13.010  0.1890  0.0865  0.1547
31899W        W47368  14.129  13.803  14.407  0.1350 -0.0297 -0.0729
31900W        W47369  11.381   0.204  10.382 -0.0838 -0.0996 -0.0952
31901W        W47370  11.732   9.060   0.369  0.1636 -0.0250 -0.2131
31902W        W47371   3.028  16.447   0.924 -0.0628 -0.3843  0.1400
31903W        W47372  15.947  13.699  11.748 -0.2421 -0.1995  0.1982
31904W        W47373  15.422   9.174   2.246 -0.0283  0.0478  0.2111
31905W        W47374   0.669   3.046  11.633  0.0945  0.0385 -0.0249
31906W        W47375   1.570   4.524  12.935  0.1744  0.0191 -0.0271
31907W        W47376  13.861   8.995   3.969  0.0022  0.0918  0.0021
31908W        W47377  14.611   5.280   0.028 -0.1054 -0.0658 -0.3837
31909W        W47378   4.289  11.026  11.247 -0.3133  0.1572 -0.2833
31910W        W47379   4.902  14.557   1.931 -0.0954 -0.1539  0.2485
31911W        W47380  11.699  13.160   3.993  0.0540 -0.2644  0.2859
31912W        W47381   4.148  10.231   3.398  0.3151  0.1067  0.2438
31913W        W47382  10.408   9.551  10.196  0.1910 -0.0828  0.0355
31914W        W47383   1.131   8.218   1.676  0.0228 -0.1291  0.0498
31915W        W47384  11.669  11.706   5.174 -0.0171 -0.1896 -0.0311
31916W        W47385  12.307  12.811  11.344  0.1325 -0.0210 -0.0195
31917W        W47386   7.119   9.619   0.193  0.1396  0.1889  0.1411
31918W        W47387  17.400  12.029  16.038 -0.0705 -0.2203  0.1542
31919W        W47388   3.219   9.506  11.020  0.1349  0.1690 -0.2606
31920W        W47389  13.583   3.844   4.644  0.1186 -0.0442 -0.3686
31921W        W47390   1.560  17.082  12.800  0.1014  0.0322  0.1036
31922W        W47391  17.099   4.308  15.674  0.1896 -0.2000 -0.0110
31923W        W47392  12.269  17.618   4.499  0.3808 -0.1336 -0.0613
31924W        W47393  15.035   5.755   3.627  0.0821  0.0435  0.0556
31925W        W47394   7.680   6.310  14.452 -0.3366 -0.2369  0.0046
31926W        W47395  15.323   9.897  13.659 -0.1580  0.4820  0.0443
31927W        W47396   6.785  12.065  14.070 -0.0850 -0.1834 -0.1448
31928W        W47397  12.056   6.607   5.199  0.0789 -0.0802  0.2301
31929W        W47398   1.091   1.738   4.672  0.2096  0.3104 -0.1081
31930W        W47399  12.510   7.039  13.855 -0.0601 -0.0886  0.2667
31931W        W47400  12.923  15.621  14.793  0.0415  0.0291 -0.2107
31932W        W47401   8.232   0.903   3.664 -0.2004  0.1095 -0.1910
31933W        W47402   7.222   9.850  14.029  0.1477  0.0383 -0.0490
31934W        W47403  10.744   7.946  13.428  0.3099 -0.0469 -0.1651
31935W        W47404   7.179   5.210   1.311  0.1834 -0.3631  0.0217
31936W        W47405  16.151   3.919   1.907 -0.1018  0.1696  0.0569
31937W        W47406  12.742   8.720   3.274  0.0364  0.0744  0.0272
31938W        W47407   2.681   2.152   2.123 -0.0683  0.2973  0.1484
31939W        W47408  18.186   1.086   1.332  0.0569 -0.0393 -0.1581
31940W        W47409   9.846   3.688  14.320 -0.2353  0.1184  0.2283
31941W        W47410  10.451  15.333  14.492 -0.0571  0.0089  0.0778
31942W        W47411  16.860   9.020  15.504 -0.0915  0.0773 -0.0431
31943W        W47412   2.086   2.877  15.094 -0.0593  0.0884 -0.0518
31944W        W47413  11.007  13.124  14.411 -0.1226 -0.0808  0.2109
31945W        W47414  17.059  14.784   5.482  0.2294  0.1924 -0.1141
31946W        W47415  13.309  15.034   5.012 -0.1101 -0.1971  0.0403
31947W        W47416  16.957  11.699   0.948  0.3861 -0.0014  0.2557
31948W        W47417  16.459   4.645   5.505 -0.0696  0.0465 -0.2233
31949W        W47418   8.213   7.429   4.814 -0.3782  0.0052  0.0632
31950W        W47419   2.053  16.471  11.184  0.1080  0.1407  0.2644
31951W        W47420  16.110   3.695   4.940 -0.0909  0.0407  0.0258
31952W        W47421  12.586  18.180  11.403  0.0968 -0.0324 -0.2060
31953W        W47422   1.003   9.496  13.682 -0.0679  0.1797 -0.1784
31954W        W47423  10.361  17.513  12.146 -0.0718 -0.4215  0.0508
31955W        W47424   9.727   1.200   5.995  0.0345 -0.3429 -0.0858
31956W        W47425   8.812   2.022   0.548  0.0054  0.3163  0.1540
31957W        W47426   3.250   0.300  10.217  0.0302 -0.0656 -0.0710
31958W        W47427   0.516  17.101   4.218 -0.0892  0.1115  0.2875
31959W        W47428  16.163   5.598  15.966  0.0007  0.0585  0.0325
31960W        W47429  14.058   3.507  16.067 -0.0397  0.1283  0.1346
31961W        W47430  17.378   1.345  13.066 -0.3062 -0.0644  0.1272
31962W        W47431   4.741  15.550  16.015  0.0821 -0.1249  0.1007
31963W        W47432   9.838  16.665   1.643  0.1235 -0.1679 -0.0549
31964W        W47433   1.145   4.725   4.900  0.1984  0.0168 -0.0308
31965W        W47434   1.154  14.010  11.024  0.2636 -0.0952  0.1762
31966W        W47435  16.713  15.521   0.081  0.2207 -0.2963  0.1488
31967W        W47436   9.653   4.021   1.735 -0.1180  0.4299 -0.0602
31968W        W47437   3.115  14.154  11.156 -0.0515  0.1422 -0.0391
31969W        W47438  17.476   0.413   6.499 -0.1289  0.1190 -0.1232
31970W        W47439   1.358   5.542  11.493 -0.2762  0.0759 -0.1498
31971W        W47440  13.085   7.363   1.663  0.3696  0.2001  0.2790
31972W        W47441   8.380  13.358  11.308  0.1682  0.2600  0.0941
31973W        W47442   9.764  18.201   3.626 -0.0214 -0.2057 -0.0458
31974W        W47443   4.180   5.645   1.189  0.2334  0.1716  0.1202
31975W        W47444   6.502  15.370  13.774 -0.0952 -0.0986 -0.0013
31976W        W47445  18.040   2.627  12.197  0.0497 -0.0515  0.0407
31977W        W47446   3.200   7.028  13.826  0.1077  0.0540  0.1774
31978W        W47447  16.295   2.498  15.653  0.0398  0.2229 -0.2084
31979W        W47448   4.519   7.283  14.003  0.2134 -0.0374 -0.0301
31980W        W47449   1.532  10.266   4.097  0.1496 -0.2454  0.2723
31981W        W47450   6.638  11.927   5.087 -0.1570 -0.0766  0.0271
31982W        W47451  12.864  12.264  14.459 -0.0949 -0.1964  0.1288
31983W        W47452   7.773   8.245  15.783  0.5892 -0.0329  0.0469
31984W        W47453  13.759   4.663   0.824 -0.0611 -0.1446 -0.1303
31985W        W47454   8.485   6.255   4.347  0.0314  0.0658 -0.1852
31986W        W47455   6.355   6.575   5.333  0.6218  0.0936  0.0366
31987W        W47456  16.195  16.984   4.176 -0.0990  0.1848 -0.0113
31988W        W47457  15.941  14.716  15.677  0.0701 -0.0904  0.1585
31989W        W47458   2.373   2.532   2.557  0.2269  0.1750 -0.2154
31990W        W47459   0.090   1.027   2.605 -0.1303  0.0012 -0.3449
31991W        W47460   0.274   9.202  15.393  0.0612  0.2332 -0.1354
31992W        W47461   1.503  15.705  14.122  0.0371  0.2139  0.4297
31993W        W47462  13.811  13.324  10.262  0.0368  0.2482 -0.0935
31994W        W47463   3.504   3.210   1.282  0.4107  0.0120 -0.0239
31995W        W47464  17.701   6.956   1.267  0.1261 -0.0222  0.0678
31996W        W47465  12.327   2.807   4.765  0.0525  0.1401  0.0610
31997W        W47466   2.029   1.791  11.023 -0.1036  0.0960  0.3326
31998W        W47467  16.052  13.321   3.681  0.0851  0.1338  0.3384
31999W        W47468   5.409  13.013  11.149 -0.2629  0.1319  0.2608
32000W        W47469  16.050  18.025  12.129  0.0387  0.0096  0.0825
32001W        W47470   5.072  15.473   3.856 -0.1126 -0.0053  0.1199
32002W        W47471   9.431   6.786  14.385  0.1814  0.1931  0.0423
32003W        W47472   3.133  17.711   4.025  0.2531  0.1758  0.0293
32004W        W47473   0.565   5.204  15.877  0.0659 -0.2371  0.1241
32005W        W47474  15.062  13.351   4.443 -0.0911  0.0765  0.0934
32006W        W47475  12.979   2.298   0.907 -0.0768 -0.1818  0.0376
32007W        W47476   2.588  14.699  12.218  0.0835  0.4757 -0.0589
32008W        W47477  11.700  10.235  11.356  0.2644  0.0379  0.2083
32009W        W47478   2.966   1.480  15.437  0.2714  0.1071  0.1977
32010W        W47479   8.604  14.064  15.864  0.1168 -0.2335  0.2266
32011W        W47480   2.805   4.902  16.010 -0.0400 -0.3566  0.1100
32012W        W47481  18.005  11.948  11.488 -0.0874  0.0762  0.0004
32013W        W47482   3.127   4.275   2.450  0.2170  0.2053  0.3312
32014W        W47483  18.023   3.957   1.720 -0.1772 -0.1605  0.0434
32015W        W47484   3.836  14.372   3.210 -0.4470 -0.2318  0.1601
32016W        W47485   0.217   0.769  14.284 -0.1562 -0.0048  0.0066
32017W        W47486   1.621   2.643   3.323  0.0995 -0.0873 -0.0295
32018W        W47487  13.830   0.367   1.054 -0.2425  0.0946 -0.1675
32019W        W47488  15.195  16.970   6.197 -0.1257  0.1546 -0.2865
32020W        W47489  10.360   2.662  11.905 -0.2452 -0.3571 -0.0202
32021W        W47490   2.349  10.567   5.457  0.0884 -0.2762  0.0793
32022W        W47491  12.020   6.204   0.617  0.2474 -0.2148  0.0300
32023W        W47492  10.204   3.252   2.883 -0.1354  0.1304 -0.0073
32024W        W47493  13.814  16.230   3.411 -0.2006  0.0239  0.0911
32025W        W47494   2.413  13.152  15.543  0.2441  0.2363  0.0383
32026W        W47495   5.764   9.157   4.441  0.0448 -0.0059  0.0073
32027W        W47496  10.167   2.366   4.814  0.4567 -0.1559  0.2516
32028W        W47497   0.802   4.517   2.894  0.3000  0.6246 -0.0012
32029W        W47498   8.956  13.906   4.475 -0.1549  0.1222 -0.0803
32030W        W47499   6.013   0.379  11.432 -0.0755 -0.0373  0.1124
32031W        W47500  11.442   2.867   4.656  0.2660  0.0705 -0.0184
32032W        W47501   6.907  12.764   0.223 -0.0951 -0.1499 -0.0375
32033W        W47502   7.319   0.100  14.143 -0.0182 -0.0458 -0.2252
32034W        W47503  12.974  16.578   2.158  0.0025  0.1730 -0.0523
32035W        W47504  12.770  16.991  13.955 -0.0029 -0.0415  0.0400
32036W        W47505   9.854   8.611   2.246 -0.0860  0.0021  0.0170
32037W        W47506  17.344   4.502  15.245  0.0082  0.5055  0.3745
32038W        W47507   2.584   3.664   4.799  0.3777 -0.1109 -0.1625
32039W        W47508   5.982  13.040   2.531 -0.0903 -0.2115  0.2718
32040W        W47509   1.033   5.993  14.767 -0.2508 -0.1063  0.0711
32041W        W47510  13.270   4.929   3.398 -0.0195 -0.0181 -0.4396
32042W        W47511   7.220   8.057   1.205  0.1988 -0.3113  0.2317
32043W        W47512  12.533  17.731   5.409  0.0703 -0.0678 -0.0258
32044W        W47513   4.186  17.930   2.806  0.0268 -0.1279 -0.0395
32045W        W47514   6.501   4.996   4.031 -0.1226 -0.0045 -0.2093
32046W        W47515  11.772  14.348  15.952 -0.0822  0.1141 -0.0426
32047W        W47516   2.456  16.233  11.403  0.1904  0.0355  0.0885
32048W        W47517   5.492  16.757   3.216  0.2610 -0.1486  0.1082
32049W        W47518  14.533   9.499  13.274 -0.0675  0.0920  0.2638
32050W        W47519  13.819   0.742  12.017 -0.1035  0.0343 -0.2170
32051W        W47520   7.059  13.179   4.888  0.1284 -0.1734 -0.1818
32052W        W47521  11.466   9.963   1.872  0.0819  0.0807  0.1567
32053W        W47522  13.351  12.785   9.931  0.1098 -0.0585 -0.3424
32054W        W47523  11.371   9.895  11.655  0.0049 -0.0934  0.0475
32055W        W47524  18.265   9.057   0.099 -0.0327  0.0336 -0.2346
32056W        W47525   8.911  11.653  12.167 -0.1525  0.1542 -0.2317
32057W        W47526   0.883  18.109   3.530  0.3692 -0.2642  0.1793
32058W        W47527   5.589   2.135  14.177  0.2580 -0.1183  0.2820
32059W        W47528   4.033  11.199  13.419  0.1827 -0.2408 -0.3116
32060W        W47529  11.489  15.342  11.976 -0.0398 -0.2625  0.0691
32061W        W47530   2.914   0.831   1.647  0.1827  0.0819 -0.2968
32062W        W47531  15.787  13.586   3.291 -0.1088  0.0621 -0.0396
32063W        W47532  15.311   1.120   0.640  0.2681  0.2961  0.0929
32064W        W47533   2.872  17.109   2.176 -0.2445  0.1207 -0.0005
32065W        W47534   9.757  16.356   5.396 -0.1618 -0.3865  0.1861
32066W        W47535  11.604   3.179  12.591 -0.2677 -0.3481  0.1476
32067W        W47536   0.914   1.230  13.695  0.4093  0.1066 -0.0223
32068W        W47537  14.999  14.858   3.734  0.0856 -0.3366  0.0352
32069W        W47538   7.240  13.309   4.428 -0.1059  0.3560 -0.4061
32070W        W47539  11.768   6.401   1.618 -0.0818  0.4339 -0.2444
32071W        W47540   6.347   2.529   0.368 -0.2501 -0.1469 -0.0401
32072W        W47541   3.050  15.083  12.371  0.4409 -0.0617 -0.2927
32073W        W47542  11.156  12.542   1.690  0.2069 -0.2030  0.2011
32074W        W47543   2.815   5.029  13.003  0.1049  0.0155 -0.2137
32075W        W47544   7.865   2.065  15.494  0.1954 -0.1886  0.3011
32076W        W47545   5.731  12.772  15.928  0.0188  0.0147  0.2429
32077W        W47546  13.878  17.636   5.565 -0.0756 -0.0648 -0.1173
32078W        W47547  12.212  16.969   3.644  0.2502  0.0581 -0.0223
32079W        W47548  12.672   5.178   4.705  0.0764 -0.2427  0.0952
32080W        W47549   7.009   5.133   4.168 -0.0443 -0.1788  0.2584
32081W        W47550   8.184   1.382  12.777 -0.0145 -0.4928 -0.1073
32082W        W47551  10.968  16.943  15.996  0.1028  0.1500  0.1762
32083W        W47552  14.544  18.140  12.951 -0.0295  0.0631 -0.0857
32084W        W47553  12.582   6.792   0.477 -0.0298 -0.2185 -0.2532
32085W        W47554  12.912   5.574  12.661  0.0382  0.1422  0.1236
32086W        W47555   3.729   7.551   3.280 -0.1824 -0.3397 -0.2954
32087W        W47556   6.802   1.660   3.118 -0.0968 -0.2979  0.1084
32088W        W47557   8.614   1.623   1.324 -0.0391 -0.0889  0.1547
32089W        W47558   7.891  12.218  12.963 -0.0188 -0.0655 -0.1209
32090W        W47559   8.345   3.762  14.228  0.1055 -0.4076 -0.1044
32091W        W47560  18.281  10.282   0.731  0.0395  0.0144 -0.2400
32092W        W47561  13.596   7.913   4.483 -0.0887 -0.0793 -0.3146
32093W        W47562   2.190   8.662  14.386 -0.1963  0.0834 -0.3193
32094W        W47563   9.216   6.075  15.561  0.2235  0.0195 -0.1380
32095W        W47564  10.151   7.437  12.661 -0.2017  0.1659  0.0708
32096W        W47565  14.815  13.773   4.147  0.0872  0.0042  0.0276
32097W        W47566  16.918   4.844   2.554 -0.0176 -0.2113  0.0098
32098W        W47567   6.922  11.777  12.981 -0.0026 -0.2117  0.0165
32099W        W47568  13.892   9.443  15.346  0.0187  0.0021  0.0149
32100W        W47569   0.335  14.943   5.034 -0.2971 -0.0506  0.2022
32101W        W47570  14.313   9.427   0.646  0.1499 -0.0625  0.0044
32102W        W47571  10.484  13.105  14.536 -0.0878  0.0735 -0.4602
32103W        W47572   2.604  16.836   0.869 -0.0606  0.1834 -0.0215
32104W        W47573   5.380   7.881  13.847  0.4203  0.0382  0.0484
32105W        W47574  12.783   9.452   3.720 -0.1727  0.0966 -0.4581
32106W        W47575   2.928   8.908   1.441  0.1853 -0.0157  0.0656
32107W        W47576  14.479   5.932   0.608 -0.2849 -0.3459  0.1189
32108W        W47577  11.460   1.832  14.687  0.0274  0.3396 -0.1806
32109W        W47578  11.670   7.874   3.072  0.2762  0.0060  0.0745
32110W        W47579   4.273   3.071  13.320  0.2688  0.0094 -0.1029
32111W        W47580  16.031  12.856   5.289  0.2268  0.3341 -0.1329
32112W        W47581  11.460  17.286  12.460 -0.1104  0.1660  0.2895
32113W        W47582  10.281  10.037  11.151  0.0025  0.0978 -0.0129
32114W        W47583   3.720  16.241   1.468 -0.0632 -0.0608 -0.3092
32115W        W47584  15.486   5.012  12.526  0.0524 -0.2939  0.4467
32116W        W47585   8.766  13.726  14.588  0.3000 -0.0508  0.1188
32117W        W47586   4.966   1.156  13.984  0.2137 -0.2996 -0.2347
32118W        W47587  16.228   1.438   3.122 -0.0970 -0.0375 -0.1151
32119W        W47588  12.665   5.855   1.802  0.0466  0.1087 -0.0951
32120W        W47589  15.320  14.824  11.924 -0.0964  0.2058 -0.1022
32121W        W47590   8.541  15.029  16.095  0.0253 -0.0701 -0.0654
32122W        W47591   0.354  12.787   1.284  0.1061  0.1804  0.2249
32123W        W47592   7.577   6.428   4.148 -0.0511 -0.0873 -0.1452
32124W        W47593   7.496   8.789   4.172 -0.0904 -0.0540  0.1085
32125W        W47594  14.339  16.299  15.832 -0.1295 -0.0695  0.3157
32126W        W47595   0.300  10.477  13.977 -0.3184 -0.0187  0.2454
32127W        W47596   3.155   1.607   4.454 -0.0597 -0.1610 -0.1549
32128W        W47597   2.992  10.735   3.640  0.1031 -0.3167  0.0400
32129W        W47598  17.221  16.975   5.343  0.0646 -0.3100  0.0498
32130W        W47599   5.841   2.179   3.459  0.1973  0.1448 -0.0222
32131W        W47600  13.609  12.874   0.519  0.0221  0.1270  0.0560
32132W        W47601   6.426   8.299   1.041  0.0350 -0.0310  0.0247
32133W        W47602   2.995   8.138   2.881  0.0169 -0.2161  0.0673
32134W        W47603  11.903  17.667   5.401 -0.1079  0.2747  0.0665
32135W        W47604  13.664  18.276   6.559 -0.0116  0.1225  0.3077
32136W        W47605   5.584   8.271   3.853 -0.5607  0.0069 -0.1392
32137W        W47606   6.870  10.991   3.309  0.0270  0.1220  0.1208
32138W        W47607   2.323   0.669   1.520  0.2305  0.2057  0.1720
32139W        W47608   7.466  12.825   2.571 -0.0642 -0.5887 -0.1876
32140W        W47609  11.890   3.647  12.320  0.0265  0.2668  0.0997
32141W        W47610  14.024  11.374  15.602 -0.0162 -0.3698 -0.1622
32142W        W47611   4.675   4.537  11.652  0.3450 -0.2495  0.0286
32143W        W47612   7.617   5.026   1.484 -0.0503 -0.0864 -0.0577
32144W        W47613  15.902   0.122  15.167  0.0180  0.0903  0.4014
32145W        W47614   4.812  16.778  12.699  0.2493 -0.0217 -0.0172
32146W        W47615   5.839   1.968  15.066 -0.0748 -0.1818 -0.7517
32147W        W47616  13.454   9.874  14.565 -0.1626  0.0842  0.0773
32148W        W47617  17.663   9.584   0.617  0.2221  0.0349 -0.1890
32149W        W47618   7.097  15.268   5.735  0.1043 -0.1616  0.2810
32150W        W47619   2.793  16.017   0.732 -0.1317 -0.2731 -0.0854
32151W        W47620   3.069   5.234  13.930  0.1076 -0.0485 -0.0446
32152W        W47621   3.862  11.249  12.285  0.0311  0.0864  0.2573
32153W        W47622  17.139  14.182  15.656 -0.2336 -0.1433  0.1369
32154W        W47623   0.443  14.294  11.297  0.0801  0.4879 -0.0767
32155W        W47624  15.181  14.223  12.543  0.3199 -0.1789 -0.2750
32156W        W47625   1.501  12.783  15.230 -0.1837  0.0014  0.2043
32157W        W47626   7.058   1.838   5.155  0.0216  0.0002  0.0575
32158W        W47627  12.868  10.303  16.067 -0.0721 -0.1226 -0.0419
32159W        W47628   3.358  15.541   2.596 -0.0784  0.1467 -0.0683
32160W        W47629  13.803   1.969  15.560  0.1850  0.0519 -0.2186
32161W        W47630   1.972  16.222   1.221  0.0380  0.3973 -0.0583
32162W        W47631  16.352  13.072   4.863  0.1107 -0.0313 -0.0594
32163W        W47632   2.895  17.835   0.696  0.0594 -0.0637 -0.0370
32164W        W47633  13.427  11.666   0.286  0.1818 -0.0684  0.1854
32165W        W47634   0.332   0.863  11.621 -0.1528 -0.1838 -0.1591
32166W        W47635  12.658  14.476  13.375  0.1124 -0.0423 -0.1330
32167W        W47636  15.763   4.658  12.739  0.4056 -0.1801 -0.3109
32168W        W47637  16.083  15.900  13.412  0.0241  0.1719  0.2702
32169W        W47638   4.009  18.161   1.013 -0.0534  0.1113 -0.1370
32170W        W47639  17.169   4.502  12.747 -0.2038 -0.0609  0.1914
32171W        W47640   4.012  12.393  13.505  0.2856  0.2590  0.2832
32172W        W47641   1.286  17.260  14.764 -0.2657 -0.2192 -0.0988
32173W        W47642  11.898   4.653   0.291 -0.2894 -0.4548 -0.4595
32174W        W47643  18.276  15.850  11.922  0.0755  0.4087  0.1376
32175W        W47644   8.811   1.412   4.956  0.0036  0.1811 -0.1934
32176W        W47645  16.777  13.735   1.219  0.2228 -0.0543 -0.1010
32177W        W47646  14.966   6.372  11.934  0.1744  0.1973  0.1588
32178W        W47647  12.345   2.507  13.251  0.1209  0.3337 -0.0087
32179W        W47648   0.380   0.111  12.128  0.3784 -0.0674 -0.0774
32180W        W47649  17.252  10.702  13.638  0.0465 -0.0673 -0.1871
32181W        W47650   4.954   9.272   9.839  0.1552 -0.1160  0.3471
32182W        W47651   9.929   2.534  13.853 -0.2368  0.1372 -0.1187
32183W        W47652  16.379  14.109   0.715  0.2048 -0.2167 -0.0750
32184W        W47653  11.158   2.373  14.970 -0.0768 -0.0585  0.1053
32185W        W47654  11.957  10.461  13.872  0.1314  0.3278  0.3628
32186W        W47655   5.514   2.709   1.337  0.2079  0.0502 -0.0019
32187W        W47656  14.264   7.443  14.560  0.1699 -0.1252 -0.1304
32188W        W47657   4.250  13.525   0.867 -0.0211  0.1763  0.0618
32189W        W47658   7.546  11.422  12.385 -0.0859  0.3487  0.0644
32190W        W47659  13.253  17.078   2.153 -0.1209 -0.0059  0.0924
32191W        W47660  15.629  18.143   1.070 -0.1575 -0.0131  0.1830
32192W        W47661   1.774  15.798  15.323  0.0811  0.0616  0.3164
32193W        W47662   4.892  16.562   2.886  0.2074 -0.1456 -0.0844
32194W        W47663  16.955  14.472  11.073 -0.0055  0.1924  0.1098
32195W        W47664  11.073   1.081   1.309  0.1705 -0.0387  0.0116
32196W        W47665  14.073  15.399   2.879 -0.0518  0.1219 -0.1365
32197W        W47666  15.158  15.333   4.869  0.3092  0.0283  0.0868
32198W        W47667  15.680  12.791  11.537  0.1838  0.2289 -0.0229
32199W        W47668  14.652  10.644   5.257 -0.1735 -0.1182 -0.2474
32200W        W47669   6.404   6.219  14.982  0.2292  0.3108  0.1098
32201W        W47670  16.651  14.272  13.476  0.2099 -0.2449  0.2537
32202W        W47671   2.893  14.757  13.653 -0.0124 -0.1637  0.1715
32203W        W47672  13.408   9.458  14.256  0.0348 -0.0901  0.0002
32204W        W47673   4.331   1.993  10.848 -0.0138 -0.1512  0.0244
32205W        W47674   3.036  12.804  14.161  0.2449  0.1628  0.1516
32206W        W47675   8.928   9.347  10.940 -0.1475 -0.0402 -0.2181
32207W        W47676  17.333   1.730  14.867 -0.0582  0.0639 -0.0831
32208W        W47677   2.177   4.119  13.584  0.0466  0.1610 -0.1605
32209W        W47678   1.801  14.009   1.477  0.1268  0.1518 -0.1083
32210W        W47679  14.038  12.468   9.970 -0.0687 -0.0329  0.2797
32211W        W47680   6.168  13.897  15.317  0.2130 -0.0674  0.2694
32212W        W47681  16.620   0.279   3.694  0.0938  0.3042  0.2993
32213W        W47682  14.794  16.421   4.529  0.0995  0.3320  0.1625
32214W        W47683   8.840   3.686   4.337 -0.1780 -0.1179 -0.2842
32215W        W47684   4.335   5.589   0.620 -0.1285 -0.1352  0.0620
32216W        W47685   5.431  11.716  13.533 -0.1233  0.1239 -0.1240
32217W        W47686  11.054  10.214   3.184 -0.1514  0.3593  0.0106
32218W        W47687  15.860  11.620   4.123  0.3687 -0.4323 -0.2193
32219W        W47688   1.570   5.423   2.366  0.0712 -0.2132  0.3599
32220W        W47689   6.261   3.614  15.818  0.0734 -0.1326 -0.2761
32221W        W47690   6.275  16.102   1.833 -0.0698 -0.1390  0.0394
32222W        W47691   4.291  18.167   5.760  0.0410  0.1471 -0.2081
32223W        W47692  17.264   5.482  12.457 -0.4140  0.0584  0.3142
32224W        W47693  11.658   0.653   2.878 -0.0576 -0.2493 -0.3624
32225W        W47694  16.879   6.673  15.659 -0.1507 -0.2993 -0.1127
32226W        W47695   3.093  10.692  12.207  0.1740 -0.0701  0.0815
32227W        W47696   8.088   8.759  15.255  0.0237 -0.0846 -0.0630
32228W        W47697  14.908  16.662   0.337  0.2279 -0.0123 -0.2936
32229W        W47698   3.007  15.875   5.570 -0.2904 -0.3192 -0.0786
32230W        W47699   7.182  14.964   1.487  0.2126 -0.1615 -0.0120
32231W        W47700   4.203  14.498  13.361 -0.2035  0.1886 -0.0942
32232W        W47701   7.302  15.146  10.651  0.0417  0.0351 -0.3155
32233W        W47702  13.385   9.043   1.329 -0.1261 -0.1600 -0.0909
32234W        W47703   3.058  11.191   1.607  0.1453  0.3116  0.0908
32235W        W47704  12.386  16.259  15.047  0.3745  0.0953  0.0604
32236W        W47705  10.745   9.332  13.661 -0.2202 -0.0402 -0.4327
32237W        W47706   5.624   6.686   2.138  0.5491  0.0654 -0.0027
32238W        W47707  12.847  17.432   4.074 -0.0142  0.1298  0.2356
32239W        W47708   2.114  12.152   0.793  0.0015 -0.0154  0.1422
32240W        W47709  10.066   4.798   5.069 -0.2284  0.0256 -0.2598
32241W        W47710  11.350   6.145  11.063 -0.0617 -0.0372  0.2718
32242W        W47711  17.873  15.585   2.381 -0.0017 -0.1952 -0.2232
32243W        W47712  12.285  15.311   4.392 -0.0076  0.2945 -0.1429
32244W        W47713   6.975   2.712  14.660  0.0211  0.1318 -0.1004
32245W        W47714   8.933   8.938   1.183  0.1789  0.1253  0.2075
32246W        W47715  16.936   6.675  12.525 -0.1745  0.1991  0.0990
32247W        W47716   0.444  17.603   3.641  0.0636 -0.1495  0.3148
32248W        W47717  15.630   8.010  13.350 -0.0810  0.1816  0.2113
32249W        W47718  16.488   3.585  13.803  0.0125  0.5099  0.0047
32250W        W47719   0.877   3.445   0.422  0.2955  0.2254  0.0049
32251W        W47720  15.451   1.718  12.279 -0.1648  0.2985 -0.3005
32252W        W47721   9.672   2.510   0.415 -0.0462 -0.0752  0.0678
32253W        W47722   1.696  11.919  12.016 -0.4824  0.6071  0.0498
32254W        W47723   0.518   8.907   0.262  0.0932 -0.1155  0.1794
32255W        W47724   7.499   0.797  11.643  0.0752  0.0289 -0.0145
32256W        W47725  11.119  13.745   4.283  0.0188 -0.0264 -0.1557
32257W        W47726   5.807  15.920   2.092 -0.1567 -0.4526 -0.1548
32258W        W47727   7.220   1.137   4.179  0.1544  0.1857 -0.1975
32259W        W47728  10.389   3.962   6.285 -0.0312  0.2320 -0.0477
32260W        W47729   7.699  13.776   4.096 -0.0880  0.2297  0.1952
32261W        W47730   5.183  17.545   1.334  0.1280  0.1846 -0.1676
32262W        W47731   7.852   9.529   3.807 -0.2569  0.4481 -0.1107
32263W        W47732  15.337   6.345  12.299  0.0731 -0.1053  0.3788
32264W        W47733   7.998  17.958  14.203 -0.0347  0.0128  0.1370
32265W        W47734  11.885  15.237  14.177  0.2907  0.4564 -0.1300
32266W        W47735   1.620  13.549   1.523  0.0619  0.0898 -0.3847
32267W        W47736   4.507   1.592  14.592 -0.1167 -0.1573  0.1246
32268W        W47737  12.769   1.111   4.216 -0.2383 -0.0799 -0.0128
32269W        W47738  18.068  15.113  13.950  0.0325  0.1037 -0.1736
32270W        W47739  15.648  14.935   0.684  0.2295  0.3061  0.2498
32271W        W47740   0.237   6.888   2.934 -0.3539 -0.0449 -0.1530
32272W        W47741  17.725   7.014  14.080  0.4001  0.1671  0.0982
32273W        W47742   7.655  16.275  14.319 -0.0019  0.2176 -0.0349
32274W        W47743  17.481   6.169  10.999 -0.1232  0.3587 -0.1328
32275W        W47744   4.627   1.670  11.499 -0.1760 -0.0217 -0.1114
32276W        W47745   9.930   7.033   2.827  0.2527 -0.0223  0.1098
32277W        W47746  17.258   7.296  13.536  0.1852 -0.3043 -0.1036
32278W        W47747  11.222   1.582   1.322 -0.2001  0.2227  0.0346
32279W        W47748  11.380   4.664   0.411  0.0669 -0.1568  0.2268
32280W        W47749  17.964  16.628   5.588 -0.0378  0.1062 -0.0793
32281W        W47750  15.854  14.861   3.170  0.0195  0.0344  0.0758
32282W        W47751   0.742  13.122  14.797 -0.2047 -0.4908 -0.0430
32283W        W47752  15.032  17.364  12.882 -0.1159  0.0151 -0.1741
32284W        W47753   8.766  12.753   0.752  0.2743 -0.0296 -0.0289
32285W        W47754   2.822   3.498  13.743  0.0750  0.0790 -0.1101
32286W        W47755   4.219   4.113  12.934  0.0892 -0.1731 -0.1196
32287W        W47756   2.373  10.656  12.912  0.2904  0.0600 -0.0001
32288W        W47757   8.692   6.895  11.977 -0.0797  0.0602  0.0374
32289W        W47758   8.209  15.669   1.060  0.4719  0.0068  0.2928
32290W        W47759  17.284   1.285   0.457  0.1648 -0.1225  0.1694
32291W        W47760   0.580   5.127  13.472  0.0993  0.1169 -0.0481
32292W        W47761   6.224  12.876  14.062  0.0109  0.0011 -0.0820
32293W        W47762  12.874   6.844  11.687 -0.1398 -0.3614 -0.0294
32294W        W47763   0.734  12.428  10.071 -0.1299  0.2848  0.1386
32295W        W47764  10.472   3.666   0.474  0.1144 -0.1140 -0.0509
32296W        W47765   1.100  16.838   2.886  0.4468  0.1993  0.1349
32297W        W47766   4.356  14.778   1.787  0.0340  0.1439  0.0625
32298W        W47767  13.145   9.263  10.832 -0.0364  0.0061  0.0699
32299W        W47768  16.192  17.344   6.053 -0.5379  0.3056 -0.0449
32300W        W47769   8.075  13.245  15.245 -0.0497 -0.0549 -0.5769
32301W        W47770   4.908  13.403   5.986 -0.1620 -0.0176 -0.1640
32302W        W47771   0.351  11.926  10.554 -0.2230  0.1510 -0.0583
32303W        W47772   0.947  10.170   2.690  0.2062  0.1498 -0.2622
32304W        W47773   7.237   6.609  11.680 -0.0783  0.2164 -0.1799
32305W        W47774  15.321  18.162  12.452  0.0811 -0.1141 -0.3274
32306W        W47775  13.093  17.116   4.754 -0.0884  0.0642 -0.2148
32307W        W47776  15.120   9.438   1.922 -0.0751  0.0759 -0.0444
32308W        W47777   0.034  15.389  14.754 -0.1967 -0.0186  0.1324
32309W        W47778  12.103   4.487   2.635 -0.0014 -0.2524 -0.0429
32310W        W47779   3.671   4.150  12.733  0.1586 -0.1074  0.0804
32311W        W47780   2.645   2.511  15.484  0.0130 -0.1672 -0.0039
32312W        W47781   8.034   8.682  15.760  0.0504  0.1010 -0.1220
32313W        W47782   6.785   9.975  13.221 -0.0544 -0.2688  0.0751
32314W        W47783  16.914   6.776  13.001  0.2672  0.0927 -0.1337
32315W        W47784  15.011   5.356   2.540 -0.1335  0.1092  0.2338
32316W        W47785   3.179  15.401   4.661 -0.1195  0.2355  0.3055
32317W        W47786   3.553  16.059   5.418  0.0291 -0.0701  0.0198
32318W        W47787  16.219   8.211   4.057  0.0115 -0.0249 -0.2525
32319W        W47788   6.295   4.870   1.447  0.2139  0.0302 -0.1358
32320W        W47789  17.543   7.464  15.494  0.0759  0.1606 -0.0275
32321W        W47790   1.945  12.148  10.027 -0.3716 -0.0072 -0.2475
32322W        W47791   0.448   1.789   4.223 -0.0129  0.0868 -0.1958
32323W        W47792   6.286  16.576  11.838  0.1393 -0.1435 -0.0048
32324W        W47793   2.035   1.610  12.532 -0.1773 -0.2801 -0.0680
32325W        W47794   6.739   3.972   1.039 -0.0378  0.0275 -0.1395
32326W        W47795   5.846   3.955  14.214  0.0463 -0.1543  0.0132
32327W        W47796   8.988   3.765   1.080  0.0659  0.0959 -0.0840
32328W        W47797  16.040   7.308  15.728  0.0764 -0.2310 -0.1091
32329W        W47798  11.622   9.102   4.703 -0.0632  0.1683  0.0923
32330W        W47799   1.241   2.871   2.246 -0.2664 -0.0365  0.2661
32331W        W47800  15.189   9.433   1.408 -0.1385  0.0639  0.2145
32332W        W47801  15.876  14.206  11.847 -0.1273  0.1819 -0.0301
32333W        W47802  13.325   6.770  12.769 -0.2021 -0.0313  0.3545
32334W        W47803  15.304   0.985  15.391  0.1580 -0.2387  0.2641
32335W        W47804   5.909   7.944   4.208  0.0474  0.0110  0.3901
32336W        W47805   7.225  17.759   0.000  0.2116  0.1743 -0.1582
32337W        W47806   9.845   2.215   3.902 -0.1670 -0.0180 -0.0210
32338W        W47807  10.650   7.547  12.037 -0.1476  0.1687  0.1013
32339W        W47808   1.126   6.514  14.782 -0.2396  0.0371  0.1236
32340W        W47809  12.944   5.344  11.695 -0.2085  0.2119  0.2171
32341W        W47810   9.225   0.529  13.047  0.0792 -0.0145  0.1232
32342W        W47811   1.794   9.390  11.068 -0.4236 -0.1311 -0.0692
32343W        W47812   8.680  13.068  14.718  0.3828  0.1156 -0.0579
32344W        W47813   2.433   9.966  13.933  0.4884  0.2390 -0.1258
32345W        W47814   3.096  14.884  12.817  0.1018  0.1330  0.1319
32346W        W47815   8.490   4.194  14.018 -0.1064 -0.1546  0.0040
32347W        W47816  14.358  15.618  13.414 -0.2276 -0.0348  0.2490
32348W        W47817   1.770  10.467   2.610  0.0563 -0.0424 -0.0542
32349W        W47818   2.181  15.970  12.647  0.0956  0.1002  0.2022
32350W        W47819   5.807   0.962  11.319 -0.1188  0.0009  0.1526
32351W        W47820   5.298   9.604   3.804 -0.1723 -0.0879  0.3182
32352W        W47821  13.796  12.377  12.371  0.0523  0.2381  0.4674
32353W        W47822   5.811  13.749  11.443 -0.3158  0.0725 -0.1206
32354W        W47823   5.232   2.138   6.247  0.0386  0.1083  0.2638
32355W        W47824   0.164  14.609   0.665  0.0309  0.3097  0.2100
32356W        W47825  10.830  14.255   4.163 -0.0699  0.3021 -0.1620
32357W        W47826  14.933   2.489   0.091 -0.1023  0.2154 -0.1624
32358W        W47827   9.630  11.792  14.966 -0.0683  0.0563  0.1897
32359W        W47828   0.287   4.161   1.548  0.0439 -0.2168 -0.2201
32360W        W47829   5.359   5.319  12.836  0.0279  0.2393 -0.0935
32361W        W47830  17.190   9.428   1.466  0.1187 -0.1170  0.1510
32362W        W47831  15.816   2.914   2.780 -0.0449  0.3202  0.0573
32363W        W47832  18.097   5.840   1.684  0.1268 -0.2261  0.3368
32364W        W47833  15.463  13.127   1.803 -0.0206  0.1062  0.2691
32365W        W47834   4.924   0.915  12.768  0.0276 -0.0359 -0.2711
32366W        W47835  13.751   4.927  15.781 -0.3396 -0.2675 -0.0177
32367W        W47836  14.468  16.569  15.341  0.0400 -0.0389  0.1548
32368W        W47837  14.669   4.688   4.761  0.2505 -0.0365  0.1809
32369W        W47838   5.280   5.260   0.212  0.1444 -0.2938  0.2018
32370W        W47839  12.734  10.682   1.689 -0.1711 -0.1474  0.3635
32371W        W47840   2.968   6.494   0.761 -0.0203 -0.3083 -0.1433
32372W        W47841   2.276  14.629  14.484  0.4017  0.2569  0.3982
32373W        W47842  13.722   8.611  13.994  0.1695  0.1167  0.2000
32374W        W47843   3.328  14.173   1.271 -0.1099 -0.0059 -0.1677
32375W        W47844   4.716   3.996   0.507 -0.2778  0.0942 -0.1565
32376W        W47845   4.533  11.625   3.053 -0.0913 -0.1854 -0.0411
32377W        W47846  10.132   2.197   0.668  0.0851  0.1972  0.0070
32378W        W47847   9.525  15.445   0.486 -0.1502 -0.0544 -0.0661
32379W        W47848   6.598  12.518  12.679  0.0808  0.0067  0.0952
32380W        W47849  11.534  15.461   0.847 -0.3525  0.0021  0.2769
32381W        W47850   4.830   3.902   5.218  0.0126  0.3401  0.0355
32382W        W47851   5.257  10.510   1.139  0.1843 -0.0857  0.1292
32383W        W47852   1.225   5.154  15.104 -0.1472 -0.0793 -0.0554
32384W        W47853   7.223  10.079   0.965 -0.2006 -0.0511  0.3015
32385W        W47854   9.437  15.361  12.719  0.1525 -0.2567 -0.2254
32386W        W47855  11.647  12.561   5.871  0.1841  0.0316  0.4851
32387W        W47856  13.961  15.417   4.484 -0.0561 -0.0349  0.0437
32388W        W47857  16.046   8.705   5.047 -0.0965  0.0810  0.1753
32389W        W47858  10.513  14.334   5.842  0.2424  0.1451  0.1976
32390W        W47859  11.544   8.969  16.066  0.0519 -0.1097 -0.3446
32391W        W47860   6.058  17.504   4.847  0.2575 -0.0990 -0.0597
32392W        W47861   9.603  17.437   5.430 -0.0574 -0.1141 -0.0680
32393W        W47862   5.873  11.784  14.462 -0.0161  0.0242 -0.1761
32394W        W47863  14.040   9.487   4.144 -0.2682 -0.3059 -0.3032
32395W        W47864  16.371   3.578   2.305  0.0542  0.1803 -0.0851
32396W        W47865  15.915   8.003   0.143 -0.0936  0.1080 -0.0577
32397W        W47866   7.545   6.957   1.400  0.0530 -0.3472 -0.2779
32398W        W47867   6.117  17.636  13.260  0.1360  0.1955  0.0620
32399W        W47868   5.889   1.114   0.081  0.3640 -0.0498  0.1603
32400W        W47869  11.884  17.600   1.387  0.0808 -0.1034  0.2155
32401W        W47870  14.799  10.485   3.495  0.1108 -0.2003  0.0639
32402W        W47871  11.404  16.180  15.184 -0.0479  0.2161 -0.2888
32403W        W47872  15.504   8.755   5.514  0.2116  0.0262 -0.0085
32404W        W47873   5.050  14.900   0.026 -0.1156 -0.0366 -0.1210
32405W        W47874  10.003  12.771  14.191 -0.0083 -0.0573  0.2381
32406W        W47875  11.462  13.019   1.455 -0.1213  0.1726  0.0227
32407W        W47876   3.731  10.260  12.756 -0.3637  0.0856 -0.0567
32408W        W47877  12.496  14.895  11.196  0.1707 -0.1794 -0.1790
32409W        W47878   2.883   6.742  12.318  0.0313  0.1524 -0.0258
32410W        W47879   5.186  12.408   0.904 -0.2355  0.0548  0.0888
32411W        W47880   3.230   0.084   1.515 -0.2568 -0.0325 -0.0727
32412W        W47881   2.706  15.205  12.004  0.0019  0.1157  0.3721
32413W        W47882  10.094   4.536   3.631 -0.0044 -0.2422 -0.1576
32414W        W47883  14.371  17.913   0.280  0.2051 -0.2132 -0.1530
32415W        W47884   0.283   2.782  11.917  0.1674 -0.0945 -0.0632
32416W        W47885  11.512   6.938   3.562  0.0885 -0.2660 -0.1814
32417W        W47886   2.860   0.197  13.764  0.2891  0.0014  0.0738
32418W        W47887   2.764  15.715   1.617  0.0035  0.3220  0.1517
32419W        W47888  11.178  12.804  11.844 -0.0040  0.2290 -0.1595
32420W        W47889   6.793   7.369   2.686 -0.2798 -0.1264 -0.1455
32421W        W47890  16.158  12.444   1.186  0.1237 -0.0011  0.0358
32422W        W47891  13.367   9.213  15.559 -0.1118 -0.1995 -0.0788
32423W        W47892   3.010  11.330  12.684 -0.0014 -0.1094  0.0071
32424W        W47893   8.017  16.340   5.646  0.2591  0.1387  0.3136
32425W        W47894   1.412   9.735  13.048 -0.2498 -0.0321  0.0421
32426W        W47895  13.020  14.882   2.160 -0.0857  0.2230 -0.2565
32427W        W47896  14.960   9.033   0.163  0.1695  0.1291  0.0513
32428W        W47897  11.097   2.984  12.775  0.0199  0.1963  0.1788
32429W        W47898   1.427   6.842   3.731 -0.0464  0.0474  0.3077
32430W        W47899   8.080   6.578   4.561  0.2511 -0.4365  0.1988
32431W        W47900   9.387   2.683  12.677  0.1028 -0.0351 -0.1150
32432W        W47901  14.167  14.787   2.454  0.0247 -0.3988  0.2449
32433W        W47902  14.967   2.176   1.829  0.1866  0.0856  0.1789
32434W        W47903  10.821   8.272  11.372 -0.0847 -0.2765 -0.0667
32435W        W47904  17.922   3.541   3.326 -0.0312  0.0042  0.0714
32436W        W47905   9.627   3.474   0.466  0.0288  0.1801 -0.1094
32437W        W47906   4.905   3.862  15.650 -0.0588  0.1413  0.0857
32438W        W47907  14.182  11.370   1.592  0.4090  0.1493  0.1013
32439W        W47908   2.781  14.308  15.150  0.0840  0.2831 -0.2599
32440W        W47909   7.429   2.422  13.471 -0.1980  0.2837 -0.0852
32441W        W47910  11.489  17.208  11.585  0.0421 -0.0479 -0.0142
32442W        W47911   4.411   4.949   1.771 -0.3268  0.0213  0.0201
32443W        W47912   2.145   6.654  11.318 -0.1522 -0.2036  0.0186
32444W        W47913   5.530  10.346   1.566 -0.0866  0.0358  0.2248
32445W        W47914   9.113   5.948  14.337  0.0882  0.2725 -0.0675
32446W        W47915   4.222   3.567  11.075  0.0051  0.2650 -0.1406
32447W        W47916  10.882  15.220  12.455 -0.2512  0.2619 -0.0745
32448W        W47917   6.432  14.413  15.557 -0.2919 -0.0748  0.1460
32449W        W47918   9.418   1.850   4.412  0.0341  0.2985 -0.1640
32450W        W47919  13.844  10.404  14.024 -0.0469 -0.0185 -0.1586
32451W        W47920  16.680   7.913  13.422 -0.3282  0.1970 -0.2000
32452W        W47921  10.202  14.312  14.517  0.1405  0.1426  0.0033
32453W        W47922   6.138   7.067   1.609  0.0450 -0.3254 -0.0360
32454W        W47923  10.662  13.234   5.641  0.0768 -0.0797  0.0893
32455W        W47924  14.192   2.087  11.722  0.2776 -0.0559  0.1484
32456W        W47925  15.242  14.512  11.166  0.0792 -0.1487  0.1065
32457W        W47926  16.949  13.027   1.710  0.2816  0.2559  0.2196
32458W        W47927  12.499   9.558   0.765  0.2292  0.3129  0.1289
32459W        W47928   5.989  16.212  13.741  0.1333  0.1427 -0.0917
32460W        W47929   9.944  10.400   4.024  0.2146 -0.4814 -0.1752
32461W        W47930   4.117   5.098  11.091  0.0826  0.5593 -0.1023
32462W        W47931  10.036   2.911  15.334 -0.1177  0.1009  0.0786
32463W        W47932   7.977  17.288  14.134 -0.0723  0.1694  0.0674
32464W        W47933  13.430   8.742  12.161  0.4881 -0.3087  0.1540
32465W        W47934   6.168  10.581   0.861  0.1609  0.1102 -0.1480
32466W        W47935  10.150   7.273  13.225 -0.2045 -0.2122  0.1639
32467W        W47936  12.171   8.104  15.622 -0.0349 -0.1078  0.1938
32468W        W47937   9.377   5.868   4.578 -0.0009  0.0103  0.2459
32469W        W47938   4.957  17.486   1.807  0.1523 -0.0661 -0.1121
32470W        W47939  10.106   5.796   4.641 -0.0893  0.0332 -0.0725
32471W        W47940  13.665  12.683   2.719  0.1495 -0.0474 -0.0081
32472W        W47941  16.755  11.484   3.910  0.0693  0.1408 -0.1366
32473W        W47942  12.219   1.418  14.547 -0.0902 -0.0161  0.1220
32474W        W47943  17.675   6.659   5.305 -0.0052 -0.0711  0.3937
32475W        W47944   9.256   4.458   3.403 -0.4724 -0.2013  0.4908
32476W        W47945  17.494   6.317   3.583 -0.1922 -0.2185  0.2555
32477W        W47946   6.127   3.716   0.239 -0.0232 -0.0607  0.0831
32478W        W47947  13.221   9.546   1.401  0.0011 -0.3102 -0.2478
32479W        W47948   7.830   9.626  10.925 -0.1588  0.0495 -0.2814
32480W        W47949   9.767  15.813  14.998 -0.2150 -0.1590 -0.0761
32481W        W47950  10.040  13.183   5.227 -0.1608  0.2032 -0.1487
32482W        W47951  14.132  10.968   3.353 -0.0577 -0.0658  0.0066
32483W        W47952   5.168  13.733   1.294  0.0133  0.1196  0.0402
32484W        W47953  18.121   3.678   2.769 -0.0549  0.2448 -0.3054
32485W        W47954  15.675   7.476   4.852 -0.1101 -0.0898 -0.0143
32486W        W47955   5.500   3.894  12.055  0.4016 -0.1805  0.3156
32487W        W47956  13.920   6.084  14.683 -0.0519 -0.1135 -0.2257
32488W        W47957  10.670  17.216   0.648  0.0435  0.0643 -0.0856
32489W        W47958  16.526   3.435   4.810 -0.1749  0.0585 -0.0608
32490W        W47959   6.185  12.882  15.855 -0.1431  0.1089 -0.2023
32491W        W47960  11.766  11.300   0.954 -0.2207 -0.1190  0.0985
32492W        W47961  13.667   4.536  12.800  0.2732 -0.0007 -0.0313
32493W        W47962  13.288   7.444   0.448 -0.1860  0.1203 -0.0652
32494W        W47963   2.817  14.503  15.816  0.1852  0.1104 -0.0088
32495W        W47964  10.556  14.527  14.813  0.0184 -0.1771  0.0226
32496W        W47965  12.325  14.201   3.751  0.4416 -0.1385 -0.4867
32497W        W47966   8.460  14.027  11.978  0.0682 -0.1387 -0.1069
32498W        W47967  14.618  11.818  12.849 -0.2762  0.2356  0.3527
32499W        W47968   6.587  15.830  15.229  0.1370  0.1733 -0.1706
32500W        W47969  11.351   5.873   2.154  0.0892 -0.2304 -0.2016
32501W        W47970   4.819   6.803   5.037 -0.2697 -0.3673 -0.2189
32502W        W47971  11.843  16.369  11.089  0.0065 -0.2131 -0.2250
32503W        W47972   5.552  11.852  14.802  0.0741 -0.3060 -0.2153
32504W        W47973   2.548  12.575  11.703  0.0734  0.2958 -0.2875
32505W        W47974   0.090  14.688   5.834 -0.2893  0.0661  0.1574
32506W        W47975  12.741   9.508   3.245  0.2651 -0.0137  0.0508
32507W        W47976   2.561  12.519   0.754 -0.0815  0.2247 -0.1520
32508W        W47977   5.966   6.767   2.504  0.1522  0.0642  0.1426
32509W        W47978   0.744  12.426  14.648  0.1065 -0.0483  0.0343
32510W        W47979   5.147   2.264   0.376  0.2716 -0.1110 -0.1479
32511W        W47980   0.594  10.970   2.141 -0.2742 -0.0520  0.1537
32512W        W47981   3.919   2.279  14.001  0.0833  0.0158 -0.0963
32513W        W47982   8.266   0.371   3.517  0.0893 -0.0103 -0.3311
32514W        W47983  10.337   2.895  15.756  0.2728 -0.1089 -0.0732
32515W        W47984   5.870  10.219  15.129  0.2682  0.1819  0.0396
32516W        W47985   8.244   4.643  14.164 -0.2098 -0.0552 -0.0107
32517W        W47986  15.127  18.195  11.844  0.1999 -0.2469  0.2878
32518W        W47987   0.203  16.288  11.803  0.0521  0.0612 -0.0811
32519W        W47988  14.329  17.749   1.032  0.0934 -0.1658  0.0613
32520W        W47989  10.485  17.314   1.255  0.0483  0.0137 -0.0462
32521W        W47990   4.037   2.254  15.026  0.1747  0.2563  0.0453
32522W        W47991   8.668   0.462   1.439 -0.0939  0.1429 -0.1289
32523W        W47992  16.476  13.456  13.967  0.1008  0.2121  0.1847
32524W        W47993   9.376   0.903   2.257 -0.0800 -0.1209 -0.0004
32525W        W47994   9.670  11.660   3.136  0.2715 -0.2418  0.0391
32526W        W47995  11.205   8.789   1.175 -0.2037  0.0189 -0.2424
32527W        W47996  11.001  10.876   4.342  0.1288  0.0232 -0.3711
32528W        W47997  10.196  15.278   1.817 -0.0308  0.0156  0.1428
32529W        W47998  12.629  16.412   2.488 -0.1210  0.0016  0.1732
32530W        W47999   0.388   8.166   5.121  0.0471 -0.3038 -0.3191
32531W        W48000  11.321   4.743   4.856 -0.0899 -0.1223  0.1746
32532W        W48001   8.925   1.174  14.479 -0.1186  0.2058 -0.0621
32533W        W48002   4.573  13.934   2.766 -0.2420 -0.2001  0.0476
32534W        W48003  14.023   5.559   2.739 -0.0421 -0.0340  0.1698
32535W        W48004  15.432  10.536   4.575  0.3237 -0.0747 -0.3027
32536W        W48005  15.783   3.504  13.241 -0.1047  0.0453 -0.3227
32537W        W48006  11.711  16.620   4.127  0.1895  0.2860  0.0131
32538W        W48007  17.647  14.964   5.605 -0.3474  0.0045  0.0025
32539W        W48008  11.857   7.317   3.031  0.0646  0.1272  0.1247
32540W        W48009  17.288   3.332   0.510 -0.0056 -0.1108  0.0454
32541W        W48010  12.340   1.865   4.145  0.1276 -0.2161 -0.1686
32542W        W48011  16.606  10.498  11.760 -0.0151 -0.0326 -0.0009
32543W        W48012   6.048  14.130   2.794 -0.2830 -0.1303  0.0345
32544W        W48013  11.851   0.510  12.950 -0.1956 -0.0283 -0.2324
32545W        W48014  15.967  12.943   1.472  0.1324 -0.0487  0.1621
32546W        W48015   2.854   4.342  14.361  0.0523  0.0460  0.0051
32547W        W48016   6.804  15.632   1.065 -0.0761 -0.1740  0.1525
32548W        W48017  10.900   6.969  12.122  0.0847 -0.0284  0.2226
32549W        W48018   3.932   1.898   5.544  0.1992  0.0124 -0.0894
32550W        W48019  14.658  12.583  13.520 -0.1990 -0.2688 -0.4529
32551W        W48020   8.104   3.653  15.906  0.3780 -0.0063  0.0124
32552W        W48021   4.470   0.835  12.575  0.4195  0.1442  0.3235
32553W        W48022   7.482  12.232  13.280 -0.1047  0.1687 -0.2008
32554W        W48023   4.142  12.460   0.626 -0.0907 -0.1410  0.0329
32555W        W48024  11.637   4.832  15.544  0.0784  0.1641  0.3650
32556W        W48025   1.045   7.056   4.142 -0.1168  0.1005  0.0414
32557W        W48026   0.701  14.843  15.695  0.2078 -0.2488  0.3230
32558W        W48027   6.546  13.228  15.624 -0.3596  0.2383  0.1364
32559W        W48028   5.139   3.372  14.193 -0.3202 -0.1383  0.0641
32560W        W48029   5.344  17.141   1.050  0.2719  0.3729  0.0828
32561W        W48030   4.864  17.350   5.664 -0.0895 -0.0663 -0.0222
32562W        W48031   8.361  11.155   5.288  0.0919  0.2021  0.0908
32563W        W48032  11.647   0.491   5.511  0.0244 -0.0028 -0.3415
32564W        W48033  11.397   4.553  14.434  0.1900  0.1968  0.1520
32565W        W48034   9.662   9.420   0.663 -0.3514 -0.2116 -0.2364
32566W        W48035   8.938   4.977   4.578  0.0921  0.2296  0.0198
32567W        W48036   3.821   8.247  12.726 -0.2125  0.0438 -0.1227
32568W        W48037  16.022   5.459  14.574 -0.1039 -0.1786 -0.2044
32569W        W48038   1.974  12.287  12.246  0.1433  0.0137  0.1192
32570W        W48039  15.768  12.779  13.546  0.0807  0.2001 -0.2823
32571W        W48040  14.931  10.426   2.183 -0.0296  0.4350  0.1850
32572W        W48041  13.522   5.044  12.570 -0.1475 -0.0852 -0.1198
32573W        W48042  11.960  15.555  11.894  0.0236 -0.1823 -0.0437
32574W        W48043   3.850  13.423   2.968 -0.1748  0.0863 -0.1012
32575W        W48044  14.499   9.408  12.774  0.1362  0.0128  0.2608
32576W        W48045   9.637   5.561   1.207 -0.1709  0.1419 -0.0513
32577W        W48046  16.382   2.128   2.432  0.0644 -0.0939 -0.1917
32578W        W48047  12.125   5.422  11.636 -0.0808 -0.0830 -0.1481
32579W        W48048  16.247  17.443   2.654 -0.1362  0.1122 -0.1755
32580W        W48049  17.785  11.382   3.116  0.2160  0.0500 -0.1928
32581W        W48050  12.380  13.509  12.483  0.0708 -0.2417  0.1498
32582W        W48051  18.119   7.473   1.322  0.1494  0.0600  0.3579
32583W        W48052   7.862   3.217  10.504 -0.0769  0.2139  0.2437
32584W        W48053   5.085   8.648   2.169  0.1707 -0.0072 -0.1778
32585W        W48054  11.622  16.263   0.048  0.1077 -0.1736  0.1671
32586W        W48055  15.716   5.071  15.335  0.4436 -0.0765 -0.0199
32587W        W48056  10.495   2.046   0.030 -0.1378 -0.2014 -0.2036
32588W        W48057  11.775  14.306   6.041  0.4023 -0.3220  0.0370
32589W        W48058  17.202  17.196   2.918  0.4096  0.0556 -0.0806
32590W        W48059   9.836   7.441  11.562  0.0593 -0.1785  0.2331
32591W        W48060   7.766  10.377   3.454 -0.0524  0.0714  0.2652
32592W        W48061   4.067   0.835  14.556 -0.2431  0.0450 -0.1293
32593W        W48062   9.385  16.561   9.935  0.0034  0.1570  0.0266
32594W        W48063  15.310  13.690   1.518 -0.1553  0.1339  0.3052
32595W        W48064  12.244  11.862   1.503 -0.0949  0.0984 -0.1752
32596W        W48065  10.261  14.278  11.428 -0.2456 -0.2366  0.0605
32597W        W48066   1.462   5.081  11.152  0.0517  0.0465  0.1178
32598W        W48067  11.748   8.395   5.861  0.1415  0.0509  0.0459
32599W        W48068  17.165   4.147   4.404 -0.1854  0.4256  0.4997
32600W        W48069  16.776  10.398  12.310  0.1635  0.0231 -0.4610
32601W        W48070   7.331   1.253   3.034 -0.0049  0.3366  0.0095
32602W        W48071  17.160   3.699   2.140  0.3714  0.0129 -0.2267
32603W        W48072   2.186  10.926  13.411 -0.0464  0.1517  0.0558
32604W        W48073   0.606  17.005  15.165  0.0252  0.0058 -0.3799
32605W        W48074   1.573   4.537   4.804 -0.0119  0.0225  0.1220
32606W        W48075  11.484   7.435   5.359  0.0151  0.0860 -0.2860
32607W        W48076  17.387  16.345  13.671 -0.0688  0.0508  0.0980
32608W        W48077   3.099   0.614  12.725 -0.0624 -0.0600 -0.2310
32609W        W48078   5.131  12.571   2.845  0.0127 -0.2537 -0.3706
32610W        W48079   6.563  10.001   1.708 -0.0645 -0.0377 -0.0417
32611W        W48080  18.283   9.610  11.502 -0.1148  0.0407  0.2085
32612W        W48081   0.812   7.645  15.634  0.0189 -0.1739 -0.1230
32613W        W48082   0.742  18.256   3.031  0.4243  0.1819  0.0030
32614W        W48083  17.247   0.245   1.213 -0.1552  0.1574  0.0757
32615W        W48084  16.756   3.872  15.397 -0.2527 -0.0960  0.1834
32616W        W48085   6.573   7.366   4.152  0.1441  0.1670 -0.1240
32617W        W48086  17.513   5.866  14.932  0.0346 -0.0120  0.1861
32618W        W48087  15.886  12.350  15.260 -0.1388 -0.0869 -0.0744
32619W        W48088  10.899  14.271   5.534  0.0187 -0.1448 -0.0752
32620W        W48089  16.994  13.167   4.632  0.0725  0.1683 -0.1422
32621W        W48090   2.986   5.198   3.563  0.1719  0.0957 -0.1694
32622W        W48091  18.037   9.694  12.926 -0.1989 -0.1077  0.1079
32623W        W48092  16.505  17.160  12.271 -0.1605 -0.0251  0.0065
32624W        W48093   4.109   8.229  10.048 -0.0069 -0.4031 -0.4358
32625W        W48094   2.956  14.619   1.459  0.0063 -0.0305 -0.1423
32626W        W48095   0.810  17.472  13.095 -0.1212  0.1789  0.3928
32627W        W48096  14.198   0.772   6.443 -0.3393  0.1486 -0.0785
32628W        W48097   3.006  15.443   1.211 -0.0370 -0.0686  0.0530
32629W        W48098   2.817  11.243  11.634 -0.3270  0.0995 -0.2241
32630W        W48099   9.591   0.049   5.250 -0.0281  0.0311 -0.3294
32631W        W48100   5.589   6.910  12.562  0.1777 -0.0660  0.0529
32632W        W48101  10.668   6.460   3.431 -0.1740 -0.0623  0.2116
32633W        W48102   8.185  11.417  12.981 -0.2680 -0.2247 -0.1451
32634W        W48103   1.782   8.245  14.605 -0.1003 -0.0177 -0.0525
32635W        W48104   3.874  17.481  12.118  0.0098 -0.1241 -0.0574
32636W        W48105  17.183  10.285  13.879  0.0849 -0.1609 -0.1287
32637W        W48106   0.837   9.546  11.076  0.2059  0.1463  0.1589
32638W        W48107   8.529   6.875   3.934  0.2283  0.2867  0.0985
32639W        W48108   5.619  11.272  12.279 -0.0304 -0.1692 -0.1014
32640W        W48109  11.160   2.374  13.025 -0.2691  0.1700  0.0370
32641W        W48110   1.832  11.907   5.718 -0.0587  0.0749 -0.0957
32642W        W48111   0.651  16.363   1.528  0.0302  0.0034 -0.0774
32643W        W48112  13.288  12.459   5.907  0.1531 -0.0783 -0.1851
32644W        W48113  11.152   4.718  12.073  0.0843  0.2820 -0.1295
32645W        W48114  13.860   1.582   2.203  0.4648  0.1671  0.1537
32646W        W48115   0.034   8.408   2.508  0.0924 -0.0403 -0.2694
32647W        W48116  18.238  10.525  12.672  0.0691  0.0742  0.1783
32648W        W48117   8.734   8.047   4.385  0.2738 -0.1486 -0.0751
32649W        W48118  13.882  10.577  11.979 -0.1045  0.2490  0.2938
32650W        W48119   6.170  13.215   1.569 -0.5879  0.4751 -0.0294
32651W        W48120  11.078   9.263  14.525 -0.2291 -0.2915  0.0221
32652W        W48121  12.579  16.126  12.039 -0.1578  0.0022  0.4048
32653W        W48122   6.339   4.060   3.564  0.1857 -0.0978 -0.2393
32654W        W48123  14.756  17.175  10.151  0.1554 -0.0489 -0.2548
32655W        W48124   8.066   8.159   3.180 -0.0847 -0.1422 -0.4168
32656W        W48125   7.325   4.131  11.510 -0.1368  0.0114  0.1618
32657W        W48126   0.709  13.591   3.715 -0.2999 -0.0759 -0.2352
32658W        W48127  14.426  18.100   0.723 -0.1455  0.2516  0.1983
32659W        W48128   6.292   4.177   4.126  0.2240 -0.0490  0.0112
32660W        W48129   1.572  15.696   4.965  0.0539 -0.2695  0.0829
32661W        W48130  13.163  17.514  13.172  0.2563 -0.0325  0.0673
32662W        W48131  14.920   0.476  12.562  0.4160  0.0442  0.1066
32663W        W48132   6.213   8.265   2.817 -0.1295  0.0367 -0.0411
32664W        W48133  11.756   3.393  15.130 -0.4969  0.2967  0.2539
32665W        W48134   1.200   0.613  12.953  0.1743  0.0983 -0.1513
32666W        W48135  14.333  14.775  15.422  0.1643  0.0776  0.0237
32667W        W48136   9.206  13.528  14.038  0.1162 -0.1230 -0.2515
32668W        W48137  10.069   1.114   1.582  0.1258  0.1380 -0.0441
32669W        W48138  17.730  11.473   4.774 -0.1985 -0.2499  0.0308
32670W        W48139   0.510  18.073  14.270  0.2042 -0.4374  0.0273
32671W        W48140  14.136   1.103  14.141 -0.0887 -0.2156  0.0789
32672W        W48141   3.931   6.730   3.651 -0.2361  0.2837 -0.1457
32673W        W48142   7.116  13.811  11.831 -0.1237 -0.0348  0.1990
32674W        W48143  17.115  10.309  10.469  0.1098  0.1341  0.1251
32675W        W48144  16.793  16.037  10.607 -0.0190 -0.0570  0.1678
32676W        W48145   0.092  10.510   3.643 -0.0424  0.0244  0.0751
32677W        W48146   0.941   0.643   0.461  0.3495  0.0127 -0.1400
32678W        W48147   5.388  10.738   5.158  0.0993 -0.0654 -0.2291
32679W        W48148   1.616   6.543   4.601  0.0898  0.2506  0.2134
32680W        W48149  18.167   8.584   3.081  0.0308 -0.4111 -0.0759
32681W        W48150   1.971   4.387   1.415 -0.0721  0.1814 -0.0082
32682W        W48151  12.470   0.787   4.835  0.3391  0.2480 -0.3735
32683W        W48152   2.295   9.804  11.286 -0.0257 -0.0083  0.3087
32684W        W48153  10.969   0.338   0.884  0.1873 -0.0317  0.0203
32685W        W48154  12.385  14.276  14.388  0.0596 -0.1658 -0.5558
32686W        W48155   5.743  17.485  14.975  0.0896 -0.2046 -0.2527
32687W        W48156   0.368   7.502  15.718 -0.0599  0.0220 -0.0166
32688W        W48157   3.790  18.088  13.361  0.2385 -0.0914  0.1207
32689W        W48158  10.839   1.452   4.658  0.0498  0.3041 -0.4859
32690W        W48159  16.686   2.444  14.753 -0.0935 -0.2899 -0.3670
32691W        W48160   2.677  14.275  14.596  0.3455 -0.1168 -0.1003
32692W        W48161   5.581  15.178   1.875 -0.1870 -0.0481  0.3387
32693W        W48162  16.201  17.658  14.171 -0.0198 -0.0899  0.1994
32694W        W48163   8.046  16.816  13.587 -0.1104 -0.2128  0.3798
32695W        W48164   2.046   1.015   5.184  0.0289 -0.2110  0.0810
32696W        W48165   2.823  17.478  14.656 -0.1345  0.1132  0.1110
32697W        W48166   7.485   6.737  10.742 -0.1719  0.0224 -0.0689
32698W        W48167  17.971  11.845  10.552 -0.3424 -0.2015 -0.1562
32699W        W48168   7.984   5.907   2.388 -0.3214 -0.2204  0.0201
32700W        W48169   7.276   3.594  11.210  0.2026  0.3754  0.1317
32701W        W48170  15.431  15.653   4.319  0.0284  0.1537  0.1117
32702W        W48171   4.645  16.985   2.941 -0.1563 -0.2953  0.2546
32703W        W48172  12.799  18.086  12.415  0.0226  0.2403 -0.0503
32704W        W48173   0.401  10.491  12.961  0.1437  0.2628  0.1233
32705W        W48174  17.579   3.472   0.935 -0.0130 -0.4200  0.0084
32706W        W48175  13.501   0.397  12.233 -0.0433 -0.0570 -0.0296
32707W        W48176   5.014  14.414  11.656 -0.2572  0.0773  0.2232
32708W        W48177   7.388  18.210  10.604 -0.0692  0.0767 -0.0947
32709W        W48178  11.850   6.262  13.464 -0.0638  0.2474 -0.0261
32710W        W48179  13.229  14.351   2.390 -0.0096 -0.0188  0.2297
32711W        W48180   3.877   4.748  14.413  0.0168 -0.3918 -0.1542
32712W        W48181  11.649  14.213  13.153  0.0323 -0.2227  0.2088
32713W        W48182   0.813   7.112  14.475  0.2477  0.1898  0.1720
32714W        W48183   3.457  17.515  14.170  0.1353  0.0234  0.1372
32715W        W48184  12.644  11.715  15.934  0.2235  0.3113 -0.0623
32716W        W48185   9.951  13.041  11.517  0.0090 -0.0952  0.1162
32717W        W48186   0.215  16.554  12.235 -0.1181  0.1661 -0.0026
32718W        W48187   0.248   0.265  14.245  0.1566  0.0683  0.0234
32719W        W48188   9.164   1.589  13.760 -0.0062  0.2250 -0.1349
32720W        W48189  12.468   7.514   2.395 -0.2767  0.1780 -0.0068
32721W        W48190  15.785  11.923  15.529 -0.1308  0.0251  0.1638
32722W        W48191   2.539   2.857   2.973 -0.1977 -0.2115  0.0734
32723W        W48192  15.187   3.662  13.426 -0.0303 -0.1771  0.0901
32724W        W48193   0.342   2.348  15.184  0.3827 -0.0751 -0.1545
32725W        W48194   8.313  10.699  12.502  0.0575  0.0254  0.0272
32726W        W48195  16.301   7.458   2.397  0.0482 -0.0886  0.1200
32727W        W48196  18.171   2.455  15.859  0.0948 -0.1289  0.1093
32728W        W48197   4.924   4.184  11.410 -0.1675  0.0056  0.0822
32729W        W48198  14.707  17.592   3.989  0.0200 -0.0144  0.2682
32730W        W48199   8.547  10.775   0.973 -0.0697  0.0240  0.1666
32731W        W48200   1.709   6.276   4.144  0.0341 -0.1810 -0.0605
32732W        W48201  15.652  11.318   4.865 -0.3821 -0.0627  0.1719
32733W        W48202   6.722   2.340  14.931  0.1620 -0.2089 -0.0793
32734W        W48203   2.727   1.308  13.273 -0.0806  0.1125 -0.1843
32735W        W48204  13.953   8.263  11.581  0.2088 -0.1439  0.1467
32736W        W48205  12.493  13.295   3.158 -0.0664 -0.0569 -0.0767
32737W        W48206   5.280   0.862  13.175 -0.0592  0.3318 -0.0137
32738W        W48207  11.909   8.120  13.893 -0.1691 -0.1908 -0.0381
32739W        W48208   6.918  17.830  14.091  0.3028 -0.1850 -0.0266
32740W        W48209   5.434  13.285   1.985  0.1220  0.1088  0.1525
32741W        W48210   0.367   6.846  12.880 -0.1912  0.4090  0.3413
32742W        W48211   2.555  12.104   2.482  0.1961  0.2270  0.0344
32743W        W48212  17.944  10.143   2.524  0.3188  0.0944  0.2788
32744W        W48213   6.055   8.209  11.223  0.0962  0.0522  0.1175
32745W        W48214   4.178   6.603   0.857  0.1088 -0.0834 -0.0629
32746W        W48215  10.598  15.565  13.838  0.2501 -0.0819  0.0302
32747W        W48216  13.762   1.157  12.914  0.1269  0.1511 -0.0590
32748W        W48217   0.693  16.355   3.898 -0.1876  0.3049  0.1735
32749W        W48218   0.396   1.658  14.096  0.0387  0.3660 -0.1511
32750W        W48219   9.155   5.534   2.333 -0.0192 -0.0437 -0.0018
32751W        W48220   7.268   7.514   2.889 -0.0611 -0.2339  0.2700
32752W        W48221   6.018   5.999   0.270 -0.1910  0.0567  0.4529
32753W        W48222   5.054   0.149  10.710  0.1766 -0.1139  0.3213
32754W        W48223  15.456   7.146  11.736 -0.2031 -0.1412 -0.0294
32755W        W48224   5.744  12.340   4.147 -0.0675 -0.0562  0.0563
32756W        W48225   2.317   5.451  13.262  0.2057 -0.0541  0.0852
32757W        W48226  13.242   8.992  12.572  0.0973 -0.1722 -0.1184
32758W        W48227  11.750   6.715   2.449 -0.2856  0.3179 -0.4074
32759W        W48228   5.185   5.963   4.922  0.2162  0.1053 -0.0873
32760W        W48229  11.462   3.208   3.380 -0.2548 -0.0934  0.0827
32761W        W48230  16.013  11.089  15.122  0.0777 -0.0581 -0.2800
32762W        W48231  16.026   6.927   3.051  0.3395  0.1681  0.4423
32763W        W48232  11.858   4.079   2.532  0.1609 -0.0718  0.1816
32764W        W48233   3.625   9.506   0.294 -0.0571  0.1558  0.0310
32765W        W48234  13.526   8.540   3.287  0.1081  0.4129 -0.2431
32766W        W48235   8.947   6.782   0.065 -0.0716  0.0048  0.2273
32767W        W48236  12.105  13.868   4.100 -0.0231 -0.0043 -0.1287
32768W        W48237   8.964  14.258  14.244  0.3363 -0.1896  0.1395
32769W        W48238   9.055  14.858   3.824  0.2244  0.1830 -0.0403
32770W        W48239  10.599   7.793  11.398 -0.0649 -0.1944  0.1314
32771W        W48240   9.172  11.999   3.190 -0.0930 -0.1424  0.0344
32772W        W48241   4.433   3.640  13.627 -0.1746  0.2767 -0.3070
32773W        W48242  11.116   0.477   0.306 -0.0366  0.1135 -0.0258
32774W        W48243  17.176  16.475   5.552 -0.1220 -0.3057 -0.0169
32775W        W48244  13.575   2.743   5.923 -0.1557 -0.1228 -0.1094
32776W        W48245  14.615  14.368  14.479  0.0420 -0.0491 -0.0549
32777W        W48246  13.623   1.302  13.390 -0.3469  0.1076  0.2268
32778W        W48247  16.293  14.266   1.243  0.1644  0.0814 -0.0721
32779W        W48248   4.614   4.474   1.265  0.2130  0.0491  0.1532
32780W        W48249   5.594   2.134   5.079 -0.1407  0.0402 -0.1589
32781W        W48250  15.451   0.214  14.947 -0.2938 -0.1349  0.0841
32782W        W48251  15.275   5.783   4.052  0.1693  0.0003  0.5012
32783W        W48252  10.169  10.311   2.252  0.0239  0.1850  0.0689
32784W        W48253   9.338   7.664  12.126 -0.0225  0.1870 -0.0810
32785W        W48254  11.637   9.943  13.357 -0.2497  0.0898 -0.2332
32786W        W48255   8.300  10.967   0.145  0.1502  0.0270 -0.2016
32787W        W48256   0.028   7.795  14.355 -0.0554  0.0833  0.1281
32788W        W48257  14.726  16.881  15.578 -0.1446 -0.0655  0.4806
32789W        W48258  16.648   9.561  12.995  0.1776  0.0027  0.2415
32790W        W48259  11.225  14.375  14.064 -0.2294 -0.0716 -0.3318
32791W        W48260   1.498   0.293   1.492  0.0903 -0.2429 -0.1839
32792W        W48261   0.811   5.586   4.189 -0.0160  0.1568  0.0809
32793W        W48262  16.061   0.862  13.442  0.0643 -0.1123  0.0907
32794W        W48263   0.199  17.699   1.860 -0.1461  0.1289 -0.1369
32795W        W48264  16.348   2.750  15.167  0.0690 -0.0461  0.2121
32796W        W48265  12.577   1.296   1.030  0.1863  0.5180 -0.0199
32797W        W48266  10.006   0.679  11.277 -0.0310 -0.3631  0.1767
32798W        W48267  12.720   7.905   1.002 -0.2422 -0.0131  0.1376
32799W        W48268   0.487   9.960  13.908  0.1552  0.0805  0.0204
32800W        W48269  17.849   7.150   2.091 -0.0275 -0.2102  0.3882
32801W        W48270   7.847  11.407  15.258 -0.4318  0.0824  0.2711
32802W        W48271  12.693   4.276  15.026 -0.0505 -0.1170 -0.1301
32803W        W48272  14.244  11.404   3.020  0.2149  0.2570 -0.1910
32804W        W48273  14.950   8.542   4.470  0.4399 -0.0178  0.0362
32805W        W48274  17.076   2.898   2.645 -0.1152 -0.0771 -0.0015
32806W        W48275  15.831  12.462   1.667  0.0426 -0.0981  0.0581
32807W        W48276   3.667  11.207  13.865 -0.3978  0.0458  0.0983
32808W        W48277  18.216   9.982   4.382 -0.1546  0.1888 -0.0802
32809W        W48278  17.946  10.032  10.559 -0.0057  0.1890 -0.1033
32810W        W48279  17.189   7.575   6.121  0.0347 -0.1204 -0.0294
32811W        W48280   6.351   8.546   1.584 -0.3765  0.2212 -0.1561
32812W        W48281  16.108  18.201   1.229 -0.0230 -0.0793 -0.0124
32813W        W48282  16.564   9.417   5.030 -0.2663  0.1157 -0.1474
32814W        W48283  10.193   1.228  13.550 -0.1455 -0.1174 -0.2580
32815W        W48284   8.631   9.291  15.716  0.1067  0.2114 -0.1447
32816W        W48285  16.562  14.402  14.856 -0.2567 -0.0464 -0.1391
32817W        W48286   7.516  17.165  11.832  0.0488 -0.2366  0.0137
32818W        W48287   9.799  12.436   0.973  0.0439  0.0674 -0.1431
32819W        W48288   8.037  14.192   4.165 -0.1025  0.0732  0.0005
32820W        W48289  11.582  14.518  12.749  0.0856 -0.1130 -0.0052
32821W        W48290   7.402  14.835   5.932  0.1567  0.1256  0.1668
32822W        W48291  15.112  10.910   4.075  0.1954  0.1644 -0.0430
32823W        W48292   2.694  17.474   2.491 -0.1945  0.1161 -0.0269
32824W        W48293   1.004   3.256   3.933 -0.0160 -0.2136 -0.1906
32825W        W48294   7.658  10.311  14.058  0.0119  0.0101 -0.1814
32826W        W48295  17.698  10.820  13.435  0.2651  0.0815 -0.1017
32827W        W48296  14.111   7.573  13.589  0.1723  0.1686  0.2825
32828W        W48297   1.347  18.102  11.496  0.3384  0.2335 -0.0720
32829W        W48298   8.402   7.128  13.951  0.1025 -0.0128  0.0873
32830W        W48299   8.211   8.018   1.311 -0.0327 -0.0443 -0.0105
32831W        W48300  15.754   1.020   3.089  0.3439  0.0714 -0.5306
32832W        W48301  11.398   5.414   2.255 -0.1655  0.2441  0.1710
32833W        W48302   6.475   3.748  13.009 -0.1127  0.1360 -0.2576
32834W        W48303   3.417  12.751   3.336  0.0065 -0.1319  0.2927
32835W        W48304  12.049   6.961  15.096  0.0364  0.0263  0.0828
32836W        W48305  17.883   8.899   1.688  0.1384  0.2082  0.0656
32837W        W48306  13.044  14.797  11.228  0.1383  0.3068  0.2415
32838W        W48307   1.290   9.297   3.115 -0.0507  0.2140  0.1303
32839W        W48308   8.752  17.869   2.047 -0.2685  0.1325 -0.0437
32840W        W48309  11.076  18.018  15.463 -0.1191 -0.2342 -0.1687
32841W        W48310   3.527  12.350  15.945  0.1867 -0.0143  0.0241
32842W        W48311   3.980   7.798   4.445 -0.2937 -0.0309 -0.0856
32843W        W48312  16.756  16.030   1.638  0.2343 -0.0148 -0.0215
32844W        W48313  13.790   5.728  15.900  0.0626 -0.1592 -0.0982
32845W        W48314   4.455   4.759   0.428  0.1787  0.0922 -0.4734
32846W        W48315  16.948  13.018   0.676  0.3364 -0.1533 -0.2739
32847W        W48316  15.244  16.067  14.971 -0.0326 -0.1199 -0.1377
32848W        W48317   1.473  15.709   1.840  0.1633  0.1534 -0.1587
32849W        W48318  13.799   3.583  13.017 -0.0674  0.1356 -0.0578
32850W        W48319  10.504   1.046  11.897  0.0402 -0.2983  0.1895
32851W        W48320  15.728  10.648   1.289  0.0752  0.3006  0.0111
32852W        W48321  12.803  18.283   6.263 -0.1259  0.1614 -0.1363
32853W        W48322   8.136   3.301   1.670 -0.0172 -0.1013  0.1718
32854W        W48323   0.421  15.960   0.296  0.2834  0.0313 -0.1398
32855W        W48324   5.861   4.859   5.207 -0.1480 -0.3066 -0.1362
32856W        W48325  14.272  12.165  12.566 -0.2193  0.0288 -0.0006
32857W        W48326   2.025  15.570  12.295 -0.1799  0.0855 -0.3895
32858W        W48327  12.928   9.616   6.633 -0.1044  0.3178  0.3445
32859W        W48328   6.389  17.990  12.056  0.0407 -0.1377 -0.1433
32860W        W48329  13.072   3.123  15.967  0.0403  0.0206 -0.0097
32861W        W48330  10.806   4.028   3.127 -0.1150  0.0347 -0.0230
32862W        W48331   1.067  18.135  11.898  0.2134 -0.3048  0.3635
32863W        W48332  16.612   4.624  10.951  0.0846 -0.0290 -0.0761
32864W        W48333  17.058  11.707  14.221 -0.1779  0.0529 -0.3135
32865W        W48334   0.893   8.771  12.101  0.0949  0.2767  0.1249
32866W        W48335  11.026   1.046  15.191  0.1927  0.0605  0.4121
32867W        W48336   0.633  10.876   3.223 -0.0410 -0.0805  0.0372
32868W        W48337  11.678  11.204   1.427 -0.1173  0.0611 -0.1769
32869W        W48338  12.646   4.049   4.143 -0.3219  0.0670  0.3246
32870W        W48339   1.609  10.371  12.362  0.1647 -0.2917  0.2114
32871W        W48340  13.965   8.463   2.955 -0.2509  0.1350 -0.0730
32872W        W48341   5.757   5.291   3.285 -0.0349  0.2987 -0.0995
32873W        W48342   7.597  10.116  12.749 -0.1043  0.0861  0.0073
32874W        W48343  14.990   9.855   3.946 -0.3366 -0.3648  0.0200
32875W        W48344  18.122   4.033  12.037  0.0354  0.1261  0.1084
32876W        W48345  15.869  16.653   4.359  0.2258  0.0821  0.1832
32877W        W48346   0.472  12.463   1.995  0.1087  0.1368 -0.0430
32878W        W48347  18.089   2.648   0.213  0.3457 -0.0189  0.0832
32879W        W48348   7.053   1.033  12.005 -0.2055 -0.2597 -0.1360
32880W        W48349  12.683   4.667   1.886 -0.2509  0.1553 -0.1553
32881W        W48350  13.814   8.411  13.357  0.1412 -0.1342  0.0188
32882W        W48351   8.512  16.796  12.840 -0.0194  0.0552  0.0048
32883W        W48352   9.805  14.123   6.244  0.2778  0.3664  0.0451
32884W        W48353   2.004   6.984   2.857  0.1439  0.1681 -0.0091
32885W        W48354  13.281   8.225   5.847 -0.0523 -0.2849 -0.1522
32886W        W48355  17.604  15.968   1.272  0.0092 -0.2826 -0.0204
32887W        W48356  12.246  11.455   1.824  0.0987 -0.0755 -0.2712
32888W        W48357  15.829  15.865   5.348 -0.1769 -0.4566 -0.1165
32889W        W48358  16.827   8.603  12.371 -0.3736 -0.0072  0.1861
32890W        W48359   2.737   6.243   0.378 -0.1467  0.3747 -0.1291
32891W        W48360  14.121   3.733  14.831 -0.1795  0.3066  0.0363
32892W        W48361   9.398  17.468   0.912 -0.2603  0.3228 -0.0448
32893W        W48362  12.614  13.862  15.150 -0.0259  0.1729 -0.2393
32894W        W48363  16.831   2.732   1.226 -0.0571  0.0430 -0.1523
32895W        W48364  13.021   6.139   4.579  0.1305 -0.3345 -0.1795
32896W        W48365   6.015  18.247  14.449  0.1546 -0.0652  0.0720
32897W        W48366   8.403  13.052   0.397  0.0854  0.2642  0.0998
32898W        W48367  10.381   5.291  14.925  0.1683 -0.1035  0.0912
32899W        W48368   4.372   4.079   5.408 -0.0923 -0.0672 -0.0283
32900ION     NA48369   8.242   0.420  12.940 -0.1624  0.1789  0.1714
32901ION     NA48370  15.599  10.676  10.618  0.4082  0.2477  0.1669
32902ION     NA48371   3.341   5.208   5.974 -0.0610 -0.0353  0.2821
32903ION     NA48372   6.287  14.644   2.941  0.2603 -0.2985  0.3169
32904ION     NA48373  11.670   4.181  15.596  0.2980 -0.2601 -0.1559
32905ION     NA48374  12.067  17.700  10.420 -0.0316 -0.0520 -0.0165
32906ION     NA48375   3.488  10.270   6.136 -0.0867 -0.2175  0.0426
32907ION     NA48376   9.007   4.520   0.853  0.1468  0.1468  0.2714
32908ION     NA48377  15.707   5.442  14.968 -0.1348  0.0869  0.1717
32909ION     NA48378  11.477   7.159   5.924 -0.1822  0.1285 -0.0194
32910ION     NA48379  13.850  15.150  10.199 -0.0503 -0.0468 -0.0415
32911ION     NA48380   0.518   9.981   1.934  0.0592 -0.0418 -0.0073
32912ION     NA48381  15.943   7.637   0.885  0.1009  0.0777  0.4373
32913ION     NA48382  17.350   2.962  14.809 -0.3347  0.1345  0.0944
32914ION     NA48383  14.433   8.708   1.119 -0.2975 -0.2020 -0.0691
32915ION     NA48384  15.590   7.297  10.494  0.0608  0.1320 -0.0096
32916ION     NA48385   7.720   1.412  10.643 -0.0551 -0.2280 -0.1272
32917ION     NA48386   5.533  16.191   0.029 -0.1061  0.0509  0.0268
32918ION     NA48387   5.733  15.145  15.745  0.4047  0.1471 -0.2982
32919ION     NA48388   6.778  10.738   9.926  0.3438 -0.0411 -0.0226
32920ION     NA48389  11.481  16.529  12.498 -0.0715  0.0038 -0.1746
32921ION     NA48390  10.979   0.625   1.292 -0.0565  0.1009 -0.2260
32922ION     NA48391   6.121   7.669  13.919  0.2539  0.2044 -0.2107
32923ION     NA48392  14.682  10.214   1.745 -0.3221 -0.3004  0.2346
32924ION     NA48393  16.577   4.771  13.251 -0.2300  0.4540  0.2881
32925ION     NA48394   7.316   7.178  13.257  0.0047 -0.2753 -0.3797
32926ION     NA48395   5.044   8.700  13.367  0.2030 -0.3404  0.0568
32927ION     NA48396   2.430   5.152  10.211 -0.1587  0.3917  0.0102
32928ION     NA48397  12.011   1.852  14.905  0.1600  0.1563 -0.1807
32929ION     NA48398  17.541  17.687   2.896  0.2566  0.1276  0.1083
32930ION     NA48399  11.511  10.020   4.314  0.0515 -0.2191 -0.0946
32931ION     NA48400  17.455   6.472  14.746  0.0660  0.1625  0.0881
32932ION     NA48401   2.819  15.387   5.530 -0.1961  0.3280  0.1961
32933ION     NA48402   9.468   2.390  10.269 -0.0790  0.1174  0.0798
32934ION     NA48403   7.139   6.951   3.100  0.2576 -0.0801  0.0412
32935ION     NA48404   0.469  10.572   5.884 -0.2090 -0.0320  0.1307
32936ION     NA48405   7.814   0.332   9.827 -0.0089  0.2953 -0.0472
32937ION     NA48406   1.122  12.434   4.258 -0.3181  0.2452 -0.0845
32938ION     NA48407   2.656   2.198  15.931 -0.1357 -0.1878 -0.3747
32939ION     NA48408   8.536   8.131   5.734  0.2334 -0.0468  0.2085
32940ION     NA48409  16.260   3.188   2.580 -0.0634 -0.0326 -0.1213
32941ION     NA48410  13.841   9.525   4.630 -0.2403  0.2085  0.2645
32942ION     NA48411   3.292   1.032  11.392 -0.3705 -0.0319 -0.1737
32943ION     NA48412   0.768  14.124   1.432 -0.0407  0.1856  0.1422
32944ION     NA48413  10.457  16.220  10.391 -0.2252  0.1173 -0.2250
32945ION     NA48414   4.249   8.112   3.927 -0.1570 -0.0795 -0.1565
32946ION     NA48415  11.033  13.387   3.280 -0.2890 -0.1155 -0.0697
32947ION     NA48416  14.781   3.982  10.542  0.1130 -0.3846 -0.1659
32948ION     NA48417  13.856   1.273  10.350 -0.0249 -0.0320 -0.2525
32949ION     NA48418   2.144   4.475  13.207  0.0907 -0.4428 -0.0656
32950ION     NA48419  10.615  10.706   2.043  0.0119  0.2823 -0.3586
32951ION     NA48420   6.091   4.411  12.411 -0.0787  0.0979  0.1805
32952ION     NA48421   1.353  14.405  10.257  0.0897 -0.0222  0.0745
32953ION     NA48422   4.922   0.859  10.178 -0.1378  0.2216  0.0404
32954ION     NA48423   1.308   1.009  10.206 -0.0443  0.2113 -0.0176
32955ION     NA48424   8.523  12.145   0.998  0.3323  0.0625  0.2695
32956ION     NA48425   5.881   1.793  14.551  0.0722 -0.1633 -0.1348
32957ION     NA48426  10.306  13.335  10.306 -0.0158 -0.4513 -0.0080
32958ION     NA48427  12.522  15.787  13.037  0.2938 -0.1064 -0.0283
32959ION     NA48428  12.164   4.514  10.541  0.2528 -0.0009  0.2377
32960ION     NA48429  17.148  11.795   9.969  0.0291  0.1074 -0.0762
32961ION     NA48430   9.136  17.716   3.293  0.1942  0.2243  0.0624
32962ION     NA48431   6.379  11.032   5.451 -0.0593 -0.1010  0.2307
32963ION     NA48432   9.049   7.967   5.493 -0.1168 -0.2130  0.2051
32964ION     NA48433  11.715   9.118   6.048  0.2319  0.3384 -0.3344
32965ION     NA48434   1.753  16.315   2.519 -0.0490  0.1803  0.1114
32966ION     NA48435   8.981  17.985  15.066  0.0577  0.2597 -0.1251
32967ION     NA48436   3.743   8.130   2.460  0.0186  0.0843 -0.0174
32968ION     NA48437   0.345  17.274   6.264  0.1209 -0.1586  0.0974
32969ION     NA48438  16.217  13.705  10.451  0.0429 -0.1145 -0.0707
32970ION     NA48439   4.280  15.962   5.052 -0.3166 -0.1986  0.3680
32971ION     NA48440  12.687  12.199  10.277  0.1729  0.3379  0.3067
32972ION     NA48441  10.178   0.658   4.752 -0.1461  0.1007 -0.0940
32973ION     NA48442  11.972   1.466  10.652  0.0514 -0.0283 -0.2538
32974ION     NA48443  12.062   3.095  12.357  0.0797 -0.0075 -0.0004
32975ION     NA48444  16.808  14.106   2.410  0.0950  0.0186 -0.1027
32976ION     NA48445   9.756   4.853  12.579  0.0130 -0.0322  0.0554
32977ION     NA48446   2.103   1.081  15.760  0.3061  0.0536 -0.2967
32978ION     NA48447  15.620   0.710   5.747  0.2353 -0.0596 -0.0093
32979ION     NA48448  10.784   2.208   3.374  0.0134 -0.2772  0.4656
32980ION     NA48449  12.709  16.106  10.706 -0.1914 -0.1769 -0.1125
32981ION     NA48450   4.524  16.444  13.021  0.4818 -0.0045  0.1012
32982ION     NA48451  11.438  12.516   1.257  0.5361 -0.1419 -0.0573
32983ION     NA48452   6.649  15.961  12.619  0.2141 -0.0886  0.0175
32984ION     NA48453  13.769   6.181   6.140  0.1846 -0.0505  0.0941
32985ION     NA48454  16.852  17.133  13.809 -0.1267  0.1995 -0.0096
32986ION     NA48455  16.167   6.544  10.515  0.0414  0.0284 -0.2221
32987ION     NA48456  17.812   9.997   9.968 -0.1491  0.2421 -0.0570
32988ION     NA48457  16.994  10.273   2.563  0.0046  0.2420 -0.0057
32989ION     NA48458  10.183   9.823   9.777  0.3871 -0.0472  0.0910
32990ION     NA48459  13.952   9.785   5.981 -0.0344 -0.1371 -0.4280
32991ION     NA48460  15.303  16.956  12.698  0.0247  0.2189  0.0120
32992ION     NA48461  13.676  11.941  15.650 -0.1117 -0.0037  0.0890
32993ION     NA48462   1.830   6.890  15.182  0.2422  0.0422  0.1720
32994ION     NA48463   0.593  12.145  12.585  0.0222 -0.0374  0.1438
32995ION     NA48464  10.017  15.989   6.125  0.1373  0.1427 -0.0786
32996ION     NA48465  12.854   4.370   6.032 -0.0800  0.3804 -0.0944
32997ION     NA48466   1.164   5.322   3.178 -0.2677  0.0978  0.2959
32998ION     NA48467   5.407  15.472  10.081  0.1830 -0.1136 -0.1361
32999ION     NA48468   1.079   7.628   9.984 -0.3014  0.1390 -0.2219
33000ION     NA48469  13.340  11.980   6.033 -0.0731  0.1457  0.1846
33001ION     NA48470   8.021   9.483   9.881  0.2853 -0.2938  0.2485
33002ION     NA48471   0.583   6.320   5.690 -0.0500 -0.2562 -0.0082
33003ION     NA48472   3.424   9.878   1.094 -0.0077  0.1382  0.2034
33004ION     NA48473   3.338  15.121  15.996  0.0126 -0.1353 -0.0875
33005ION     NA48474   5.179   1.836   5.806 -0.0722  0.2632 -0.3967
33006ION     NA48475  11.231  11.332  10.179  0.0867 -0.2734 -0.2486
33007ION     NA48476   2.872   3.990   4.503 -0.1528  0.1060  0.4355
33008ION     NA48477   4.617   2.044  10.132 -0.3637 -0.0479 -0.1294
33009ION     NA48478   0.995  17.536   0.503 -0.2616  0.1884 -0.0588
33010ION     NA48479   1.620  15.471   0.323  0.1601 -0.0718 -0.0350
33011ION     NA48480   8.475   7.550  10.037 -0.2940  0.1688 -0.1555
33012ION     NA48481  10.612   3.017   2.996 -0.3235 -0.0237  0.0866
33013ION     NA48482   3.517  14.644  10.237 -0.0560  0.0068  0.1396
33014ION     NA48483   2.197  17.271  13.734 -0.1583  0.1901  0.1976
33015ION     NA48484  10.921   1.298  10.360 -0.2830  0.0801  0.2849
33016ION     NA48485  17.162   4.132  14.233 -0.1822  0.0490 -0.0262
33017ION     NA48486  10.232   8.430   5.469  0.1247 -0.0765  0.0968
33018ION     NA48487  11.216  15.877   0.634  0.0521 -0.0630  0.0943
33019ION     NA48488   6.493   3.372   9.793  0.0813 -0.0955  0.2072
33020ION     NA48489   1.786   0.636  13.118 -0.0311 -0.1806 -0.1602
33021ION     NA48490  17.155  12.745  14.424 -0.1419  0.1553  0.1054
33022ION     NA48491   7.134   8.896  15.637 -0.1561 -0.3216 -0.3005
33023ION     NA48492  14.435   0.914   3.100 -0.1791 -0.0903 -0.2649
33024ION     NA48493   6.831   1.536  14.054 -0.1082  0.5098 -0.3162
33025ION     NA48494  12.875  11.969  13.540 -0.1362  0.3296 -0.2209
33026ION     NA48495   7.118   5.784  10.703 -0.0776  0.0049 -0.1092
33027ION     NA48496   2.930   5.041   5.012 -0.0047 -0.0521  0.1420
33028ION     NA48497  11.531  11.926   2.236  0.0044  0.2545 -0.2096
33029ION     NA48498  17.891   3.946   5.667  0.1225 -0.0688 -0.2929
33030ION     NA48499   9.983  18.063  12.976 -0.0937 -0.1355  0.1869
33031ION     NA48500  15.111  13.873   0.240  0.0640 -0.1800 -0.0562
33032ION     NA48501  15.713   5.615  10.829  0.1042  0.4188 -0.0166
33033ION     NA48502  17.447   3.325   6.027 -0.0574 -0.1586 -0.1435
33034ION     NA48503  16.178  12.065  12.992  0.0507  0.0129  0.1161
33035ION     NA48504   6.826   8.356   0.361  0.4000  0.0201  0.0620
33036ION     NA48505   2.643  15.468   3.844 -0.4224 -0.2778 -0.3713
33037ION     NA48506  14.704  14.587  11.227  0.3198  0.0294 -0.0424
33038ION     NA48507  15.411   2.947  14.690  0.0044 -0.2035 -0.2199
33039ION     NA48508   1.229   6.847  10.305  0.0118 -0.3353  0.1167
33040ION     NA48509  10.011  10.108  14.210  0.0708  0.4590 -0.0304
33041ION     NA48510   7.670  10.430   9.608 -0.1470  0.2256 -0.3389
33042ION     NA48511  11.293  16.389   6.406  0.0681 -0.2407  0.0586
33043ION     NA48512   7.578  15.698  10.189 -0.4244  0.1723  0.0108
33044ION     NA48513  10.085  16.634  13.438  0.4093 -0.2958  0.0378
33045ION     NA48514  15.970   0.264  10.596  0.1125 -0.1224  0.0491
33046ION     NA48515   5.835  10.898   5.254 -0.3369  0.0051  0.0215
33047ION     NA48516  14.916  15.290   2.376 -0.0334  0.1110 -0.3327
33048ION     NA48517  17.996   5.620   1.211 -0.2273 -0.0525  0.0255
33049ION     NA48518   1.662  12.886   6.124 -0.1723  0.3081 -0.2525
33050ION     NA48519   4.979  16.767   3.507 -0.0285  0.0259 -0.1305
33051ION     NA48520   6.517  10.255  13.520 -0.4266 -0.2438 -0.2536
33052ION     NA48521   2.935  18.272   4.433 -0.0841  0.1524  0.2662
33053ION     NA48522   7.318   5.156  10.221  0.1163 -0.1307  0.2858
33054ION     NA48523   0.756   7.210   1.136 -0.1642  0.0451  0.1007
33055ION     NA48524   3.968  10.346  11.960 -0.0211  0.3674  0.2507
33056ION     NA48525   7.729   5.905  10.076 -0.1167  0.1462  0.0145
33057ION     NA48526  14.391  11.565  10.100  0.2241 -0.1000 -0.1602
33058ION     NA48527   0.454  12.081   2.717 -0.1167 -0.0363  0.0852
33059ION     NA48528   5.314   1.856   2.605  0.0081  0.0731  0.2692
33060ION     NA48529  12.328  17.069   4.592 -0.0187  0.1148  0.0484
33061ION     NA48530   7.431  14.466   0.575 -0.2000  0.3413 -0.0992
33062ION     NA48531  14.698  17.474  15.531  0.0995 -0.1669 -0.0474
33063ION     NA48532  10.097   8.246  11.899 -0.0594 -0.1659 -0.0751
33064ION     NA48533  15.186  17.939   5.846 -0.0765 -0.2017 -0.5294
33065ION     NA48534   9.451   9.090   5.316  0.0897  0.2350 -0.1639
33066ION     NA48535   7.421   2.021  10.127  0.1065 -0.0459 -0.0996
33067ION     NA48536   9.631  17.834  13.972  0.1222  0.3114  0.1787
33068ION     NA48537  17.142   5.037  12.680  0.0469  0.0729  0.3212
33069ION     NA48538   6.487   1.767  10.110 -0.0854 -0.1294  0.1324
33070ION     NA48539   4.902   6.574   9.640  0.2609 -0.0063 -0.1693
33071ION     NA48540  13.617  17.058   6.188  0.0107  0.0604 -0.3476
33072ION     NA48541  13.923   4.633   0.159 -0.2003 -0.2528  0.0169
33073ION     NA48542   7.263   9.624   5.495 -0.3715 -0.1485 -0.0160
33074ION     NA48543   8.144   8.047   0.813  0.1965 -0.0266 -0.0491
33075ION     NA48544   0.902  11.404   0.106  0.1307  0.0635 -0.1274
33076ION     NA48545  16.797  14.844  15.130 -0.2561 -0.2854  0.1862
33077ION     NA48546   7.987  12.944   0.095  0.0318  0.2264 -0.2028
33078ION     NA48547  13.089  16.815   1.713  0.0043  0.3511  0.0574
33079ION     NA48548   0.810  15.881  11.025  0.1945 -0.1278 -0.0976
33080ION     NA48549   0.328  15.061  15.170 -0.1943 -0.1483 -0.1131
33081ION     NA48550  11.454  11.824  10.710  0.1797  0.1014 -0.2262
33082ION     NA48551   8.752  16.807  11.475 -0.1046  0.1082 -0.1930
33083ION     NA48552   1.025  15.820  14.972  0.2124 -0.2662 -0.1610
33084ION     NA48553   4.996   5.609   9.999 -0.0615  0.0977  0.0067
33085ION     NA48554  11.429   5.304   5.616 -0.1306  0.0457  0.0299
33086ION     NA48555   6.000   4.776   1.046  0.3275  0.0674 -0.1244
33087ION     NA48556  10.667   2.613  13.121 -0.0838  0.3697 -0.2004
33088ION     NA48557  10.383  13.300   0.208  0.1061 -0.3533  0.0729
33089ION     NA48558   6.356   5.499   1.138  0.1964  0.0839  0.1904
33090ION     NA48559  11.860  17.951  11.215  0.0306 -0.0964  0.5317
33091ION     NA48560   8.352  13.169   5.920  0.1360 -0.2324 -0.1700
33092ION     NA48561   5.877  16.222   1.549  0.1714 -0.0891  0.0034
33093ION     NA48562   7.809   0.499   1.179  0.1147  0.0215 -0.0980
33094ION     NA48563   0.603  16.672   1.924 -0.2336 -0.1441  0.0589
33095ION     NA48564   4.508   7.422   9.910  0.0057 -0.0141  0.3302
33096ION     NA48565  17.990  12.347   5.799 -0.0036 -0.0105  0.0578
33097ION     NA48566   1.011   1.913  10.242 -0.0199 -0.1881 -0.2185
33098ION     NA48567  15.071   3.579   2.930 -0.2119 -0.1634 -0.1406
33099ION     NA48568   9.918  12.205  11.902  0.1735 -0.1963  0.3008
33100ION     NA48569   2.173   5.865  12.983  0.2209  0.1649 -0.0397
33101ION     NA48570  16.326  12.369  15.026  0.1565 -0.1207 -0.1642
33102ION     NA48571   8.440   6.427   5.324  0.1104 -0.0229  0.0625
33103ION     NA48572  11.132  17.609  15.219 -0.1039 -0.0793 -0.0423
33104ION     NA48573  16.247  13.507   5.642 -0.0157 -0.0237 -0.3128
33105ION     NA48574   3.312   9.078  14.241 -0.0925 -0.0017  0.1226
33106ION     NA48575   6.699  17.369   3.403 -0.0741  0.3881  0.0635
33107ION     NA48576   2.531   7.254   5.676 -0.1006 -0.1874  0.1074
33108ION     NA48577   0.273   1.345   6.176 -0.0791 -0.0280  0.1629
33109ION     NA48578   2.027   4.459   5.785 -0.0166 -0.0927 -0.0866
33110ION     NA48579  13.354  13.925   4.948  0.0552  0.2799 -0.1677
33111ION     NA48580   6.578  12.456   3.861  0.1296  0.1318 -0.1672
33112ION     NA48581   3.986   9.772   3.290 -0.1565  0.2620  0.2197
33113ION     NA48582   9.712   7.187   4.166 -0.0643  0.1177 -0.0123
33114ION     NA48583   1.489  16.227  16.019  0.0530 -0.1669 -0.1293
33115ION     NA48584   4.650  14.396   1.494 -0.1947 -0.2024  0.2691
33116ION     NA48585  16.282   4.400   0.132  0.1105 -0.1045 -0.1099
33117ION     NA48586  17.154   7.910   1.203 -0.0243  0.1679 -0.0460
33118ION     NA48587   5.939  14.990  13.285 -0.2272  0.4056  0.0353
33119ION     NA48588  15.995  11.090   1.342 -0.0558 -0.1370 -0.1656
33120ION     NA48589  10.427   4.151  10.390  0.1993 -0.2353  0.1332
33121ION     NA48590  12.752   1.463  10.549 -0.0218 -0.1276 -0.1430
33122ION     NA48591  11.046  11.551  13.197 -0.0594 -0.0671  0.0576
33123ION     NA48592   0.893   5.749  10.249 -0.3011  0.3017  0.2216
33124ION     NA48593  17.776  13.424  10.650 -0.0257  0.1285 -0.3147
33125ION     NA48594   3.629  11.782  10.271 -0.1049  0.5263  0.0063
33126ION     NA48595  11.307   1.923  13.233  0.2628  0.1507 -0.2102
33127ION     NA48596  15.501  10.934   5.665 -0.0617 -0.0450  0.0974
33128ION     NA48597  14.857   6.635   4.820 -0.0752 -0.0924  0.0569
33129ION     NA48598   2.899   1.958  12.553 -0.0161  0.1711  0.2157
33130ION     NA48599   8.107  13.643  12.720 -0.3183  0.0205 -0.0823
33131ION     NA48600   0.764   4.917  12.375 -0.1443 -0.2252 -0.2962
33132ION     NA48601  18.201   7.147  12.902 -0.1211 -0.0649 -0.1648
33133ION     NA48602  16.302   7.606   4.257 -0.1884  0.0939  0.2908
33134ION     NA48603  14.260  13.844   1.138 -0.0549  0.0092 -0.0081
33135ION     NA48604  16.221   4.842   1.680 -0.1784  0.0012  0.2153
33136ION     NA48605   6.497  15.553   0.610 -0.0218 -0.3883 -0.0156
33137ION     NA48606   2.144  14.809  10.444  0.1029 -0.0291  0.0779
33138ION     NA48607  11.200   1.999   5.899  0.1170  0.1171 -0.0309
33139ION     NA48608   4.688  16.610   1.495  0.2833  0.3116 -0.1990
33140ION     NA48609  17.993  15.507  13.594 -0.0733  0.0916 -0.1288
33141ION     NA48610  17.840  14.588   5.871  0.0963 -0.0936 -0.1235
33142ION     NA48611  12.224  14.584   0.651  0.1465  0.2387  0.1692
33143ION     NA48612  16.300   4.234   1.087 -0.0586 -0.1438  0.2076
33144ION     NA48613   0.240   3.312   2.819 -0.2670  0.2460  0.2783
33145ION     NA48614  17.498   3.649   4.512 -0.1687 -0.0087 -0.0427
33146ION     NA48615   4.161   4.494   1.467  0.0361 -0.1216 -0.1989
33147ION     NA48616   9.797   9.401   0.053  0.1306  0.0169 -0.1092
33148ION     NA48617  15.489  15.073   5.696 -0.2666  0.0714 -0.1950
33149ION     NA48618   5.899   0.192   9.863 -0.0323 -0.1340 -0.1754
33150ION     NA48619  13.741  11.178  10.517 -0.0847  0.2458 -0.0327
33151ION     NA48620  12.286  17.983   3.519  0.0260  0.2837  0.0471
33152ION     NA48621   4.949   5.116   3.497  0.0494 -0.0219  0.0106
33153ION     NA48622   6.613  16.820  10.079 -0.0816 -0.0278 -0.3530
33154ION     NA48623  10.191   8.247   0.586 -0.1468 -0.0421  0.1432
33155ION     NA48624   3.323  10.031  10.209  0.0091 -0.2120  0.0143
33156ION     NA48625  15.180  12.615   5.559  0.0515  0.0915 -0.1658
33157ION     NA48626   1.080  17.760   2.166 -0.2203  0.1778 -0.2064
33158ION     NA48627   9.446   9.032   2.922 -0.0845  0.0631  0.1305
33159ION     NA48628  13.661   9.962  12.374 -0.0982 -0.1038 -0.2065
33160ION     NA48629  16.588   3.048  15.965  0.0867  0.1819 -0.1953
33161ION     NA48630  15.154  15.605   0.113  0.0187 -0.0101 -0.1370
33162ION     NA48631   9.020   7.986  10.266 -0.0208  0.4298  0.0628
33163ION     NA48632  15.359   5.039  11.984 -0.3347  0.2650 -0.1120
33164ION     NA48633   8.851   3.651  11.279  0.0727 -0.1110 -0.0716
33165ION     NA48634   3.735   6.355   1.419 -0.1548 -0.1582 -0.0909
33166ION     NA48635  13.055   3.641   4.079 -0.1009 -0.1182 -0.1549
33167ION     NA48636  16.479   5.574   5.317  0.0771 -0.1106  0.2827
33168ION     NA48637   8.760   2.960  13.931 -0.1207  0.0320 -0.2698
33169ION     NA48638   0.798   3.194   5.807  0.0948 -0.0516  0.2957
33170ION     NA48639  16.185  15.139  10.677 -0.3860  0.2394  0.0328
33171ION     NA48640  15.363  14.809   1.156 -0.1119  0.1373  0.2645
33172ION     NA48641   4.870  15.268  15.025 -0.1003  0.2194  0.2383
33173ION     NA48642   9.473   0.755   5.278 -0.1342  0.1527 -0.0318
33174ION     NA48643   7.338   8.343   9.952  0.0254 -0.0805 -0.0070
33175ION     NA48644  12.567   7.565   6.237 -0.0409 -0.2203  0.2032
33176ION     NA48645  10.718  12.457   5.447  0.0850  0.1126 -0.0869
33177ION     NA48646   2.369  13.972  10.262  0.1595  0.0613  0.1605
33178ION     NA48647   4.311   4.785  10.187  0.1421 -0.1765 -0.1243
33179ION     NA48648  14.273   7.670  10.725 -0.3015  0.1635 -0.0579
33180ION     NA48649   1.305   6.988   1.626 -0.0743 -0.0352  0.3204
33181ION     NA48650  16.860   2.760  13.599 -0.3127  0.1944 -0.0814
33182ION     NA48651   7.011  17.839  11.345 -0.1495 -0.4509  0.0317
33183ION     NA48652   3.365  10.849  10.210 -0.1185 -0.0744  0.1694
33184ION     NA48653  15.345  12.207  13.985  0.0445 -0.1266 -0.1226
33185ION     NA48654   5.304   4.908  15.353 -0.0789 -0.0195 -0.1719
33186ION     NA48655  16.584  10.822   1.240  0.0385  0.1530 -0.3013
33187ION     NA48656   9.244  13.824  10.069 -0.3664 -0.1388 -0.0988
33188ION     NA48657  13.925   7.363   0.836  0.1451 -0.0958  0.3340
33189ION     NA48658   1.938   7.386  10.171 -0.3165  0.4575  0.1379
33190ION     NA48659  11.340  13.744   2.541  0.0791 -0.0562  0.0825
33191ION     NA48660   0.403  10.502   1.433  0.1575 -0.0504  0.0124
33192ION     NA48661   5.841  10.818  13.172 -0.1313  0.2087  0.2813
33193ION     NA48662  14.770   9.433   0.656 -0.0781 -0.0937 -0.2676
33194ION     NA48663  14.678  13.313  12.731 -0.0118 -0.0658 -0.0485
33195ION     NA48664  14.516   8.981  13.233  0.1695  0.1457  0.0992
33196ION     NA48665   5.008   1.134   5.421  0.1656 -0.2142 -0.1318
33197ION     NA48666  16.416  16.480   0.021  0.2243 -0.0017  0.1399
33198ION     NA48667  17.886   4.695   9.929 -0.0316  0.4196  0.0075
33199ION     NA48668  14.265  11.152   4.671  0.2860  0.0032 -0.1380
33200ION     NA48669   9.604  12.460  10.389  0.1276 -0.1137  0.2077
33201ION     NA48670   0.707   3.278  11.218 -0.0422  0.0639  0.0479
33202ION     NA48671  14.083  12.589  13.747 -0.0259 -0.0515 -0.0218
33203ION     NA48672   5.580   1.734  10.184 -0.0578  0.1390  0.0310
33204ION     NA48673  16.357  16.111   6.070  0.1675 -0.0522  0.2255
33205ION     NA48674   0.107   9.254  14.683 -0.2107  0.1362  0.0096
33206ION     NA48675   3.141   1.000   5.676  0.0130  0.0425  0.0831
33207ION     NA48676  18.251   0.756   2.218 -0.1120  0.1062 -0.1847
33208ION     NA48677  14.281  16.251   3.214 -0.0916 -0.1436  0.1194
33209ION     NA48678  13.909   2.299  13.598 -0.0461 -0.3217 -0.3534
33210ION     NA48679   0.883   8.513   2.858  0.2644  0.1653 -0.1188
33211ION     NA48680  12.250   8.286   6.189 -0.3636  0.1216  0.0090
33212ION     NA48681  14.912   0.702  10.602  0.1098  0.1605  0.0936
33213ION     NA48682  15.678  15.341  10.098  0.0771 -0.4165  0.4108
33214ION     NA48683   9.264  12.026   3.977 -0.0020 -0.0871  0.1843
33215ION     NA48684  11.148   8.140  10.233  0.0323 -0.1456 -0.0563
33216ION     NA48685  15.667  14.475  10.318 -0.0212 -0.6075  0.1159
33217ION     NA48686  14.495  14.792  13.665 -0.2648 -0.0548  0.2003
33218ION     NA48687   2.141  16.612   0.792  0.0582  0.1489 -0.2160
33219ION     NA48688  16.516  12.267  10.318 -0.0146  0.2203  0.3671
33220ION     NA48689   8.640  14.954  10.235 -0.0802  0.0717  0.1977
33221ION     NA48690  17.782  17.705   1.261 -0.1306 -0.4601  0.1718
33222ION     NA48691   1.918  18.060  12.171  0.1473 -0.1340  0.2151
33223ION     NA48692   9.199  12.205  15.602 -0.0077 -0.0445  0.1267
33224ION     NA48693  16.160   4.249  11.702 -0.0268 -0.0855 -0.2016
33225ION     NA48694   7.466  11.785   2.299 -0.2141  0.2798 -0.2181
33226ION     NA48695   5.770  13.998  10.569  0.0855 -0.1060  0.2842
33227ION     NA48696   9.901   8.115   4.309 -0.2018 -0.0075  0.2172
33228ION     NA48697  17.126   5.189   3.751  0.1910  0.0061  0.7031
33229ION     NA48698   2.106   6.888   9.920  0.1923 -0.1252 -0.0918
33230ION     NA48699  13.826   4.788  11.590  0.0933  0.2122 -0.1948
33231ION     NA48700   6.033   1.940   4.821 -0.0787  0.2358  0.3082
33232ION     NA48701  11.821   0.254  13.389  0.1387  0.1305  0.0296
33233ION     NA48702  13.304  11.185   6.333 -0.1060 -0.0169 -0.3386
33234ION     NA48703   9.448  10.740  12.509  0.1081  0.1507 -0.0167
33235ION     NA48704   5.675  10.472   5.507  0.2763 -0.1696 -0.1176
33236ION     NA48705   1.291   9.576   3.535 -0.1460 -0.2391 -0.0540
33237ION     NA48706  12.196  16.138   6.221  0.0425 -0.2560  0.0636
33238ION     NA48707   6.229   8.281   9.940 -0.0695  0.1432  0.1716
33239ION     NA48708   0.762  15.757   3.612  0.2350  0.1621 -0.0349
33240ION     NA48709   5.641  17.332   0.707 -0.1250  0.2813 -0.0746
33241ION     NA48710   1.749   9.211   2.105  0.1887 -0.1008  0.2520
33242ION     NA48711   2.198   0.443  10.172 -0.0073  0.1207  0.2428
33243ION     NA48712   8.571   7.503  16.083 -0.4915 -0.0834  0.0490
33244ION     NA48713   0.389   4.506   5.716  0.0174  0.1241  0.0982
33245ION     NA48714   2.846  11.974  14.965 -0.0549  0.0174 -0.0001
33246ION     NA48715  10.532   4.958  10.337  0.2544  0.1408 -0.0193
33247ION     NA48716   6.768   3.511   1.279 -0.0630  0.0670  0.0664
33248ION     NA48717  13.424   2.663  10.718  0.0773 -0.1015 -0.0836
33249ION     NA48718   0.103   6.065  10.170  0.0708 -0.1397  0.0545
33250ION     NA48719   2.986   3.791  15.742  0.2354  0.1423 -0.3055
33251ION     NA48720   5.526  18.191   0.053  0.1415  0.0123  0.1610
33252ION     NA48721  16.982   6.123   6.017 -0.2541 -0.0019  0.2919
33253ION     NA48722  11.564   1.415   3.459 -0.3256  0.0284 -0.2244
33254ION     NA48723   2.865   2.441  10.365 -0.1084  0.0048  0.2574
33255ION     NA48724  14.150   0.251  10.636 -0.2104  0.3895 -0.1718
33256ION     NA48725   5.093   2.309  10.213  0.0192 -0.2042 -0.1034
33257ION     NA48726   3.631   3.773  10.157  0.0380 -0.0344  0.2331
33258ION     NA48727  16.934   1.193  13.145 -0.0689 -0.1237 -0.0197
33259ION     NA48728  13.169   4.129  10.498 -0.2254  0.2371  0.0747
33260ION     NA48729   8.067  14.256  11.817  0.1655 -0.1493 -0.0317
33261ION     NA48730  10.142  17.863   3.146 -0.0572 -0.0911 -0.0374
33262ION     NA48731  14.137  14.680   3.270  0.0485  0.1233 -0.2192
33263ION     NA48732  12.296  17.544   1.118  0.0248  0.0826 -0.0643
33264ION     NA48733  18.160   1.926   0.669  0.0316  0.0428  0.0149
33265ION     NA48734   5.682  13.750  15.366 -0.2285 -0.1771 -0.1022
33266ION     NA48735   9.525   3.665   4.818  0.0649 -0.2468 -0.1322
33267ION     NA48736   8.514  10.165   9.634 -0.0306  0.0136  0.1681
33268ION     NA48737   3.879   1.801  15.288 -0.0529  0.1335 -0.0684
33269ION     NA48738  12.518  14.365  15.312 -0.1846 -0.2603  0.1057
33270ION     NA48739   4.793   5.189   1.987  0.0045 -0.0137  0.0269
33271ION     NA48740  11.773  11.539   3.386  0.0155  0.1390 -0.0340
33272ION     NA48741   8.705  11.740   3.068  0.2339 -0.0393 -0.2191
33273ION     NA48742   9.076  11.952  11.324  0.2046 -0.0919 -0.1498
33274ION     NA48743   8.347  15.926  13.883 -0.2968  0.0179 -0.3214
33275ION     NA48744   4.561  17.825  14.801  0.2265 -0.0071  0.0027
33276ION     NA48745   6.443   2.180   1.228  0.1835 -0.3913 -0.0270
33277ION     NA48746   6.666   8.797   1.284  0.0923 -0.2180  0.0301
33278ION     NA48747   3.829  14.511   0.531 -0.0686 -0.4081  0.1326
33279ION     NA48748   5.760  11.464  10.099  0.1512 -0.0777  0.1149
33280ION     NA48749  13.406  18.217  10.429 -0.1299 -0.3177 -0.1897
33281ION     NA48750  14.376  17.826   5.662 -0.1963  0.0217  0.1561
33282ION     NA48751   6.070  13.304   5.456 -0.0998 -0.0649  0.0673
33283ION     NA48752   2.224  16.690   6.032 -0.0119 -0.0722 -0.3875
33284ION     NA48753  12.583   8.060   3.706 -0.0399 -0.2848  0.2432
33285ION     NA48754  17.005   0.951  15.904  0.0399  0.3618 -0.0187
33286ION     NA48755   5.479   4.783   5.481 -0.1176  0.0336  0.0223
33287ION     NA48756  13.164  13.785  12.885  0.1522 -0.3495  0.2066
33288ION     NA48757   7.388  13.135   5.330 -0.0234 -0.1136 -0.0675
33289ION     NA48758   2.905   8.034  14.002  0.3289 -0.1550  0.2140
33290ION     NA48759  12.447   8.627  11.159  0.1576 -0.0876  0.0367
33291ION     NA48760  13.822   8.970   3.126  0.0529 -0.0141  0.1279
33292ION     NA48761   0.003   9.545  16.070  0.0225  0.0559 -0.1501
33293ION     NA48762   4.571  15.262   5.858 -0.1240  0.0635  0.1020
33294ION     NA48763   3.183   2.722   5.446 -0.4914  0.0214  0.0684
33295ION     NA48764  17.356  16.699  15.030 -0.4096 -0.2129  0.0195
33296ION     NA48765   5.281   6.287   2.275  0.0072  0.0619 -0.0705
33297ION     NA48766   7.245  10.825   5.097  0.1631  0.3442 -0.0586
33298ION     NA48767  11.434  10.663  14.099  0.0782 -0.1856  0.3490
33299ION     NA48768   5.401   9.636   9.907  0.0010  0.4353 -0.0283
33300ION     NA48769  15.487  13.100   1.290  0.0568  0.0273 -0.0233
33301ION     NA48770  16.589   2.801   4.564  0.0602 -0.1674  0.2116
33302ION     NA48771   3.918   0.227   5.932 -0.2486  0.2558  0.1058
33303ION     NA48772   2.612  17.892  10.556  0.0686 -0.2057  0.0073
33304ION     NA48773   8.720  12.948  10.148 -0.1918  0.2573  0.2364
33305ION     NA48774   2.176   9.055  12.107  0.2420 -0.3370 -0.2982
33306ION     NA48775   8.540   1.080  10.112 -0.2651 -0.0469 -0.2369
33307ION     NA48776   2.330  15.883   1.408  0.1483 -0.2742 -0.1590
33308ION     NA48777  11.812  10.755   1.436  0.0472  0.2519 -0.1249
33309ION     NA48778   2.058  14.090  15.488  0.2375 -0.1076 -0.1348
33310ION     NA48779  10.809   3.413  10.485  0.1925 -0.1167 -0.2714
33311ION     NA48780   8.509   3.053  10.042 -0.0298  0.0954  0.1643
33312ION     NA48781   2.443  11.344   1.881  0.2142 -0.1246 -0.1001
33313ION     NA48782  15.188  18.216  15.292 -0.1846  0.1097 -0.0882
33314ION     NA48783  11.374  14.828   2.413 -0.0603 -0.0926 -0.2051
33315ION     NA48784   2.288   5.683  15.450 -0.1327 -0.2010 -0.1692
33316ION     NA48785   8.488  12.339  11.830  0.1592  0.4754 -0.2185
33317ION     NA48786   5.507  15.292  13.871  0.1607 -0.5425 -0.1740
33318ION     NA48787   0.431   9.698   9.931 -0.0523  0.2482 -0.0400
33319ION     NA48788   4.823  12.494  10.339 -0.0744  0.2736 -0.0141
33320ION     NA48789   2.152  17.911   4.018  0.1942 -0.0383  0.0208
33321ION     NA48790  17.944  11.336  10.368 -0.2893 -0.0734 -0.0258
33322ION     NA48791  11.213   8.005  13.637 -0.2422 -0.0168  0.1638
33323ION     NA48792   4.059   2.643   4.398  0.2216 -0.1558 -0.0850
33324ION     NA48793  15.278   1.558   0.343  0.1457  0.1543  0.1656
33325ION     NA48794  16.284  10.909  14.715 -0.0559 -0.3516  0.3634
33326ION     NA48795   0.386   6.443   4.437  0.0071 -0.1444  0.0181
33327ION     NA48796   2.552  16.466  10.927 -0.0382 -0.1223 -0.1197
33328ION     NA48797  15.785   2.013   5.959 -0.0734  0.1747  0.2547
33329ION     NA48798   9.312  16.683   1.573 -0.0442 -0.1114 -0.2205
33330ION     NA48799   6.611  12.314  14.505  0.1010  0.0771  0.0465
33331ION     NA48800   9.364   2.895   1.136 -0.2712 -0.1890 -0.0702
33332ION     NA48801   3.612   1.392  10.509  0.0759 -0.0946 -0.1708
33333ION     NA48802   5.155   7.925  10.932 -0.5758  0.0155 -0.1000
33334ION     NA48803   0.068  13.766   5.644 -0.0038 -0.1528 -0.1492
33335ION     NA48804  11.838  10.941   5.947  0.0436  0.0792 -0.0718
33336ION     NA48805   3.900  15.597  14.687  0.0359  0.2019 -0.2087
33337ION     NA48806   9.945   7.558   5.570  0.1217  0.1143 -0.0636
33338ION     NA48807   5.310   8.328   9.603 -0.0501  0.1439 -0.1164
33339ION     NA48808   1.478  10.028  10.554 -0.0529 -0.3806 -0.2426
33340ION     NA48809  10.392   4.191   3.426  0.3240 -0.2814  0.0385
33341ION     NA48810   3.200   3.617   1.304 -0.3992 -0.0922  0.0630
33342ION     NA48811  11.268   4.096   3.873 -0.1151 -0.0998  0.1109
33343ION     NA48812   2.740   4.839  13.855  0.2273  0.1005 -0.1916
33344ION     NA48813   6.977   7.070  12.954  0.0612  0.2771 -0.2773
33345ION     NA48814   4.044  15.828   0.257  0.1533 -0.3093 -0.0930
33346ION     NA48815   3.612   4.303  14.411 -0.1637  0.0943  0.0760
33347ION     NA48816  12.273   8.659   5.180  0.0522  0.0290 -0.0732
33348ION     NA48817  16.025   3.619  10.387  0.2031 -0.0105  0.0016
33349ION     NA48818   1.147   8.616   9.825 -0.2812 -0.3108  0.0686
33350ION     NA48819   6.161   9.930   0.255 -0.2631 -0.0950 -0.0354
33351ION     NA48820  11.451  11.552   5.619 -0.0545 -0.2567  0.3013
33352ION     NA48821   1.063  11.250  10.458  0.2192 -0.0080  0.0065
33353ION     NA48822  10.485  18.194   6.338  0.0638  0.0787  0.0450
33354ION     NA48823  12.041  15.263  10.407 -0.2478  0.1856 -0.0251
33355ION     NA48824   5.953  14.846  10.172 -0.1565  0.3311 -0.3432
33356ION     NA48825  13.187   7.586  10.485 -0.1548  0.0981 -0.0034
33357ION     NA48826   0.772   5.253  10.089  0.2701 -0.0701 -0.2128
33358ION     NA48827   2.374   6.133  10.412  0.3109 -0.1507 -0.2034
33359ION     NA48828   5.431   4.418   4.498  0.2940  0.0601 -0.1120
33360ION     NA48829  14.517  17.275   1.873 -0.0162  0.2737  0.0167
33361ION     NA48830   6.956  12.756   6.001 -0.1373 -0.2330 -0.1648
33362ION     NA48831   8.546  15.252   0.886 -0.2121 -0.0446  0.0635
33363ION     NA48832   9.558  17.408  10.315 -0.1723  0.2736 -0.2925
33364ION     NA48833  17.307  10.918   9.915 -0.3222  0.0781 -0.0019
33365ION     NA48834  15.570  12.838   0.238  0.0063  0.1087 -0.0718
33366ION     NA48835   2.844   7.703  10.044 -0.0029  0.0329 -0.0188
33367ION     NA48836  16.314  10.816   5.569  0.3674 -0.0098  0.0381
33368ION     NA48837   6.049   5.970   9.985 -0.3057 -0.3445 -0.1738
33369ION     NA48838  16.218  14.508  12.968 -0.0869 -0.1195 -0.0822
33370ION     NA48839   3.909  18.180  10.348  0.2228 -0.0956 -0.4827
33371ION     NA48840   3.349  12.708  12.544 -0.3459  0.0501 -0.1218
33372ION     NA48841  17.203   8.652  10.213  0.4718 -0.0033  0.0360
33373ION     NA48842   1.671   4.176  10.754 -0.0421  0.1152  0.3372
33374ION     NA48843  17.203   1.034  10.411  0.2813  0.3449  0.1204
33375ION     NA48844  16.120   2.452  12.271  0.4449 -0.1027 -0.1117
33376ION     NA48845   0.583   3.776   1.478  0.0871 -0.2963 -0.4178
33377ION     NA48846   1.816  10.775  10.098  0.1239  0.0382  0.1500
33378ION     NA48847  12.912   6.801   2.702  0.0169 -0.5389 -0.1219
33379ION     NA48848   3.036   8.857   0.879  0.2914 -0.0116  0.0170
33380ION     NA48849  12.230   3.554  15.533 -0.0279  0.0722  0.2234
33381ION     NA48850  10.412   6.865  11.805  0.1263  0.2754  0.0936
33382ION     NA48851  15.532  17.029  12.023 -0.0137 -0.2172  0.0117
33383ION     NA48852  12.082  10.040   1.725  0.1777  0.1463  0.0214
33384ION     NA48853   5.115   5.701   5.370 -0.0148  0.1835 -0.0255
33385ION     NA48854   6.503   7.080  14.491  0.1433  0.2165  0.1880
33386ION     NA48855   2.909   0.101   3.413  0.0393 -0.3475  0.1483
33387ION     NA48856   5.906  15.502   2.513  0.0083 -0.0192 -0.2144
33388ION     NA48857  15.750   2.783   0.178 -0.0170  0.0455  0.2709
33389ION     NA48858  14.675  15.834  10.105 -0.0011  0.1271  0.0267
33390ION     NA48859   1.639   6.257  13.509  0.1474  0.0886 -0.0139
33391ION     NA48860   7.655  17.015  14.862  0.2244  0.0477 -0.0389
33392ION     NA48861   5.343   3.764   5.292  0.2935 -0.1661 -0.0741
33393ION     NA48862  15.154   2.309   0.538 -0.2047 -0.1786  0.0564
33394ION     NA48863   8.278  15.814   5.907  0.0484  0.1006 -0.2343
33395ION     NA48864  10.209  12.338   3.351  0.5410  0.0407 -0.0971
33396ION     NA48865  14.518   3.354  13.987 -0.2597  0.0120  0.0272
33397ION     NA48866   7.434  16.980   5.914  0.1749 -0.1285 -0.0267
33398ION     NA48867  18.096   5.845   5.809  0.1955  0.1480 -0.1294
33399ION     NA48868   0.008  16.195  10.361 -0.1682  0.1056  0.1072
33400ION     NA48869   8.554   7.200   5.665  0.1981  0.0437  0.0271
33401ION     NA48870   6.871  13.418  13.953  0.1815 -0.0414 -0.3204
33402ION     NA48871  13.015   2.982  10.672 -0.1075 -0.1452  0.0540
33403ION     NA48872   2.731   0.630   5.624  0.0366 -0.0931 -0.0668
33404ION     NA48873   8.835  15.541  14.900 -0.0320  0.4066  0.1450
33405ION     NA48874   7.418  17.797   4.787  0.1093  0.0915 -0.1890
33406ION     NA48875  16.530   9.883   1.352 -0.0255 -0.0534 -0.2454
33407ION     NA48876   1.299   9.921  13.491 -0.1116 -0.2402 -0.1685
33408ION     NA48877   2.229   6.773  16.082 -0.0419 -0.1336  0.1425
33409ION     NA48878   2.724   8.015   0.723 -0.1947 -0.3472 -0.1918
33410ION     NA48879   6.974  11.943  13.464 -0.0763 -0.0058  0.0819
33411ION     NA48880   0.961   0.326  10.716  0.1232  0.3414 -0.2115
33412ION     NA48881   3.567   2.435  11.924 -0.1058 -0.1333 -0.1406
33413ION     NA48882   3.183  13.668  12.664 -0.0487 -0.1167 -0.3620
33414ION     NA48883   9.686   4.350  10.141  0.0055  0.0733  0.1318
33415ION     NA48884  11.945   8.782  10.598 -0.0626 -0.0836  0.1006
33416ION     NA48885  16.463   7.307  14.278 -0.0017 -0.0853 -0.2473
33417ION     NA48886  10.157  17.730   4.223  0.0610 -0.0035 -0.1199
33418ION     NA48887   9.503   5.800   0.696 -0.1861 -0.0053 -0.1207
33419ION     NA48888  15.235   2.980  11.263 -0.0866 -0.2389 -0.1255
33420ION     NA48889   6.615   1.728  11.111  0.3474 -0.1550  0.1300
33421ION     NA48890  11.284   3.739  10.439 -0.1637 -0.2897 -0.0741
33422ION     NA48891  15.501  16.258   6.101 -0.0424 -0.1949  0.3757
33423ION     NA48892  17.579  10.423   2.469  0.1881 -0.0503  0.1967
33424ION     NA48893  14.039  16.342  10.385 -0.0790 -0.0627 -0.1986
33425ION     NA48894  11.057  17.944   4.379 -0.1019 -0.1896  0.0452
33426ION     NA48895  17.636  14.170   1.035 -0.0374  0.2055 -0.0926
33427ION     NA48896   7.042  18.000   9.750 -0.4356  0.3012  0.1281
33428ION     NA48897  11.272  16.594  10.283 -0.0617 -0.2217  0.1965
33429ION     NA48898  13.876   0.850  13.454 -0.2622 -0.0645 -0.1432
33430ION     NA48899   0.166   2.663   4.669 -0.2293 -0.2966 -0.0545
33431ION     NA48900   2.802  13.278  15.163  0.2729  0.2224  0.0219
33432ION     NA48901   9.143   1.778   0.064 -0.3103 -0.0191 -0.0274
33433ION     NA48902   0.278  14.743   2.720 -0.1191  0.0134 -0.1416
33434ION     NA48903  10.588   2.657   4.657  0.3205 -0.0254 -0.2395
33435ION     NA48904   7.358   6.718   9.704  0.1271  0.0217 -0.1851
33436ION     NA48905   9.096  17.037   6.014 -0.0042  0.1263 -0.3622
33437ION     NA48906  14.303  16.059   2.161 -0.0817 -0.1260  0.1929
33438ION     NA48907  15.652   1.281  10.543 -0.0820 -0.1820 -0.0790
33439ION     NA48908  12.315   6.298  13.280 -0.0661 -0.0870 -0.0014
33440ION     NA48909   6.158   7.983  16.010 -0.0925  0.1304  0.1830
33441ION     NA48910   9.124  13.224   5.468 -0.0286 -0.4424 -0.1432
33442ION     NA48911  15.401   5.484  13.155 -0.2018  0.0344  0.1386
33443ION     NA48912  16.996   8.311   3.648 -0.0146  0.1535  0.1075
33444ION     NA48913  12.259  16.756   2.679  0.0735 -0.0222 -0.0558
33445ION     NA48914   2.307  15.743  10.545  0.2011  0.1090 -0.2212
33446ION     NA48915   9.301  11.018   0.729  0.3295  0.1629 -0.0708
33447ION     NA48916   4.144  11.059  15.227 -0.1335 -0.1116  0.1687
33448ION     NA48917  16.382  13.233  15.581 -0.1667 -0.0319  0.0424
33449ION     NA48918  13.548  14.253  10.151  0.0654 -0.1362  0.0200
33450ION     NA48919  13.336  18.187   0.235  0.0251 -0.0442 -0.2000
33451ION     NA48920   1.599   3.826   4.228  0.1456 -0.0623 -0.1139
33452ION     NA48921   1.932   3.791   2.720  0.3613  0.0633 -0.1832
33453ION     NA48922  10.633   2.316  12.203 -0.0458  0.2380  0.0850
33454ION     NA48923   0.081   0.000  10.457 -0.0637 -0.0459  0.0919
33455ION     NA48924  16.668   6.529  16.085 -0.0582 -0.1315  0.3816
33456ION     NA48925   8.290  13.347  14.498  0.1666  0.0266 -0.0030
33457ION     NA48926   6.361  16.949   0.062 -0.2837 -0.1271  0.2077
33458ION     NA48927   8.787  17.968  12.845 -0.1575  0.0935  0.1397
33459ION     NA48928   9.934   1.603   5.646 -0.1563 -0.3468  0.0665
33460ION     NA48929  11.249  13.286   1.806 -0.1893 -0.0239 -0.0180
33461ION     NA48930  16.064  10.123   2.039  0.3851 -0.0578  0.2078
33462ION     NA48931   8.032  11.721  10.474 -0.0038 -0.0473  0.0230
33463ION     NA48932  12.825  11.422  10.682 -0.2807 -0.1456 -0.0560
33464ION     NA48933   0.119  14.168   2.126 -0.0314  0.3067  0.0477
33465ION     NA48934  10.592   9.044  10.084  0.0799  0.0619  0.0528
33466ION     NA48935   2.375   3.808   5.338 -0.0227  0.0465  0.1244
33467ION     NA48936  10.661   0.536  10.304  0.3209 -0.1046 -0.1058
33468ION     NA48937   2.632  11.307  14.292  0.0643 -0.1839 -0.1733
33469ION     NA48938   1.582  18.124  15.142  0.2054 -0.0469 -0.1117
33470ION     NA48939   8.923   8.926  10.087 -0.2101 -0.2455  0.2117
33471ION     NA48940  14.185   0.392  14.830 -0.1495  0.2005  0.1053
33472ION     NA48941   4.158  10.292  10.210  0.3011  0.4149  0.1670
33473ION     NA48942  11.867   7.456   1.329 -0.1016  0.3263  0.0267
33474ION     NA48943   8.928  11.228   1.606 -0.5637 -0.0675  0.1719
33475ION     NA48944  10.085  10.745   9.866 -0.1609  0.0893  0.2099
33476ION     NA48945  17.597   3.519   2.862  0.1353 -0.4198 -0.2507
33477ION     NA48946  16.202  11.831   0.176  0.1941 -0.1611  0.1869
33478ION     NA48947   7.108  17.198  15.363 -0.3010 -0.0991 -0.2319
33479ION     NA48948   3.117  16.467   2.811  0.1890  0.0549  0.0802
33480ION     NA48949  12.060   8.998  15.127  0.1689 -0.4074  0.4296
33481ION     NA48950   9.140   3.716  10.201 -0.0462 -0.3595 -0.2022
33482ION     NA48951  15.259   6.953   2.497  0.2943 -0.0601 -0.3031
33483ION     NA48952   9.888  11.113   1.712  0.2239 -0.0115 -0.1582
33484ION     NA48953  13.607   7.254   1.808 -0.0362  0.2169 -0.1086
33485ION     NA48954   5.074   0.732   4.139 -0.2547  0.0494  0.1010
33486ION     NA48955   9.849   8.612   1.731 -0.0121  0.3894  0.0350
33487ION     NA48956  14.325   3.908   6.256 -0.0600 -0.1286  0.3021
33488ION     NA48957   9.658   9.927   5.073 -0.2544 -0.0097  0.2437
33489ION     NA48958   2.108   9.161  10.219 -0.0126 -0.0815 -0.3589
33490ION     NA48959   3.146  13.456  10.356  0.0056  0.2893 -0.1721
33491ION     NA48960   8.692   1.449  11.215  0.2353 -0.0074 -0.1845
33492ION     NA48961  15.076  12.226  15.812 -0.2519 -0.0229  0.1406
33493ION     NA48962   0.627  15.630  10.223 -0.0565 -0.0351  0.1533
33494ION     NA48963   7.743  14.288   5.800 -0.0411  0.1915 -0.3373
33495ION     NA48964  17.408  16.836   3.203  0.3128  0.0113 -0.1076
33496ION     NA48965   1.192  11.155   1.481  0.0507  0.1574  0.1416
33497ION     NA48966   2.096   1.701  10.323 -0.0680 -0.1482  0.2475
33498ION     NA48967  17.997  17.964  13.963  0.0753 -0.0453  0.0091
33499ION     NA48968   2.756   5.145   4.266  0.2717 -0.0189  0.1426
33500ION     NA48969   8.397  16.892  10.273 -0.0587 -0.2920 -0.3475
33501ION     NA48970  14.253   6.763  15.333  0.0331 -0.0436  0.2552
33502ION     NA48971   5.974   5.723   5.530 -0.1759 -0.0228 -0.0898
33503ION     NA48972  14.484  15.263   3.765  0.2458 -0.1407  0.2457
33504ION     NA48973   8.493   5.348   1.267 -0.0256 -0.4780  0.2728
33505ION     NA48974   6.780   5.665   4.650 -0.0694 -0.0077 -0.1252
33506ION     NA48975  13.446   1.340   1.698  0.0932 -0.1149  0.0830
33507ION     NA48976  15.714   0.043   3.377  0.0341 -0.0858 -0.0193
33508ION     NA48977  12.292   0.073   6.386 -0.0956  0.0830 -0.0267
33509ION     NA48978   3.519  17.631   6.016 -0.0627 -0.3968  0.1020
33510ION     NA48979   9.158  10.900   9.627  0.0368  0.1815  0.0990
33511ION     NA48980   8.097  12.175   5.757 -0.1132 -0.0844 -0.0469
33512ION     NA48981   8.507  17.886  14.272 -0.1398 -0.0426 -0.2116
33513ION     NA48982   8.022   9.442   5.286  0.0386 -0.0520  0.1627
33514ION     NA48983  16.377  11.431  10.142 -0.0511 -0.3508 -0.4354
33515ION     NA48984  17.592  11.330   5.470 -0.1097 -0.1607 -0.1926
33516ION     NA48985  10.646  14.622  10.490  0.1196 -0.2016  0.1752
33517ION     NA48986   5.662   1.075   9.940 -0.3722 -0.0835 -0.1877
33518ION     NA48987  11.701  13.030  10.286  0.3717 -0.0976  0.1417
33519ION     NA48988   4.030   0.037  14.344  0.2211  0.1362 -0.0883
33520ION     NA48989   8.061  14.266  14.924  0.0795 -0.1045 -0.0104
33521ION     NA48990   0.622   3.190   0.057  0.2853 -0.1068 -0.2828
33522ION     NA48991  16.548  15.799   5.505 -0.0182 -0.2642  0.0869
33523ION     NA48992   1.751   5.176   5.528  0.0768  0.1854  0.0630
33524ION     NA48993  17.622   5.686  10.177 -0.0382 -0.3911 -0.1475
33525ION     NA48994   6.093  18.221   4.890  0.2196 -0.0723  0.2885
33526ION     NA48995   5.172  17.187  11.592 -0.0202 -0.0848 -0.1491
33527ION     NA48996  13.558   0.387  15.350  0.1917 -0.1586 -0.0783
33528ION     NA48997  16.895   9.773  14.968  0.1305  0.1788 -0.1718
33529ION     NA48998  11.821   7.764   0.908  0.0541 -0.0753 -0.1628
33530ION     NA48999  10.898  10.455  10.073  0.2999 -0.1485 -0.0810
33531ION     NA49000   7.258  18.066  13.824  0.0008 -0.2047 -0.1247
33532ION     NA49001  14.014   6.149   0.755 -0.2803 -0.0016  0.0443
33533ION     NA49002  18.092   0.674  10.567 -0.0469  0.2177 -0.0730
33534ION     NA49003  15.152   1.832   3.139  0.0497  0.2194 -0.1085
33535ION     NA49004   0.832   1.934   6.188  0.1251  0.0971  0.0742
33536ION     NA49005   8.276  11.012   9.839 -0.0148 -0.1126 -0.1291
33537ION     NA49006  11.563  15.771   4.627  0.2414 -0.1647 -0.1404
33538ION     NA49007   1.578   5.040  10.263  0.0547  0.2956  0.1327
33539ION     NA49008  13.952   3.319   2.071  0.0869 -0.0113  0.1286
33540ION     NA49009  10.601  16.525  15.862 -0.3787  0.1703 -0.0154
33541ION     NA49010  12.718  16.611   6.225 -0.2945  0.0271  0.2001
33542ION     NA49011  17.071  17.328   4.982  0.0252  0.1536 -0.2413
33543ION     NA49012   2.313  16.208   5.221 -0.2577 -0.0572 -0.1160
33544ION     NA49013  16.366   5.755   3.458  0.0594  0.0354  0.3010
33545ION     NA49014   6.468  10.028  14.351 -0.0743  0.1736 -0.0398
33546ION     NA49015   1.368  12.839  14.464  0.0271 -0.0412 -0.1923
33547ION     NA49016  11.944  15.776   2.865  0.1006  0.2375  0.0558
33548ION     NA49017   7.087   8.261   5.387 -0.2263  0.1127  0.0395
33549ION     NA49018  17.371   3.309   1.380  0.1461  0.1843 -0.0231
33550ION     NA49019   9.393   0.803   5.888 -0.0166  0.1550 -0.2129
33551ION     NA49020  16.721  16.499   6.066 -0.0029  0.2163 -0.0325
33552ION     NA49021  12.193  16.470  14.019 -0.2126 -0.0054  0.1379
33553ION     NA49022  15.326   5.800   5.830  0.4041 -0.2363  0.0616
33554ION     NA49023  15.161  17.010  10.558 -0.2647 -0.2067 -0.0516
33555ION     NA49024  15.141  11.455  10.417 -0.3295 -0.1556  0.0385
33556ION     NA49025  12.316   5.627   5.410  0.0815 -0.3328  0.1470
33557ION     NA49026   3.779   9.431   1.932 -0.2971 -0.1008  0.1137
33558ION     NA49027   6.643  13.330  10.253 -0.0606  0.0899  0.0598
33559ION     NA49028  13.174  14.916  10.668  0.0023  0.1377  0.2631
33560ION     NA49029   1.768  11.009   5.139 -0.2454 -0.0932  0.2067
33561ION     NA49030   8.950  14.888   3.286 -0.1792 -0.0278  0.0330
33562ION     NA49031   8.045  16.133  15.720  0.2697 -0.0332  0.1191
33563ION     NA49032   8.182   5.955   5.538 -0.3901  0.1674 -0.1801
33564ION     NA49033   8.931  15.868   2.046 -0.1231 -0.1390 -0.0854
33565ION     NA49034   2.171   5.068   0.609 -0.3274 -0.1565 -0.1804
33566ION     NA49035   8.048   4.029   1.925 -0.1172  0.2242 -0.5203
33567ION     NA49036  15.711   2.212  10.467 -0.0311 -0.1676  0.0348
33568ION     NA49037  15.614   1.329   2.660 -0.1273  0.4084 -0.1237
33569ION     NA49038  13.396  11.087  14.927 -0.2609 -0.0125  0.1208
33570ION     NA49039   0.165   8.194  12.257 -0.0621  0.2010  0.1907
33571ION     NA49040   4.563   9.969   1.790 -0.0953 -0.0419 -0.0445
33572ION     NA49041   4.870  14.491   2.986  0.2516 -0.2350 -0.0180
33573ION     NA49042   2.675   4.483   3.203 -0.1379  0.1511  0.0519
33574ION     NA49043  12.767   0.963  15.736 -0.2319 -0.0083  0.1575
33575ION     NA49044  15.325  10.736  11.763  0.0417  0.1420 -0.0817
33576ION     NA49045  11.907   6.696  10.262 -0.0237  0.2398 -0.2309
33577ION     NA49046  17.981  10.912  11.463 -0.1417  0.0141  0.0159
33578ION     NA49047   3.911  13.432   5.958  0.0447 -0.1938  0.0936
33579ION     NA49048  16.467  14.569  12.140 -0.2399  0.3176 -0.0613
33580ION     NA49049   2.791   6.404   1.368 -0.1157 -0.1418 -0.0252
33581ION     NA49050   3.095   7.608   1.611  0.1460 -0.0721 -0.3826
33582ION     NA49051   3.430   4.660   3.679  0.3691  0.0482 -0.2954
33583ION     NA49052   2.886  11.715  10.362  0.2914 -0.2504  0.1329
33584ION     NA49053  13.139   8.714   3.574  0.0944  0.1574 -0.0429
33585ION     NA49054  18.269   7.309   3.117 -0.1893  0.1191 -0.0905
33586ION     NA49055   4.323   5.539  15.199  0.0717 -0.0633 -0.0162
33587ION     NA49056  18.235  17.571  15.587  0.2030 -0.2841 -0.2016
33588ION     NA49057  10.780   9.117   3.000  0.2420  0.3393 -0.0173
33589ION     NA49058  17.446  14.469   3.338  0.5119 -0.0508 -0.3883
33590ION     NA49059   3.837   3.915   0.750  0.0536  0.0263 -0.0170
33591ION     NA49060   1.610   1.103   0.472  0.1674 -0.1749  0.1198
33592ION     NA49061   1.610  18.024  10.409 -0.0565 -0.1955  0.0216
33593ION     NA49062   4.966  15.886   3.539  0.3174 -0.0525  0.3579
33594ION     NA49063   2.910  13.893   1.314  0.0821 -0.1105 -0.2502
33595ION     NA49064   5.378  15.386  12.666 -0.1532 -0.0091  0.1008
33596ION     NA49065  11.317   0.318   6.347  0.2944  0.0036 -0.1658
33597ION     NA49066   7.699  10.764   1.503 -0.2091 -0.0550 -0.0182
33598ION     NA49067  16.407  15.118   0.190 -0.0738  0.0936 -0.0352
33599ION     NA49068  15.631   9.647  10.173  0.1369 -0.0419  0.0914
33600ION     NA49069  15.733   1.281  15.128 -0.1730  0.4428 -0.0781
33601ION     NA49070  12.009  11.870  10.317  0.1001 -0.2692  0.0105
33602ION     NA49071   7.414  11.866   5.693 -0.2402  0.3039 -0.0385
33603ION     NA49072  13.641   6.980  12.414  0.1256  0.0909 -0.1853
33604ION     NA49073   7.970   1.132   2.817  0.0638 -0.0195 -0.2352
33605ION     NA49074  13.383   7.604   5.716 -0.3553  0.0342 -0.0466
  18.28833  18.28833  16.11351
